<event>
11    1  0.8328696E-009  0.2279849E+03  0.7561462E-02  0.1036328E+00
         22   -1    0    0    0    0  0.00000000000E+00  0.00000000000E+00  0.35599189582E+03  0.35599189582E+03  0.00000000000E+00 0.  1.
         22   -1    0    0    0    0 -0.00000000000E+00 -0.00000000000E+00 -0.33127804364E+03  0.33127804364E+03  0.00000000000E+00 0. -1.
        -24    2    1    2    0    0  0.25361065583E+02 -0.28232991134E+02 -0.16852499844E+03  0.18925388323E+03  0.77305056628E+02 0.  0.
         25    2    1    2    0    0 -0.14736019935E+03  0.15818372427E+03  0.49023876130E+02  0.25453580480E+03  0.12509203219E+03 0.  0.
         24    2    1    2    0    0  0.12199913376E+03 -0.12995073314E+03  0.14421497450E+03  0.24348025143E+03  0.81937123979E+02 0.  0.
        -11    1    5    5    0    0  0.92550660056E+02 -0.13072766687E+03  0.14180135827E+03  0.21392281966E+03  0.00000000000E+00 0.  1.
         12    1    5    5    0    0  0.29448473708E+02  0.77693373545E+00  0.24136162257E+01  0.29557431773E+02  0.00000000000E+00 0. -1.
         11    1    3    3    0    0  0.34712853149E+02 -0.46310845960E+02 -0.82003157780E+02  0.10037028700E+03  0.00000000000E+00 0. -1.
        -12    1    3    3    0    0 -0.93517875662E+01  0.18077854827E+02 -0.86521840664E+02  0.88883596224E+02  0.00000000000E+00 0.  1.
          5    1    4    4  501    0 -0.86085228284E+02  0.82453648596E+02 -0.36607586893E+02  0.12476721730E+03  0.41800000000E+01 0.  1.
         -5    1    4    4    0  501 -0.61274971061E+02  0.75730075676E+02  0.85631463022E+02  0.12976858749E+03  0.41800000000E+01 0.  1.
</event>
<event>
11    1  0.8328696E-009  0.1554143E+03  0.7561462E-02  0.1091471E+00
         22   -1    0    0    0    0  0.00000000000E+00  0.00000000000E+00  0.48573628759E+03  0.48573628759E+03  0.00000000000E+00 0.  1.
         22   -1    0    0    0    0 -0.00000000000E+00 -0.00000000000E+00 -0.13764175124E+04  0.13764175124E+04  0.00000000000E+00 0. -1.
        -24    2    1    2    0    0 -0.23916905494E+02  0.87433562526E+02 -0.12758768038E+04  0.12816586759E+04  0.81059834758E+02 0.  0.
         25    2    1    2    0    0  0.73893892695E+01 -0.15717539414E+03  0.22489208112E+02  0.20226759099E+03  0.12509079218E+03 0.  0.
         24    2    1    2    0    0  0.16527516225E+02  0.69741831613E+02  0.36270637082E+03  0.37822753315E+03  0.79768875684E+02 0.  0.
        -11    1    5    5    0    0  0.67512299014E+01  0.62679753899E+00  0.21234881994E+03  0.21245703874E+03  0.00000000000E+00 0.  1.
         12    1    5    5    0    0  0.97762863235E+01  0.69115034074E+02  0.15035755088E+03  0.16577049441E+03  0.00000000000E+00 0. -1.
         11    1    3    3    0    0 -0.47586513020E+02  0.62644456878E+02 -0.10753553480E+04  0.10782290706E+04  0.00000000000E+00 0. -1.
        -12    1    3    3    0    0  0.23669607526E+02  0.24789105648E+02 -0.20052145576E+03  0.20342960526E+03  0.00000000000E+00 0.  1.
          5    1    4    4  501    0 -0.18144660063E+02  0.12247294911E+02 -0.14953151769E+02  0.26838294827E+02  0.41800000000E+01 0. -1.
         -5    1    4    4    0  501  0.25534049332E+02 -0.16942268905E+03  0.37442359881E+02  0.17542929617E+03  0.41800000000E+01 0. -1.
</event>
<event>
11    1  0.8328696E-009  0.2147567E+03  0.7561462E-02  0.1044553E+00
         22   -1    0    0    0    0  0.00000000000E+00  0.00000000000E+00  0.12687202886E+04  0.12687202886E+04  0.00000000000E+00 0.  1.
         22   -1    0    0    0    0 -0.00000000000E+00 -0.00000000000E+00 -0.70877944849E+03  0.70877944849E+03  0.00000000000E+00 0. -1.
        -24    2    1    2    0    0 -0.49058815078E+02 -0.16745819634E+03 -0.66187262206E+03  0.68920432447E+03  0.80487378995E+02 0.  0.
         25    2    1    2    0    0  0.55756932850E+02  0.16759519984E+03  0.34222993370E+03  0.40492575560E+03  0.12508618411E+03 0.  0.
         24    2    1    2    0    0 -0.66981177713E+01 -0.13700350615E+00  0.87958352843E+03  0.88336965698E+03  0.81424098610E+02 0.  0.
        -13    1    5    5    0    0 -0.99127268779E+01  0.22601928227E+02  0.80389721393E+03  0.80427597246E+03  0.00000000000E+00 0.  1.
         14    1    5    5    0    0  0.32146091066E+01 -0.22738931733E+02  0.75686314500E+02  0.79093684518E+02  0.00000000000E+00 0. -1.
         13    1    3    3    0    0 -0.26357392121E+02 -0.16057558432E+03 -0.62081018913E+03  0.64178230057E+03  0.00000000000E+00 0. -1.
        -14    1    3    3    0    0 -0.22701422958E+02 -0.68826120177E+01 -0.41062432932E+02  0.47422023900E+02  0.00000000000E+00 0.  1.
          5    1    4    4  501    0 -0.25509583155E+02 -0.38103891431E+01  0.32538830128E+02  0.41731352294E+02  0.41800000000E+01 0.  1.
         -5    1    4    4    0  501  0.81266516004E+02  0.17140558899E+03  0.30969110358E+03  0.36319440331E+03  0.41800000000E+01 0.  1.
</event>
<event>
11    1  0.8328696E-009  0.1325769E+03  0.7561462E-02  0.1116143E+00
         22   -1    0    0    0    0  0.00000000000E+00  0.00000000000E+00  0.15835110569E+04  0.15835110569E+04  0.00000000000E+00 0.  1.
         22   -1    0    0    0    0 -0.00000000000E+00 -0.00000000000E+00 -0.68749738795E+03  0.68749738795E+03  0.00000000000E+00 0.  1.
         24    2    1    2    0    0  0.35032966744E+01 -0.25940489559E+02 -0.64037949833E+03  0.64611503743E+03  0.81814165147E+02 0.  0.
         25    2    1    2    0    0 -0.35391578729E+02  0.55170731126E+02  0.73696569575E+02  0.15929578587E+03  0.12509032581E+03 0.  0.
        -24    2    1    2    0    0  0.31888282054E+02 -0.29230241567E+02  0.14626965977E+04  0.14655976215E+04  0.81386619158E+02 0.  0.
        -11    1    3    3    0    0  0.33391780955E+02  0.26638822648E+01 -0.45232485533E+03  0.45356353695E+03  0.00000000000E+00 0.  1.
         12    1    3    3    0    0 -0.29888484280E+02 -0.28604371824E+02 -0.18805464301E+03  0.19255150048E+03  0.00000000000E+00 0. -1.
         13    1    5    5    0    0 -0.14168076159E+02  0.19460602774E+02  0.49323080901E+03  0.49381786157E+03  0.00000000000E+00 0. -1.
        -14    1    5    5    0    0  0.46056358214E+02 -0.48690844340E+02  0.96946578867E+03  0.97177975996E+03  0.00000000000E+00 0.  1.
          5    1    4    4  501    0 -0.21674274310E+02 -0.27408777869E+02 -0.14103175581E+02  0.37912890059E+02  0.41800000000E+01 0.  1.
         -5    1    4    4    0  501 -0.13717304419E+02  0.82579508995E+02  0.87799745157E+02  0.12138289581E+03  0.41800000000E+01 0.  1.
</event>
<event>
11    1  0.8328696E-009  0.1494848E+03  0.7561462E-02  0.1097406E+00
         22   -1    0    0    0    0  0.00000000000E+00  0.00000000000E+00  0.17396262366E+03  0.17396262366E+03  0.00000000000E+00 0. -1.
         22   -1    0    0    0    0 -0.00000000000E+00 -0.00000000000E+00 -0.20610560199E+04  0.20610560199E+04  0.00000000000E+00 0. -1.
        -24    2    1    2    0    0  0.57483847590E+02  0.18182421302E+02 -0.16536647809E+04  0.16566960783E+04  0.79998094319E+02 0.  0.
         25    2    1    2    0    0 -0.82630384711E+02  0.59612993970E+02 -0.36868388354E+03  0.40244046686E+03  0.12509609851E+03 0.  0.
         24    2    1    2    0    0  0.25146537121E+02 -0.77795415272E+02  0.13525526817E+03  0.17588209841E+03  0.77175449511E+02 0.  0.
        -11    1    5    5    0    0  0.13291852164E+02 -0.80748910347E+02  0.64824531686E+02  0.10439961573E+03  0.00000000000E+00 0.  1.
         12    1    5    5    0    0  0.11854684957E+02  0.29534950751E+01  0.70430736486E+02  0.71482482684E+02  0.00000000000E+00 0. -1.
         13    1    3    3    0    0  0.19093388877E+02  0.47495482753E+02 -0.94693566844E+03  0.94831826860E+03  0.00000000000E+00 0. -1.
        -14    1    3    3    0    0  0.38390458713E+02 -0.29313061451E+02 -0.70672911247E+03  0.70837780972E+03  0.00000000000E+00 0.  1.
          5    1    4    4  501    0 -0.44713232512E+02  0.84592242304E+02 -0.14241903737E+03  0.17162684879E+03  0.41800000000E+01 0.  1.
         -5    1    4    4    0  501 -0.37917152199E+02 -0.24979248335E+02 -0.22626484616E+03  0.23081361807E+03  0.41800000000E+01 0.  1.
</event>
<event>
11    1  0.8328696E-009  0.1311249E+03  0.7561462E-02  0.1117895E+00
         22   -1    0    0    0    0  0.00000000000E+00  0.00000000000E+00  0.51340437277E+03  0.51340437277E+03  0.00000000000E+00 0.  1.
         22   -1    0    0    0    0 -0.00000000000E+00 -0.00000000000E+00 -0.25642135655E+04  0.25642135655E+04  0.00000000000E+00 0. -1.
         24    2    1    2    0    0  0.58840981462E+02 -0.11500042402E+02 -0.17323801772E+04  0.17345299366E+04  0.62116911413E+02 0.  0.
         25    2    1    2    0    0 -0.97886085183E+02  0.11681608848E+02 -0.81917205298E+03  0.83451088614E+03  0.12508965203E+03 0.  0.
        -24    2    1    2    0    0  0.39045103721E+02 -0.18156644670E+00  0.50074303747E+03  0.50857711548E+03  0.79890798757E+02 0.  0.
        -11    1    3    3    0    0  0.24532044203E+02 -0.13113700792E+02 -0.21893846664E+03  0.22069853311E+03  0.00000000000E+00 0.  1.
         12    1    3    3    0    0  0.34308937259E+02  0.16136583909E+01 -0.15134417105E+04  0.15138314035E+04  0.00000000000E+00 0. -1.
         11    1    5    5    0    0 -0.24779066177E+02 -0.82896926590E+00  0.15963446626E+03  0.16154829659E+03  0.00000000000E+00 0. -1.
        -12    1    5    5    0    0  0.63824169897E+02  0.64740281920E+00  0.34110857120E+03  0.34702881889E+03  0.00000000000E+00 0.  1.
          5    1    4    4  501    0 -0.91059109488E+02  0.84351989155E+00 -0.81545400696E+03  0.82053347452E+03  0.41800000000E+01 0. -1.
         -5    1    4    4    0  501 -0.68269756950E+01  0.10838088957E+02 -0.37180460251E+01  0.13977411621E+02  0.41800000000E+01 0. -1.
</event>
<event>
11    1  0.8328696E-009  0.1646553E+03  0.7561462E-02  0.1082779E+00
         22   -1    0    0    0    0  0.00000000000E+00  0.00000000000E+00  0.48252260748E+02  0.48252260748E+02  0.00000000000E+00 0.  1.
         22   -1    0    0    0    0 -0.00000000000E+00 -0.00000000000E+00 -0.18604627533E+04  0.18604627533E+04  0.00000000000E+00 0. -1.
         24    2    1    2    0    0  0.44936398039E+02  0.91451019410E+02 -0.13562811878E+04  0.13625461169E+04  0.81551771503E+02 0.  0.
         25    2    1    2    0    0 -0.38268396633E+02 -0.14677361000E+03 -0.35453959106E+03  0.40540454810E+03  0.12509022029E+03 0.  0.
        -24    2    1    2    0    0 -0.66680014063E+01  0.55322590591E+02 -0.10138971370E+03  0.14076434908E+03  0.80185264572E+02 0.  0.
        -13    1    3    3    0    0 -0.87540734314E+01  0.53215337360E+01 -0.52389443970E+03  0.52399459584E+03  0.00000000000E+00 0.  1.
         14    1    3    3    0    0  0.53690471471E+02  0.86129485674E+02 -0.83238674808E+03  0.83855152102E+03  0.00000000000E+00 0. -1.
         11    1    5    5    0    0  0.82071964091E+01 -0.18262419558E+02 -0.36059751561E+02  0.41245360026E+02  0.00000000000E+00 0. -1.
        -12    1    5    5    0    0 -0.14875197815E+02  0.73585010149E+02 -0.65329962136E+02  0.99518989049E+02  0.00000000000E+00 0.  1.
          5    1    4    4  501    0 -0.17254738686E+02 -0.11308559221E+03 -0.11392639665E+03  0.16150162051E+03  0.41800000000E+01 0. -1.
         -5    1    4    4    0  501 -0.21013657947E+02 -0.33688017794E+02 -0.24061319441E+03  0.24390292759E+03  0.41800000000E+01 0. -1.
</event>
<event>
11    1  0.8328696E-009  0.2026751E+03  0.7561462E-02  0.1052648E+00
         22   -1    0    0    0    0  0.00000000000E+00  0.00000000000E+00  0.10010344597E+04  0.10010344597E+04  0.00000000000E+00 0. -1.
         22   -1    0    0    0    0 -0.00000000000E+00 -0.00000000000E+00 -0.11163838910E+04  0.11163838910E+04  0.00000000000E+00 0. -1.
         24    2    1    2    0    0  0.45182102823E+02  0.14696849642E+03 -0.92980276345E+03  0.94608981049E+03  0.83135968367E+02 0.  0.
         25    2    1    2    0    0  0.23113224818E+02 -0.26381514126E+03 -0.46049379045E+02  0.29648018355E+03  0.12508918421E+03 0.  0.
        -24    2    1    2    0    0 -0.68295327641E+02  0.11684664484E+03  0.86050271113E+03  0.87484835665E+03  0.81100808144E+02 0.  0.
        -13    1    3    3    0    0  0.51999648041E+02  0.47937317454E+02 -0.28241921726E+03  0.29114011074E+03  0.00000000000E+00 0.  1.
         14    1    3    3    0    0 -0.68175452181E+01  0.99031178963E+02 -0.64738354619E+03  0.65494969975E+03  0.00000000000E+00 0. -1.
         11    1    5    5    0    0 -0.78064973210E+02  0.93623993521E+02  0.80113485777E+03  0.81035588018E+03  0.00000000000E+00 0. -1.
        -12    1    5    5    0    0  0.97696455685E+01  0.23222651318E+02  0.59367853360E+02  0.64492476471E+02  0.00000000000E+00 0.  1.
          5    1    4    4  501    0  0.10123907309E+02 -0.21642785940E+03 -0.85869050220E+02  0.23309757186E+03  0.41800000000E+01 0.  1.
         -5    1    4    4    0  501  0.12989317509E+02 -0.47387281857E+02  0.39819671175E+02  0.63382611682E+02  0.41800000000E+01 0.  1.
</event>
<event>
11    1  0.8328696E-009  0.1498827E+03  0.7561462E-02  0.1096999E+00
         22   -1    0    0    0    0  0.00000000000E+00  0.00000000000E+00  0.18489259087E+04  0.18489259087E+04  0.00000000000E+00 0. -1.
         22   -1    0    0    0    0 -0.00000000000E+00 -0.00000000000E+00 -0.50373712313E+02  0.50373712313E+02  0.00000000000E+00 0.  1.
        -24    2    1    2    0    0  0.81470374878E+02  0.96086493013E+01  0.42125108390E+02  0.12172014561E+03  0.79445081445E+02 0.  0.
         25    2    1    2    0    0 -0.86184983692E+02 -0.84237344389E+01  0.60976864570E+03  0.62846181362E+03  0.12509052394E+03 0.  0.
         24    2    1    2    0    0  0.47146088138E+01 -0.11849148624E+01  0.11466584423E+04  0.11491176618E+04  0.74981236204E+02 0.  0.
        -13    1    5    5    0    0  0.24274286198E+02 -0.13205528740E+02  0.17337040292E+03  0.17555888918E+03  0.00000000000E+00 0.  1.
         14    1    5    5    0    0 -0.19559677384E+02  0.12020613878E+02  0.97328803942E+03  0.97355877265E+03  0.00000000000E+00 0. -1.
         11    1    3    3    0    0  0.19766463301E+02  0.29134931512E+02  0.44759139105E+02  0.56946798322E+02  0.00000000000E+00 0. -1.
        -12    1    3    3    0    0  0.61703911577E+02 -0.19526282211E+02 -0.26340307154E+01  0.64773347287E+02  0.00000000000E+00 0.  1.
          5    1    4    4  501    0  0.32720830472E+01  0.40809631603E+02  0.93204704460E+02  0.10188582773E+03  0.41800000000E+01 0.  1.
         -5    1    4    4    0  501 -0.89457066739E+02 -0.49233366041E+02  0.51656394124E+03  0.52657598589E+03  0.41800000000E+01 0.  1.
</event>
<event>
11    1  0.8328696E-009  0.1740999E+03  0.7561462E-02  0.1074518E+00
         22   -1    0    0    0    0  0.00000000000E+00  0.00000000000E+00  0.22145848923E+04  0.22145848923E+04  0.00000000000E+00 0. -1.
         22   -1    0    0    0    0 -0.00000000000E+00 -0.00000000000E+00 -0.84223366203E+02  0.84223366203E+02  0.00000000000E+00 0.  1.
         24    2    1    2    0    0 -0.13746040964E+01 -0.11856479389E+03  0.19090643295E+02  0.14384848988E+03  0.79173451934E+02 0.  0.
         25    2    1    2    0    0  0.44366544090E+02  0.13247791932E+03  0.40328950588E+03  0.44475686352E+03  0.12508977879E+03 0.  0.
        -24    2    1    2    0    0 -0.42991939994E+02 -0.13913125427E+02  0.17079813770E+04  0.17102029052E+04  0.74509803032E+02 0.  0.
        -11    1    3    3    0    0 -0.46506947054E+01 -0.98995691720E+02 -0.18990864807E+02  0.10090802191E+03  0.00000000000E+00 0.  1.
         12    1    3    3    0    0  0.32760906089E+01 -0.19569102172E+02  0.38081508103E+02  0.42940467963E+02  0.00000000000E+00 0. -1.
         11    1    5    5    0    0 -0.31789112585E+02  0.19939608942E+02  0.13334471064E+04  0.13339750077E+04  0.00000000000E+00 0. -1.
        -12    1    5    5    0    0 -0.11202827409E+02 -0.33852734369E+02  0.37453427062E+03  0.37622789747E+03  0.00000000000E+00 0.  1.
          5    1    4    4  501    0 -0.22802030271E+02  0.44379430875E+02  0.37553105818E+02  0.62587335986E+02  0.41800000000E+01 0. -1.
         -5    1    4    4    0  501  0.67168574362E+02  0.88098488445E+02  0.36573640006E+03  0.38216952754E+03  0.41800000000E+01 0. -1.
</event>
<event>
11    1  0.8328696E-009  0.1485762E+03  0.7561462E-02  0.1098343E+00
         22   -1    0    0    0    0  0.00000000000E+00  0.00000000000E+00  0.43966764493E+03  0.43966764493E+03  0.00000000000E+00 0. -1.
         22   -1    0    0    0    0 -0.00000000000E+00 -0.00000000000E+00 -0.11179086113E+04  0.11179086113E+04  0.00000000000E+00 0. -1.
        -24    2    1    2    0    0  0.79613992611E+02  0.64483622598E+00 -0.98825583222E+03  0.99469651457E+03  0.80204504594E+02 0.  0.
         25    2    1    2    0    0 -0.88113104235E+02  0.75461596015E+01 -0.74325249480E+02  0.17028263807E+03  0.12510423836E+03 0.  0.
         24    2    1    2    0    0  0.84991116244E+01 -0.81909958274E+01  0.38434011536E+03  0.39259710354E+03  0.79220162351E+02 0.  0.
        -11    1    5    5    0    0  0.15853248966E+02 -0.23273624477E+02  0.46650795195E+02  0.54491134980E+02  0.00000000000E+00 0.  1.
         12    1    5    5    0    0 -0.73541373418E+01  0.15082628650E+02  0.33768932017E+03  0.33810596856E+03  0.00000000000E+00 0. -1.
         13    1    3    3    0    0  0.81419969854E+02  0.25561825332E+02 -0.84295129287E+03  0.84725999585E+03  0.00000000000E+00 0. -1.
        -14    1    3    3    0    0 -0.18059772432E+01 -0.24916989106E+02 -0.14530453934E+03  0.14743651872E+03  0.00000000000E+00 0.  1.
          5    1    4    4  501    0  0.11335262935E+01 -0.48887584248E+01 -0.79652490714E+02  0.79919813049E+02  0.41800000000E+01 0. -1.
         -5    1    4    4    0  501 -0.89246630529E+02  0.12434918026E+02  0.53272412347E+01  0.90362825024E+02  0.41800000000E+01 0. -1.
</event>
<event>
11    1  0.8328696E-009  0.3947002E+03  0.7561462E-02  0.9665526E-01
         22   -1    0    0    0    0  0.00000000000E+00  0.00000000000E+00  0.87198333086E+03  0.87198333086E+03  0.00000000000E+00 0. -1.
         22   -1    0    0    0    0 -0.00000000000E+00 -0.00000000000E+00 -0.12447722996E+04  0.12447722996E+04  0.00000000000E+00 0. -1.
        -24    2    1    2    0    0  0.40150376587E+02  0.55996868481E+00 -0.38743536192E+03  0.39735417892E+03  0.78560916083E+02 0.  0.
         25    2    1    2    0    0 -0.42751263429E+02 -0.37485514677E+03 -0.75861956897E+03  0.85644313119E+03  0.12508850843E+03 0.  0.
         24    2    1    2    0    0  0.26008868424E+01  0.37429517809E+03  0.77326596215E+03  0.86295832035E+03  0.81566963314E+02 0.  0.
        -13    1    5    5    0    0 -0.47882252256E+01  0.13930218410E+03  0.38019300623E+03  0.40493795523E+03  0.00000000000E+00 0.  1.
         14    1    5    5    0    0  0.73891120680E+01  0.23499299399E+03  0.39307295591E+03  0.45802036513E+03  0.00000000000E+00 0. -1.
         11    1    3    3    0    0  0.20307906187E+02  0.39163066579E+02 -0.17013806003E+03  0.17576437724E+03  0.00000000000E+00 0. -1.
        -12    1    3    3    0    0  0.19842470400E+02 -0.38603097894E+02 -0.21729730189E+03  0.22158980168E+03  0.00000000000E+00 0.  1.
          5    1    4    4  501    0 -0.75152515234E+02 -0.30454881212E+03 -0.66196163562E+03  0.73253570489E+03  0.41800000000E+01 0. -1.
         -5    1    4    4    0  501  0.32401251805E+02 -0.70306334649E+02 -0.96657933353E+02  0.12390742629E+03  0.41800000000E+01 0. -1.
</event>
<event>
11    1  0.8328696E-009  0.3344802E+03  0.7561462E-02  0.9865697E-01
         22   -1    0    0    0    0  0.00000000000E+00  0.00000000000E+00  0.13533492853E+04  0.13533492853E+04  0.00000000000E+00 0.  1.
         22   -1    0    0    0    0 -0.00000000000E+00 -0.00000000000E+00 -0.86725359174E+03  0.86725359174E+03  0.00000000000E+00 0.  1.
         24    2    1    2    0    0 -0.94636597754E+02 -0.70503931487E+01 -0.60311348801E+03  0.61584996643E+03  0.80743470713E+02 0.  0.
         25    2    1    2    0    0 -0.20335188097E+03  0.11594785537E+03 -0.16229109910E+03  0.31109737339E+03  0.12508909715E+03 0.  0.
        -24    2    1    2    0    0  0.29798847873E+03 -0.10889746223E+03  0.12515002806E+04  0.12936555372E+04  0.81461068705E+02 0.  0.
        -11    1    3    3    0    0 -0.70757709183E+02 -0.27658104772E+02 -0.24893055793E+03  0.26026533930E+03  0.00000000000E+00 0.  1.
         12    1    3    3    0    0 -0.23878888571E+02  0.20607711623E+02 -0.35418293007E+03  0.35558462713E+03  0.00000000000E+00 0. -1.
         13    1    5    5    0    0  0.88453417403E+02 -0.62466455437E+00  0.26587047033E+03  0.28019904398E+03  0.00000000000E+00 0. -1.
        -14    1    5    5    0    0  0.20953506132E+03 -0.10827279767E+03  0.98562981031E+03  0.10134564932E+04  0.00000000000E+00 0.  1.
          5    1    4    4  501    0 -0.77339439692E+02  0.96718022333E+01  0.23351328677E+01  0.78088782394E+02  0.41800000000E+01 0. -1.
         -5    1    4    4    0  501 -0.12601244128E+03  0.10627605314E+03 -0.16462623196E+03  0.23300859100E+03  0.41800000000E+01 0. -1.
</event>
<event>
11    1  0.8328696E-009  0.1757344E+03  0.7561462E-02  0.1073146E+00
         22   -1    0    0    0    0  0.00000000000E+00  0.00000000000E+00  0.14309479264E+04  0.14309479264E+04  0.00000000000E+00 0.  1.
         22   -1    0    0    0    0 -0.00000000000E+00 -0.00000000000E+00 -0.11332315194E+04  0.11332315194E+04  0.00000000000E+00 0.  1.
         24    2    1    2    0    0  0.17308774351E+02  0.59650898482E+02 -0.10374285639E+04  0.10424357924E+04  0.80972420269E+02 0.  0.
         25    2    1    2    0    0 -0.12848441447E+03 -0.50472757391E+01  0.10531440383E+01  0.17940483954E+03  0.12510502621E+03 0.  0.
        -24    2    1    2    0    0  0.11117564012E+03 -0.54603622743E+02  0.13340918268E+04  0.13423388139E+04  0.82042124658E+02 0.  0.
        -11    1    3    3    0    0  0.28119245411E+02 -0.87828407191E+01 -0.44408187809E+03  0.44505791163E+03  0.00000000000E+00 0.  1.
         12    1    3    3    0    0 -0.10810471060E+02  0.68433739201E+02 -0.59334668578E+03  0.59737788080E+03  0.00000000000E+00 0. -1.
         11    1    5    5    0    0  0.21473909196E+02 -0.54781798326E+02  0.51622963754E+03  0.51957214405E+03  0.00000000000E+00 0. -1.
        -12    1    5    5    0    0  0.89701730920E+02  0.17817558280E+00  0.81786218930E+03  0.82276666982E+03  0.00000000000E+00 0.  1.
          5    1    4    4  501    0 -0.11213406828E+03  0.22940870771E+02 -0.44895974203E+02  0.12301810322E+03  0.41800000000E+01 0. -1.
         -5    1    4    4    0  501 -0.16350346191E+02 -0.27988146510E+02  0.45949118241E+02  0.56386736319E+02  0.41800000000E+01 0. -1.
</event>
<event>
11    1  0.8328696E-009  0.2246366E+03  0.7561462E-02  0.1038351E+00
         22   -1    0    0    0    0  0.00000000000E+00  0.00000000000E+00  0.55001298659E+03  0.55001298659E+03  0.00000000000E+00 0.  1.
         22   -1    0    0    0    0 -0.00000000000E+00 -0.00000000000E+00 -0.11242972342E+04  0.11242972342E+04  0.00000000000E+00 0.  1.
         24    2    1    2    0    0 -0.10488644450E+03  0.11818884101E+02 -0.77522095819E+03  0.78651808660E+03  0.80636928705E+02 0.  0.
         25    2    1    2    0    0  0.27619952052E+03  0.45967499959E+02 -0.24984380456E+03  0.39556086302E+03  0.12508910220E+03 0.  0.
        -24    2    1    2    0    0 -0.17131307602E+03 -0.57786384060E+02  0.45078051518E+03  0.49223127113E+03  0.80006969799E+02 0.  0.
        -13    1    3    3    0    0 -0.93796309501E+02 -0.55511991453E+01 -0.73813042497E+03  0.74408674747E+03  0.00000000000E+00 0.  1.
         14    1    3    3    0    0 -0.11090134995E+02  0.17370083246E+02 -0.37090533224E+02  0.42431339137E+02  0.00000000000E+00 0. -1.
         13    1    5    5    0    0 -0.94628298240E+02 -0.46010296448E+02  0.16169854673E+03  0.19291936715E+03  0.00000000000E+00 0. -1.
        -14    1    5    5    0    0 -0.76684777780E+02 -0.11776087612E+02  0.28908196845E+03  0.29931190398E+03  0.00000000000E+00 0.  1.
          5    1    4    4  501    0  0.72618517329E+01  0.79933226923E+00  0.13841316524E+02  0.16199625483E+02  0.41800000000E+01 0.  1.
         -5    1    4    4    0  501  0.26893766878E+03  0.45168167690E+02 -0.26368512109E+03  0.37936123754E+03  0.41800000000E+01 0.  1.
</event>
<event>
11    1  0.8328696E-009  0.1302809E+03  0.7561462E-02  0.1118924E+00
         22   -1    0    0    0    0  0.00000000000E+00  0.00000000000E+00  0.21510254249E+04  0.21510254249E+04  0.00000000000E+00 0. -1.
         22   -1    0    0    0    0 -0.00000000000E+00 -0.00000000000E+00 -0.46941876387E+02  0.46941876387E+02  0.00000000000E+00 0.  1.
        -24    2    1    2    0    0  0.13836112715E+02  0.33195198465E+02  0.19071551542E+02  0.87274421576E+02  0.77199361183E+02 0.  0.
         25    2    1    2    0    0 -0.16242958691E+02  0.59769642410E+01  0.32905538971E+03  0.35245531350E+03  0.12509092977E+03 0.  0.
         24    2    1    2    0    0  0.24068459768E+01 -0.39172162706E+02  0.17559566073E+04  0.17582375663E+04  0.80470375934E+02 0.  0.
        -13    1    5    5    0    0  0.35898697462E+02 -0.16840514887E+02  0.47620907363E+03  0.47785709289E+03  0.00000000000E+00 0.  1.
         14    1    5    5    0    0 -0.33491851485E+02 -0.22331647819E+02  0.12797475337E+04  0.12803804734E+04  0.00000000000E+00 0. -1.
         11    1    3    3    0    0 -0.25383459980E+02  0.36513934912E+02  0.17782203364E+02  0.47893572009E+02  0.00000000000E+00 0. -1.
        -12    1    3    3    0    0  0.39219572695E+02 -0.33187364469E+01  0.12893481779E+01  0.39380849568E+02  0.00000000000E+00 0.  1.
          5    1    4    4  501    0 -0.30315172593E+01 -0.30747934384E+02  0.30463565610E+03  0.30622700882E+03  0.41800000000E+01 0.  1.
         -5    1    4    4    0  501 -0.13211441432E+02  0.36724898625E+02  0.24419733606E+02  0.46228304675E+02  0.41800000000E+01 0.  1.
</event>
<event>
11    1  0.8328696E-009  0.1454245E+03  0.7561462E-02  0.1101648E+00
         22   -1    0    0    0    0  0.00000000000E+00  0.00000000000E+00  0.46980338706E+03  0.46980338706E+03  0.00000000000E+00 0.  1.
         22   -1    0    0    0    0 -0.00000000000E+00 -0.00000000000E+00 -0.23116959976E+03  0.23116959976E+03  0.00000000000E+00 0.  1.
         24    2    1    2    0    0 -0.59681943891E+02  0.39971461091E+02 -0.17365410102E+03  0.20459437281E+03  0.80891646394E+02 0.  0.
         25    2    1    2    0    0  0.91904730310E+02 -0.47047873432E+02  0.15328087798E+03  0.22316428528E+03  0.12508912351E+03 0.  0.
        -24    2    1    2    0    0 -0.32222786419E+02  0.70764123405E+01  0.25900701035E+03  0.27321432873E+03  0.80455294658E+02 0.  0.
        -11    1    3    3    0    0 -0.78776486302E+02  0.22871210724E+02 -0.14041613625E+03  0.16262078094E+03  0.00000000000E+00 0.  1.
         12    1    3    3    0    0  0.19094542411E+02  0.17100250367E+02 -0.33237964769E+02  0.41973591870E+02  0.00000000000E+00 0. -1.
         11    1    5    5    0    0 -0.22511079550E+02 -0.26553941097E+02  0.47837551767E+02  0.59163264357E+02  0.00000000000E+00 0. -1.
        -12    1    5    5    0    0 -0.97117068695E+01  0.33630353437E+02  0.21116945858E+03  0.21405106438E+03  0.00000000000E+00 0.  1.
          5    1    4    4  501    0  0.38205876946E+02  0.25673836037E+02  0.11676287012E+03  0.12557816342E+03  0.41800000000E+01 0. -1.
         -5    1    4    4    0  501  0.53698853364E+02 -0.72721709469E+02  0.36518007861E+02  0.97586121855E+02  0.41800000000E+01 0. -1.
</event>
<event>
11    1  0.1062511E-008  0.2168837E+03  0.7561462E-02  0.1043187E+00
         22   -1    0    0    0    0  0.00000000000E+00  0.00000000000E+00  0.18093973396E+04  0.18093973396E+04  0.00000000000E+00 0. -1.
         22   -1    0    0    0    0 -0.00000000000E+00 -0.00000000000E+00 -0.85689489943E+03  0.85689489943E+03  0.00000000000E+00 0.  1.
        -24    2    1    2    0    0  0.86411330370E+02  0.58471275897E+02 -0.52068968352E+03  0.53690740716E+03  0.79158127894E+02 0.  0.
         25    2    1    2    0    0 -0.21318139638E+03 -0.17982015180E+03 -0.25031060651E+03  0.39507171974E+03  0.12507865227E+03 0.  0.
         24    2    1    2    0    0  0.12677006601E+03  0.12134887590E+03  0.17235027303E+04  0.17343131122E+04  0.81142532332E+02 0.  0.
        -11    1    5    5    0    0  0.55866573585E+02  0.28986069711E+02  0.32959690694E+03  0.33555236155E+03  0.00000000000E+00 0.  1.
         12    1    5    5    0    0  0.70903492422E+02  0.92362806189E+02  0.13939058233E+04  0.13987607506E+04  0.00000000000E+00 0. -1.
         11    1    3    3    0    0  0.14115633426E+01 -0.10108042899E+02 -0.87379063145E+01  0.13435626114E+02  0.00000000000E+00 0. -1.
        -12    1    3    3    0    0  0.84999767027E+02  0.68579318796E+02 -0.51195177721E+03  0.52347178104E+03  0.00000000000E+00 0.  1.
          5    1    4    4  501    0 -0.22253782848E+02 -0.89815990655E+02 -0.56609827424E+02  0.10855546043E+03  0.41800000000E+01 0.  1.
         -5    1    4    4    0  501 -0.19092761353E+03 -0.90004161142E+02 -0.19370077909E+03  0.28651625931E+03  0.41800000000E+01 0.  1.
</event>
<event>
11    1  0.8328696E-009  0.1427573E+03  0.7561462E-02  0.1104518E+00
         22   -1    0    0    0    0  0.00000000000E+00  0.00000000000E+00  0.65670600527E+03  0.65670600527E+03  0.00000000000E+00 0. -1.
         22   -1    0    0    0    0 -0.00000000000E+00 -0.00000000000E+00 -0.88541393280E+03  0.88541393280E+03  0.00000000000E+00 0.  1.
         24    2    1    2    0    0 -0.48173959422E+02 -0.45681718410E+02 -0.78141687537E+03  0.78839719903E+03  0.80933679981E+02 0.  0.
         25    2    1    2    0    0  0.93099327662E+02  0.84214224248E+02 -0.13936853204E+02  0.17776178384E+03  0.12508195530E+03 0.  0.
        -24    2    1    2    0    0 -0.44925368241E+02 -0.38532505838E+02  0.56664580105E+03  0.57596095520E+03  0.84501570109E+02 0.  0.
        -13    1    3    3    0    0 -0.31706676155E+02  0.96622223110E+01 -0.50109891104E+03  0.50219397697E+03  0.00000000000E+00 0.  1.
         14    1    3    3    0    0 -0.16467283267E+02 -0.55343940721E+02 -0.28031796433E+03  0.28620322206E+03  0.00000000000E+00 0. -1.
         11    1    5    5    0    0  0.29286221473E+01 -0.12309092789E+02  0.40793751448E+03  0.40813368682E+03  0.00000000000E+00 0. -1.
        -12    1    5    5    0    0 -0.47853990388E+02 -0.26223413050E+02  0.15870828657E+03  0.16782726839E+03  0.00000000000E+00 0.  1.
          5    1    4    4  501    0 -0.30582492658E+02  0.12651352339E+02 -0.97168429382E+01  0.34745287592E+02  0.41800000000E+01 0.  1.
         -5    1    4    4    0  501  0.12368182032E+03  0.71562871909E+02 -0.42200102656E+01  0.14301649625E+03  0.41800000000E+01 0.  1.
</event>
<event>
11    1  0.8328696E-009  0.3035004E+03  0.7561462E-02  0.9987206E-01
         22   -1    0    0    0    0  0.00000000000E+00  0.00000000000E+00  0.30104821987E+03  0.30104821987E+03  0.00000000000E+00 0. -1.
         22   -1    0    0    0    0 -0.00000000000E+00 -0.00000000000E+00 -0.53481366512E+03  0.53481366512E+03  0.00000000000E+00 0. -1.
         24    2    1    2    0    0  0.17956394873E+03 -0.23272980641E+03 -0.18818366288E+03  0.36458820253E+03  0.10538070019E+03 0.  0.
         25    2    1    2    0    0 -0.77640248891E+02  0.25510167478E+03 -0.12226458743E+03  0.31891896902E+03  0.12512316626E+03 0.  0.
        -24    2    1    2    0    0 -0.10192369984E+03 -0.22371868374E+02  0.76682805056E+02  0.15235471345E+03  0.80266836457E+02 0.  0.
        -13    1    3    3    0    0  0.24540052592E+02 -0.28269961283E+02  0.11824440071E+02  0.39258403879E+02  0.00000000000E+00 0.  1.
         14    1    3    3    0    0  0.15502389614E+03 -0.20445984513E+03 -0.20000810295E+03  0.32532979865E+03  0.00000000000E+00 0. -1.
         11    1    5    5    0    0 -0.18594488795E+02 -0.28896820306E+02 -0.58878128018E+01  0.34863269740E+02  0.00000000000E+00 0. -1.
        -12    1    5    5    0    0 -0.83329211046E+02  0.65249519327E+01  0.82570617858E+02  0.11749144371E+03  0.00000000000E+00 0.  1.
          5    1    4    4  501    0  0.61800495525E+01 -0.62046213710E+01  0.10279971202E+02  0.14136496975E+02  0.41800000000E+01 0.  1.
         -5    1    4    4    0  501 -0.83820298443E+02  0.26130629615E+03 -0.13254455863E+03  0.30478247204E+03  0.41800000000E+01 0.  1.
</event>
<event>
11    1  0.8328696E-009  0.1382476E+03  0.7561462E-02  0.1109531E+00
         22   -1    0    0    0    0  0.00000000000E+00  0.00000000000E+00  0.43384819448E+03  0.43384819448E+03  0.00000000000E+00 0.  1.
         22   -1    0    0    0    0 -0.00000000000E+00 -0.00000000000E+00 -0.75006105403E+03  0.75006105403E+03  0.00000000000E+00 0. -1.
        -24    2    1    2    0    0 -0.87950938303E+00 -0.58491612085E+02 -0.66619934364E+03  0.67493482774E+03  0.91068183287E+02 0.  0.
         25    2    1    2    0    0  0.34599077243E+01  0.64781448189E+02 -0.83422189719E+01  0.14114779985E+03  0.12507798285E+03 0.  0.
         24    2    1    2    0    0 -0.25803983413E+01 -0.62898361043E+01  0.35832870307E+03  0.36782662092E+03  0.82769216002E+02 0.  0.
        -11    1    5    5    0    0 -0.21917137583E+01 -0.36546322818E+01  0.36269063514E+03  0.36271566932E+03  0.00000000000E+00 0.  1.
         12    1    5    5    0    0 -0.38868458294E+00 -0.26352038225E+01 -0.43619320717E+01  0.51109516031E+01  0.00000000000E+00 0. -1.
         11    1    3    3    0    0 -0.17899856186E+01  0.15666925524E+02 -0.34189165351E+03  0.34225510857E+03  0.00000000000E+00 0. -1.
        -12    1    3    3    0    0  0.91047623557E+00 -0.74158537609E+02 -0.32430769013E+03  0.33267971917E+03  0.00000000000E+00 0.  1.
          5    1    4    4  501    0  0.43223927079E+02  0.71691639730E+02  0.26245128402E+02  0.87830964040E+02  0.41800000000E+01 0. -1.
         -5    1    4    4    0  501 -0.39764019355E+02 -0.69101915412E+01 -0.34587347374E+02  0.53316835810E+02  0.41800000000E+01 0. -1.
</event>
<event>
11    1  0.8328696E-009  0.1507398E+03  0.7561462E-02  0.1096125E+00
         22   -1    0    0    0    0  0.00000000000E+00  0.00000000000E+00  0.12531832071E+04  0.12531832071E+04  0.00000000000E+00 0. -1.
         22   -1    0    0    0    0 -0.00000000000E+00 -0.00000000000E+00 -0.43876017243E+02  0.43876017243E+02  0.00000000000E+00 0.  1.
         24    2    1    2    0    0 -0.52367541958E+01 -0.34769441474E+02  0.16113211368E+03  0.18896966189E+03  0.92247695916E+02 0.  0.
         25    2    1    2    0    0  0.82571508659E+02  0.61698812157E+02  0.22598340692E+03  0.27810043779E+03  0.12508619361E+03 0.  0.
        -24    2    1    2    0    0 -0.77334754464E+02 -0.26929370683E+02  0.82219166930E+03  0.82998912470E+03  0.78593579904E+02 0.  0.
        -11    1    3    3    0    0 -0.38292658871E+02 -0.37504360915E+02  0.51129549058E+02  0.74075202315E+02  0.00000000000E+00 0.  1.
         12    1    3    3    0    0  0.33055904676E+02  0.27349194418E+01  0.11000256462E+03  0.11489445958E+03  0.00000000000E+00 0. -1.
         11    1    5    5    0    0 -0.84523549115E+02 -0.71967714142E+01  0.50263030496E+03  0.50973841069E+03  0.00000000000E+00 0. -1.
        -12    1    5    5    0    0  0.71887946512E+01 -0.19732599269E+02  0.31956136434E+03  0.32025071400E+03  0.00000000000E+00 0.  1.
          5    1    4    4  501    0  0.34200861836E+02 -0.22359747236E+02  0.14796900933E+03  0.15356417997E+03  0.41800000000E+01 0. -1.
         -5    1    4    4    0  501  0.48370646823E+02  0.84058559392E+02  0.78014397585E+02  0.12453625782E+03  0.41800000000E+01 0. -1.
</event>
<event>
11    1  0.8328696E-009  0.1451713E+03  0.7561462E-02  0.1101917E+00
         22   -1    0    0    0    0  0.00000000000E+00  0.00000000000E+00  0.47391272695E+03  0.47391272695E+03  0.00000000000E+00 0. -1.
         22   -1    0    0    0    0 -0.00000000000E+00 -0.00000000000E+00 -0.48563344481E+03  0.48563344481E+03  0.00000000000E+00 0.  1.
         24    2    1    2    0    0 -0.61403903622E+02 -0.46598672079E+01 -0.44171086923E+03  0.45307313157E+03  0.79841197455E+02 0.  0.
         25    2    1    2    0    0  0.19246114211E+01  0.65985414328E+02  0.17448807766E+03  0.22461087062E+03  0.12508467101E+03 0.  0.
        -24    2    1    2    0    0  0.59479292201E+02 -0.61325547120E+02  0.25550207371E+03  0.28186216957E+03  0.82863526570E+02 0.  0.
        -11    1    3    3    0    0 -0.74774001043E+02  0.23586133558E+01 -0.42010111622E+03  0.42671027892E+03  0.00000000000E+00 0.  1.
         12    1    3    3    0    0  0.13370097422E+02 -0.70184805637E+01 -0.21609753012E+02  0.26362852648E+02  0.00000000000E+00 0. -1.
         11    1    5    5    0    0  0.71981604824E+02 -0.29075625439E+02  0.21507927496E+03  0.22866096726E+03  0.00000000000E+00 0. -1.
        -12    1    5    5    0    0 -0.12502312624E+02 -0.32249921681E+02  0.40422798747E+02  0.53201202316E+02  0.00000000000E+00 0.  1.
          5    1    4    4  501    0 -0.55411498026E+01  0.82642842868E+02  0.46141815312E+02  0.94905654936E+02  0.41800000000E+01 0.  1.
         -5    1    4    4    0  501  0.74657612237E+01 -0.16657428541E+02  0.12834626235E+03  0.12970521568E+03  0.41800000000E+01 0.  1.
</event>
<event>
11    1  0.8328696E-009  0.1638051E+03  0.7561462E-02  0.1083552E+00
         22   -1    0    0    0    0  0.00000000000E+00  0.00000000000E+00  0.58733026747E+03  0.58733026747E+03  0.00000000000E+00 0. -1.
         22   -1    0    0    0    0 -0.00000000000E+00 -0.00000000000E+00 -0.11978812322E+03  0.11978812322E+03  0.00000000000E+00 0. -1.
        -24    2    1    2    0    0  0.37791485206E+02  0.52456245909E+02 -0.91912714493E+01  0.10313950010E+03  0.79833720449E+02 0.  0.
         25    2    1    2    0    0 -0.82767449481E+02 -0.13563221945E+03  0.14214438315E+03  0.24718223333E+03  0.12508989234E+03 0.  0.
         24    2    1    2    0    0  0.44975964275E+02  0.83175973537E+02  0.33458903256E+03  0.35679665727E+03  0.80080921527E+02 0.  0.
        -11    1    5    5    0    0 -0.64393921082E+01  0.64321195232E+02  0.22766332346E+03  0.23666277860E+03  0.00000000000E+00 0.  1.
         12    1    5    5    0    0  0.51415356384E+02  0.18854778305E+02  0.10692570910E+03  0.12013387866E+03  0.00000000000E+00 0. -1.
         13    1    3    3    0    0 -0.23686214794E+01  0.48379270054E+02 -0.30753098288E+02  0.57375231529E+02  0.00000000000E+00 0. -1.
        -14    1    3    3    0    0  0.40160106685E+02  0.40769758542E+01  0.21561826838E+02  0.45764268569E+02  0.00000000000E+00 0.  1.
          5    1    4    4  501    0 -0.13998579945E+02 -0.47015357114E+02  0.12407944243E+03  0.13349001640E+03  0.41800000000E+01 0. -1.
         -5    1    4    4    0  501 -0.68768869536E+02 -0.88616862332E+02  0.18064940721E+02  0.11369221693E+03  0.41800000000E+01 0. -1.
</event>
<event>
11    1  0.8328696E-009  0.1469894E+03  0.7561462E-02  0.1099995E+00
         22   -1    0    0    0    0  0.00000000000E+00  0.00000000000E+00  0.73810802074E+03  0.73810802074E+03  0.00000000000E+00 0. -1.
         22   -1    0    0    0    0 -0.00000000000E+00 -0.00000000000E+00 -0.19520760630E+03  0.19520760630E+03  0.00000000000E+00 0.  1.
         24    2    1    2    0    0  0.25413008100E+00  0.35562529672E+02 -0.96215097217E+02  0.12940975412E+03  0.78897284046E+02 0.  0.
         25    2    1    2    0    0 -0.76748175738E+02 -0.23221638886E+02 -0.63692130478E+01  0.14871900046E+03  0.12508895727E+03 0.  0.
        -24    2    1    2    0    0  0.76494045657E+02 -0.12340890786E+02  0.64548472470E+03  0.65518687245E+03  0.81336777674E+02 0.  0.
        -13    1    3    3    0    0  0.23802950397E+02  0.31521615905E+02 -0.11135561964E+02  0.41038926120E+02  0.00000000000E+00 0.  1.
         14    1    3    3    0    0 -0.23548820316E+02  0.40409137674E+01 -0.85079535253E+02  0.88370827999E+02  0.00000000000E+00 0. -1.
         11    1    5    5    0    0  0.14703852061E+02 -0.21820947894E+02  0.43035179704E+03  0.43115545485E+03  0.00000000000E+00 0. -1.
        -12    1    5    5    0    0  0.61790193596E+02  0.94800571081E+01  0.21513292766E+03  0.22403141760E+03  0.00000000000E+00 0.  1.
          5    1    4    4  501    0 -0.10267515206E+03  0.71815922561E+01  0.13512928782E+02  0.10389337689E+03  0.41800000000E+01 0.  1.
         -5    1    4    4    0  501  0.25926976319E+02 -0.30403231142E+02 -0.19882141830E+02  0.44825623573E+02  0.41800000000E+01 0.  1.
</event>
<event>
11    1  0.8328696E-009  0.1435985E+03  0.7561462E-02  0.1103605E+00
         22   -1    0    0    0    0  0.00000000000E+00  0.00000000000E+00  0.42023194973E+03  0.42023194973E+03  0.00000000000E+00 0.  1.
         22   -1    0    0    0    0 -0.00000000000E+00 -0.00000000000E+00 -0.25392900667E+03  0.25392900667E+03  0.00000000000E+00 0.  1.
         24    2    1    2    0    0  0.56545050192E+02  0.40935278216E+02 -0.20702943312E+03  0.23421965089E+03  0.84407458076E+02 0.  0.
         25    2    1    2    0    0 -0.75329876259E+02 -0.35544932110E+02  0.22507230356E+03  0.27065569280E+03  0.12513564543E+03 0.  0.
        -24    2    1    2    0    0  0.18784826068E+02 -0.53903461059E+01  0.14826007262E+03  0.16928561272E+03  0.79338792650E+02 0.  0.
        -13    1    3    3    0    0  0.38073434215E+02 -0.11063313310E+02 -0.14882108642E+03  0.15401200946E+03  0.00000000000E+00 0.  1.
         14    1    3    3    0    0  0.18471615976E+02  0.51998591527E+02 -0.58208346699E+02  0.80207641425E+02  0.00000000000E+00 0. -1.
         13    1    5    5    0    0 -0.16923186562E+02 -0.23155087729E+01  0.33864840029E+00  0.17084218069E+02  0.00000000000E+00 0. -1.
        -14    1    5    5    0    0  0.35708012630E+02 -0.30748373331E+01  0.14792142422E+03  0.15220139465E+03  0.00000000000E+00 0.  1.
          5    1    4    4  501    0 -0.70340464822E+02 -0.44601071582E+02  0.23881517854E+03  0.25295691032E+03  0.41800000000E+01 0. -1.
         -5    1    4    4    0  501 -0.49894114378E+01  0.90561394717E+01 -0.13742874977E+02  0.17698782479E+02  0.41800000000E+01 0. -1.
</event>
<event>
11    1  0.8328696E-009  0.1363589E+03  0.7561462E-02  0.1111694E+00
         22   -1    0    0    0    0  0.00000000000E+00  0.00000000000E+00  0.66704077601E+03  0.66704077601E+03  0.00000000000E+00 0. -1.
         22   -1    0    0    0    0 -0.00000000000E+00 -0.00000000000E+00 -0.89541104458E+03  0.89541104458E+03  0.00000000000E+00 0. -1.
         24    2    1    2    0    0 -0.29983958774E+01  0.45799296236E+02 -0.50252215747E+03  0.51135969654E+03  0.82786802004E+02 0.  0.
         25    2    1    2    0    0  0.46718713499E+02 -0.13138502864E+02 -0.37305445627E+03  0.39644216749E+03  0.12506600804E+03 0.  0.
        -24    2    1    2    0    0 -0.43720317622E+02 -0.32660793372E+02  0.64720634517E+03  0.65464995657E+03  0.81928742301E+02 0.  0.
        -13    1    3    3    0    0 -0.19263984665E+01 -0.17968631338E+02 -0.33885664751E+02  0.38403398272E+02  0.00000000000E+00 0.  1.
         14    1    3    3    0    0 -0.10719974109E+01  0.63767927574E+02 -0.46863649272E+03  0.47295629827E+03  0.00000000000E+00 0. -1.
         11    1    5    5    0    0 -0.27515920952E+02 -0.20958996630E+02  0.61961391892E+03  0.62057861224E+03  0.00000000000E+00 0. -1.
        -12    1    5    5    0    0 -0.16204396670E+02 -0.11701796742E+02  0.27592426245E+02  0.34071344331E+02  0.00000000000E+00 0.  1.
          5    1    4    4  501    0  0.61240778383E+02  0.36401871156E+02 -0.13376602621E+03  0.15161250386E+03  0.41800000000E+01 0.  1.
         -5    1    4    4    0  501 -0.14522064883E+02 -0.49540374020E+02 -0.23928843006E+03  0.24482966362E+03  0.41800000000E+01 0.  1.
</event>
<event>
11    1  0.8328696E-009  0.1478784E+03  0.7561462E-02  0.1099067E+00
         22   -1    0    0    0    0  0.00000000000E+00  0.00000000000E+00  0.24685927053E+03  0.24685927053E+03  0.00000000000E+00 0.  1.
         22   -1    0    0    0    0 -0.00000000000E+00 -0.00000000000E+00 -0.56433775102E+03  0.56433775102E+03  0.00000000000E+00 0.  1.
         24    2    1    2    0    0  0.90421409518E+01 -0.75570213959E+02 -0.45003142847E+03  0.46357902552E+03  0.81145602130E+02 0.  0.
         25    2    1    2    0    0 -0.33831335310E+02  0.10396546264E+03 -0.27879970206E+02  0.16845902864E+03  0.12509106650E+03 0.  0.
        -24    2    1    2    0    0  0.24789194359E+02 -0.28395248685E+02  0.16043291819E+03  0.17915896740E+03  0.70273893128E+02 0.  0.
        -11    1    3    3    0    0 -0.59687403568E+01 -0.65186882359E+02 -0.43510270506E+03  0.43999922664E+03  0.00000000000E+00 0.  1.
         12    1    3    3    0    0  0.15010881309E+02 -0.10383331600E+02 -0.14928723408E+02  0.23579798883E+02  0.00000000000E+00 0. -1.
         13    1    5    5    0    0  0.23349335961E+01 -0.38337209102E+02  0.37083735239E+02  0.53389108776E+02  0.00000000000E+00 0. -1.
        -14    1    5    5    0    0  0.22454260762E+02  0.99419604163E+01  0.12334918295E+03  0.12576985862E+03  0.00000000000E+00 0.  1.
          5    1    4    4  501    0 -0.27801146120E+01  0.85137120913E+02 -0.71681968885E+02  0.11140841736E+03  0.41800000000E+01 0. -1.
         -5    1    4    4    0  501 -0.31051220698E+02  0.18828341732E+02  0.43801998678E+02  0.57050611280E+02  0.41800000000E+01 0. -1.
</event>
<event>
11    1  0.8328696E-009  0.3108298E+03  0.7561462E-02  0.9957092E-01
         22   -1    0    0    0    0  0.00000000000E+00  0.00000000000E+00  0.20049721401E+04  0.20049721401E+04  0.00000000000E+00 0. -1.
         22   -1    0    0    0    0 -0.00000000000E+00 -0.00000000000E+00 -0.55463763482E+03  0.55463763482E+03  0.00000000000E+00 0.  1.
         24    2    1    2    0    0  0.22467558113E+03 -0.17491297418E+03 -0.48038055283E+03  0.56430335990E+03  0.81235098105E+02 0.  0.
         25    2    1    2    0    0 -0.22905872315E+03  0.16340695949E+03  0.73683697099E+03  0.79859003815E+03  0.12509034398E+03 0.  0.
        -24    2    1    2    0    0  0.43831420159E+01  0.11506014689E+02  0.11938780871E+04  0.11967163769E+04  0.81446911692E+02 0.  0.
        -13    1    3    3    0    0  0.84041823836E+02 -0.27836157534E+02 -0.19118592094E+03  0.21068919333E+03  0.00000000000E+00 0.  1.
         14    1    3    3    0    0  0.14063375729E+03 -0.14707681665E+03 -0.28919463189E+03  0.35361416657E+03  0.00000000000E+00 0. -1.
         11    1    5    5    0    0  0.83639677750E+01  0.46436596199E+02  0.70051416755E+03  0.70210142598E+03  0.00000000000E+00 0. -1.
        -12    1    5    5    0    0 -0.39808257591E+01 -0.34930581511E+02  0.49336391959E+03  0.49461495090E+03  0.00000000000E+00 0.  1.
          5    1    4    4  501    0 -0.14360322856E+03  0.92947876948E+02  0.59186612889E+03  0.61610403505E+03  0.41800000000E+01 0. -1.
         -5    1    4    4    0  501 -0.85455494584E+02  0.70459082543E+02  0.14497084211E+03  0.18248600310E+03  0.41800000000E+01 0. -1.
</event>
<event>
11    1  0.8328696E-009  0.2231730E+03  0.7561462E-02  0.1039248E+00
         22   -1    0    0    0    0  0.00000000000E+00  0.00000000000E+00  0.19314901361E+03  0.19314901361E+03  0.00000000000E+00 0. -1.
         22   -1    0    0    0    0 -0.00000000000E+00 -0.00000000000E+00 -0.21513869108E+04  0.21513869108E+04  0.00000000000E+00 0. -1.
         24    2    1    2    0    0  0.18096552006E+03  0.65425239584E+02 -0.18048540264E+04  0.18169529035E+04  0.82406403900E+02 0.  0.
         25    2    1    2    0    0 -0.16293545079E+03  0.89238886700E+02 -0.23948943961E+03  0.32789391541E+03  0.12509071930E+03 0.  0.
        -24    2    1    2    0    0 -0.18030069276E+02 -0.15466412628E+03  0.86105568830E+02  0.19968910552E+03  0.90639365187E+02 0.  0.
        -11    1    3    3    0    0  0.10789875066E+03  0.59556531426E+02 -0.80097061648E+03  0.81039684679E+03  0.00000000000E+00 0.  1.
         12    1    3    3    0    0  0.73066769408E+02  0.58687081577E+01 -0.10038834100E+04  0.10065560567E+04  0.00000000000E+00 0. -1.
         13    1    5    5    0    0 -0.15887515549E+02 -0.15063894022E+03  0.10235352363E+03  0.18281342199E+03  0.00000000000E+00 0. -1.
        -14    1    5    5    0    0 -0.21425537266E+01 -0.40251860634E+01 -0.16247954799E+02  0.16875683526E+02  0.00000000000E+00 0.  1.
          5    1    4    4  501    0 -0.11543443262E+02 -0.24932635072E+02 -0.85973480188E+01  0.29090791790E+02  0.41800000000E+01 0. -1.
         -5    1    4    4    0  501 -0.15139200753E+03  0.11417152177E+03 -0.23089209159E+03  0.29880312362E+03  0.41800000000E+01 0. -1.
</event>
<event>
11    1  0.8328696E-009  0.1452374E+03  0.7561462E-02  0.1101847E+00
         22   -1    0    0    0    0  0.00000000000E+00  0.00000000000E+00  0.14087773658E+03  0.14087773658E+03  0.00000000000E+00 0.  1.
         22   -1    0    0    0    0 -0.00000000000E+00 -0.00000000000E+00 -0.74221784619E+03  0.74221784619E+03  0.00000000000E+00 0.  1.
        -24    2    1    2    0    0  0.33128951273E+02 -0.64293533780E+02 -0.59016591529E+03  0.59987446110E+03  0.79513367489E+02 0.  0.
         25    2    1    2    0    0 -0.90583916174E+02  0.54249562668E+02 -0.57922478380E+02  0.17364075893E+03  0.12509052219E+03 0.  0.
         24    2    1    2    0    0  0.57454964900E+02  0.10043971112E+02  0.46748284060E+02  0.10958036274E+03  0.80128019373E+02 0.  0.
        -13    1    5    5    0    0 -0.11287243542E+02 -0.14470284041E+02  0.29248440000E+02  0.34529150431E+02  0.00000000000E+00 0.  1.
         14    1    5    5    0    0  0.68742208442E+02  0.24514255153E+02  0.17499844059E+02  0.75051212311E+02  0.00000000000E+00 0. -1.
         11    1    3    3    0    0 -0.18250424892E+02 -0.33232595537E+02 -0.11887646501E+03  0.12477618903E+03  0.00000000000E+00 0. -1.
        -12    1    3    3    0    0  0.51379376165E+02 -0.31060938243E+02 -0.47128945028E+03  0.47509827207E+03  0.00000000000E+00 0.  1.
          5    1    4    4  501    0 -0.20281868766E+02 -0.23262461095E+02 -0.61408486355E+02  0.68854708577E+02  0.41800000000E+01 0.  1.
         -5    1    4    4    0  501 -0.70302047408E+02  0.77512023763E+02  0.34860079742E+01  0.10478605036E+03  0.41800000000E+01 0.  1.
</event>
<event>
11    1  0.8328696E-009  0.1391969E+03  0.7561462E-02  0.1108459E+00
         22   -1    0    0    0    0  0.00000000000E+00  0.00000000000E+00  0.77646999946E+02  0.77646999946E+02  0.00000000000E+00 0. -1.
         22   -1    0    0    0    0 -0.00000000000E+00 -0.00000000000E+00 -0.39705094578E+04  0.39705094578E+04  0.00000000000E+00 0.  1.
        -24    2    1    2    0    0  0.22970686504E+01  0.19877182024E+02 -0.35047796536E+04  0.35057471503E+04  0.79889189044E+02 0.  0.
         25    2    1    2    0    0 -0.17149522749E+02 -0.77384978790E+02 -0.41314644855E+03  0.43888401910E+03  0.12508658279E+03 0.  0.
         24    2    1    2    0    0  0.14852454099E+02  0.57507796766E+02  0.25063644295E+02  0.10352528837E+03  0.81003438107E+02 0.  0.
        -13    1    5    5    0    0  0.35877475192E+02  0.67956965576E+02  0.21332556402E+02  0.79752243600E+02  0.00000000000E+00 0.  1.
         14    1    5    5    0    0 -0.21025021093E+02 -0.10449168810E+02  0.37310878920E+01  0.23773044770E+02  0.00000000000E+00 0. -1.
         11    1    3    3    0    0  0.14174780868E+02 -0.18769280356E+02 -0.39202987573E+03  0.39273481354E+03  0.00000000000E+00 0. -1.
        -12    1    3    3    0    0 -0.11877712217E+02  0.38646462380E+02 -0.31127497779E+04  0.31130123368E+04  0.00000000000E+00 0.  1.
          5    1    4    4  501    0  0.19086850414E+02 -0.10201714070E+03 -0.27955732265E+03  0.29823073936E+03  0.41800000000E+01 0. -1.
         -5    1    4    4    0  501 -0.36236373163E+02  0.24632161908E+02 -0.13358912590E+03  0.14065327973E+03  0.41800000000E+01 0. -1.
</event>
<event>
11    1  0.8328696E-009  0.3486147E+03  0.7561462E-02  0.9814863E-01
         22   -1    0    0    0    0  0.00000000000E+00  0.00000000000E+00  0.30173778630E+04  0.30173778630E+04  0.00000000000E+00 0.  1.
         22   -1    0    0    0    0 -0.00000000000E+00 -0.00000000000E+00 -0.24812415954E+03  0.24812415954E+03  0.00000000000E+00 0. -1.
        -24    2    1    2    0    0 -0.15472130536E+03 -0.30496737576E+03 -0.32210807677E+02  0.35086293975E+03  0.71578514619E+02 0.  0.
         25    2    1    2    0    0  0.14510975622E+03  0.24119032811E+03  0.37236852674E+03  0.48325257551E+03  0.12508043936E+03 0.  0.
         24    2    1    2    0    0  0.96115491375E+01  0.63777047647E+02  0.24290959844E+04  0.24313865072E+04  0.83505404995E+02 0.  0.
        -11    1    5    5    0    0  0.39345503751E+02  0.49967668037E+02  0.20116653187E+04  0.20126704129E+04  0.00000000000E+00 0.  1.
         12    1    5    5    0    0 -0.29733954614E+02  0.13809379610E+02  0.41743066568E+03  0.41871609435E+03  0.00000000000E+00 0. -1.
         13    1    3    3    0    0 -0.11612947271E+03 -0.18450370547E+03 -0.48459194932E+02  0.22332927560E+03  0.00000000000E+00 0. -1.
        -14    1    3    3    0    0 -0.38591832648E+02 -0.12046367028E+03  0.16248387255E+02  0.12753366416E+03  0.00000000000E+00 0.  1.
          5    1    4    4  501    0  0.81550053532E+02  0.90324531361E+02  0.25244390798E+03  0.28027545606E+03  0.41800000000E+01 0.  1.
         -5    1    4    4    0  501  0.63559702688E+02  0.15086579675E+03  0.11992461876E+03  0.20297711944E+03  0.41800000000E+01 0.  1.
</event>
<event>
11    1  0.8328696E-009  0.1377642E+03  0.7561462E-02  0.1110081E+00
         22   -1    0    0    0    0  0.00000000000E+00  0.00000000000E+00  0.48476776695E+03  0.48476776695E+03  0.00000000000E+00 0. -1.
         22   -1    0    0    0    0 -0.00000000000E+00 -0.00000000000E+00 -0.21693414629E+04  0.21693414629E+04  0.00000000000E+00 0.  1.
         24    2    1    2    0    0 -0.42937422067E+02 -0.39419344350E+02 -0.20221124037E+04  0.20244834642E+04  0.78722404134E+02 0.  0.
         25    2    1    2    0    0 -0.36614121736E+01  0.63343251675E+02 -0.10599199105E+03  0.17580690311E+03  0.12509193236E+03 0.  0.
        -24    2    1    2    0    0  0.46598834241E+02 -0.23923907325E+02  0.44353069882E+03  0.45381886247E+03  0.80549825872E+02 0.  0.
        -11    1    3    3    0    0 -0.43793301525E+01 -0.55673727520E+02 -0.10818492788E+04  0.10832897140E+04  0.00000000000E+00 0.  1.
         12    1    3    3    0    0 -0.38558091915E+02  0.16254383170E+02 -0.94026312488E+03  0.94119375021E+03  0.00000000000E+00 0. -1.
         13    1    5    5    0    0  0.37587518859E+02 -0.47966196326E+02  0.38650487371E+03  0.39127943335E+03  0.00000000000E+00 0. -1.
        -14    1    5    5    0    0  0.90113153823E+01  0.24042289001E+02  0.57025825106E+02  0.62539429117E+02  0.00000000000E+00 0.  1.
          5    1    4    4  501    0  0.17457492751E+02  0.95814289656E+02 -0.55982377191E+02  0.11241281560E+03  0.41800000000E+01 0. -1.
         -5    1    4    4    0  501 -0.21118904925E+02 -0.32471037981E+02 -0.50009613858E+02  0.63394087508E+02  0.41800000000E+01 0. -1.
</event>
<event>
11    1  0.8328696E-009  0.1786710E+03  0.7561462E-02  0.1070723E+00
         22   -1    0    0    0    0  0.00000000000E+00  0.00000000000E+00  0.53308963687E+03  0.53308963687E+03  0.00000000000E+00 0.  1.
         22   -1    0    0    0    0 -0.00000000000E+00 -0.00000000000E+00 -0.23188298321E+03  0.23188298321E+03  0.00000000000E+00 0. -1.
        -24    2    1    2    0    0 -0.97460592462E+02 -0.59587099749E+02 -0.11033436793E+03  0.17851041806E+03  0.81505257933E+02 0.  0.
         25    2    1    2    0    0  0.16073090611E+03  0.11621291777E+03  0.10303549064E+03  0.25613029218E+03  0.12508616153E+03 0.  0.
         24    2    1    2    0    0 -0.63270313646E+02 -0.56625818022E+02  0.30850553096E+03  0.33033190983E+03  0.82060295926E+02 0.  0.
        -11    1    5    5    0    0 -0.14072133506E+02 -0.46233741568E+02  0.61275812411E+02  0.78040431748E+02  0.00000000000E+00 0.  1.
         12    1    5    5    0    0 -0.49198180140E+02 -0.10392076454E+02  0.24722971855E+03  0.25229147808E+03  0.00000000000E+00 0. -1.
         11    1    3    3    0    0 -0.10967842070E+03 -0.59140677914E+02 -0.11010365229E+03  0.16628226002E+03  0.00000000000E+00 0. -1.
        -12    1    3    3    0    0  0.12217828240E+02 -0.44642183477E+00 -0.23071564650E+00  0.12228158040E+02  0.00000000000E+00 0.  1.
          5    1    4    4  501    0  0.13029400918E+03  0.19363076687E+02  0.70375397391E+02  0.14940423865E+03  0.41800000000E+01 0. -1.
         -5    1    4    4    0  501  0.30436896926E+02  0.96849841084E+02  0.32660093250E+02  0.10672605354E+03  0.41800000000E+01 0. -1.
</event>
<event>
11    1  0.8328696E-009  0.1923646E+03  0.7561462E-02  0.1060058E+00
         22   -1    0    0    0    0  0.00000000000E+00  0.00000000000E+00  0.86106371714E+02  0.86106371714E+02  0.00000000000E+00 0.  1.
         22   -1    0    0    0    0 -0.00000000000E+00 -0.00000000000E+00 -0.92880273886E+03  0.92880273886E+03  0.00000000000E+00 0.  1.
         24    2    1    2    0    0 -0.13713382483E+03 -0.38108399548E+01 -0.57528576541E+03  0.59616287410E+03  0.75074976920E+02 0.  0.
         25    2    1    2    0    0  0.18727203581E+03  0.15063445007E+02 -0.21446026555E+03  0.31135016231E+03  0.12509194737E+03 0.  0.
        -24    2    1    2    0    0 -0.50138210983E+02 -0.11252605052E+02 -0.52950336197E+02  0.10739607417E+03  0.78036640904E+02 0.  0.
        -11    1    3    3    0    0 -0.19427539184E+02  0.18856441785E+02 -0.45158157863E+02  0.52652197457E+02  0.00000000000E+00 0.  1.
         12    1    3    3    0    0 -0.11770628565E+03 -0.22667281740E+02 -0.53012760754E+03  0.54351067664E+03  0.00000000000E+00 0. -1.
         13    1    5    5    0    0 -0.69075204735E+02  0.10887556824E+01 -0.48367695223E+02  0.84332693775E+02  0.00000000000E+00 0. -1.
        -14    1    5    5    0    0  0.18936993752E+02 -0.12341360735E+02 -0.45826409735E+01  0.23063380399E+02  0.00000000000E+00 0.  1.
          5    1    4    4  501    0  0.16507006634E+03  0.56228789644E+02 -0.19164716889E+03  0.25914457997E+03  0.41800000000E+01 0.  1.
         -5    1    4    4    0  501  0.22201969472E+02 -0.41165344637E+02 -0.22813096657E+02  0.52205582332E+02  0.41800000000E+01 0.  1.
</event>
<event>
11    1  0.8328696E-009  0.1614135E+03  0.7561462E-02  0.1085755E+00
         22   -1    0    0    0    0  0.00000000000E+00  0.00000000000E+00  0.14387701577E+04  0.14387701577E+04  0.00000000000E+00 0. -1.
         22   -1    0    0    0    0 -0.00000000000E+00 -0.00000000000E+00 -0.43255025649E+03  0.43255025649E+03  0.00000000000E+00 0. -1.
         24    2    1    2    0    0  0.34591343352E+01  0.99043657922E+02 -0.37150101509E+03  0.39269043321E+03  0.79819548622E+02 0.  0.
         25    2    1    2    0    0 -0.20704497380E+02 -0.16070766629E+03  0.16883823341E+03  0.26535235554E+03  0.12509953362E+03 0.  0.
        -24    2    1    2    0    0  0.17245363045E+02  0.61664008368E+02  0.12088826829E+04  0.12132776255E+04  0.80903664429E+02 0.  0.
        -11    1    3    3    0    0  0.79379267232E+01  0.41913252277E+02 -0.48267888587E+02  0.64416771619E+02  0.00000000000E+00 0.  1.
         12    1    3    3    0    0 -0.44787923880E+01  0.57130405645E+02 -0.32323312650E+03  0.32827366159E+03  0.00000000000E+00 0. -1.
         11    1    5    5    0    0 -0.10123673619E+01  0.64427905628E+02  0.11441407935E+04  0.11459538102E+04  0.00000000000E+00 0. -1.
        -12    1    5    5    0    0  0.18257730407E+02 -0.27638972607E+01  0.64741889459E+02  0.67323815240E+02  0.00000000000E+00 0.  1.
          5    1    4    4  501    0  0.45814329045E+02 -0.30255580047E+02  0.68053464754E+02  0.87539130307E+02  0.41800000000E+01 0.  1.
         -5    1    4    4    0  501 -0.66518826425E+02 -0.13045208624E+03  0.10078476866E+03  0.17781322523E+03  0.41800000000E+01 0.  1.
</event>
<event>
11    1  0.8328696E-009  0.1698553E+03  0.7561462E-02  0.1078158E+00
         22   -1    0    0    0    0  0.00000000000E+00  0.00000000000E+00  0.97182757175E+03  0.97182757175E+03  0.00000000000E+00 0. -1.
         22   -1    0    0    0    0 -0.00000000000E+00 -0.00000000000E+00 -0.10657203739E+04  0.10657203739E+04  0.00000000000E+00 0. -1.
         24    2    1    2    0    0  0.17222543435E+02 -0.73580733108E+01 -0.10363647023E+04  0.10397134910E+04  0.81250169317E+02 0.  0.
         25    2    1    2    0    0  0.96066235901E+02 -0.34678954528E+02  0.32629117744E+03  0.36407022582E+03  0.12509934166E+03 0.  0.
        -24    2    1    2    0    0 -0.11328877934E+03  0.42037027839E+02  0.61618072272E+03  0.63376422878E+03  0.85889204128E+02 0.  0.
        -11    1    3    3    0    0 -0.26022349412E+02 -0.20189078657E+02 -0.26634058565E+03  0.26836927755E+03  0.00000000000E+00 0.  1.
         12    1    3    3    0    0  0.43244892846E+02  0.12831005346E+02 -0.77002411663E+03  0.77134421347E+03  0.00000000000E+00 0. -1.
         11    1    5    5    0    0 -0.63035994364E+02  0.46913892494E+02  0.51199257780E+03  0.51798730643E+03  0.00000000000E+00 0. -1.
        -12    1    5    5    0    0 -0.50252784973E+02 -0.48768646554E+01  0.10418814492E+03  0.11577692235E+03  0.00000000000E+00 0.  1.
          5    1    4    4  501    0  0.31806881943E+02 -0.33559524134E+02  0.28226019246E+03  0.28605280639E+03  0.41800000000E+01 0. -1.
         -5    1    4    4    0  501  0.64259353959E+02 -0.11194303942E+01  0.44030984987E+02  0.78017419430E+02  0.41800000000E+01 0. -1.
</event>
<event>
11    1  0.8328696E-009  0.1377793E+03  0.7561462E-02  0.1110064E+00
         22   -1    0    0    0    0  0.00000000000E+00  0.00000000000E+00  0.13150982060E+04  0.13150982060E+04  0.00000000000E+00 0. -1.
         22   -1    0    0    0    0 -0.00000000000E+00 -0.00000000000E+00 -0.35745757054E+03  0.35745757054E+03  0.00000000000E+00 0. -1.
         24    2    1    2    0    0  0.21610062005E+02 -0.20716503651E+02 -0.20903434169E+03  0.22426154776E+03  0.75509717900E+02 0.  0.
         25    2    1    2    0    0  0.36144285876E+02  0.14794936874E+02 -0.10799866226E+03  0.16981858947E+03  0.12509733299E+03 0.  0.
        -24    2    1    2    0    0 -0.57754347880E+02  0.59215667773E+01  0.12746736394E+04  0.12784756393E+04  0.79601781901E+02 0.  0.
        -13    1    3    3    0    0  0.79543645601E+01 -0.33151278091E+02 -0.33631357009E+02  0.47888906115E+02  0.00000000000E+00 0.  1.
         14    1    3    3    0    0  0.13655697445E+02  0.12434774440E+02 -0.17540298468E+03  0.17637264165E+03  0.00000000000E+00 0. -1.
         13    1    5    5    0    0 -0.29261292234E+02  0.93603802603E+01  0.11550085221E+04  0.11554170356E+04  0.00000000000E+00 0. -1.
        -14    1    5    5    0    0 -0.28493055647E+02 -0.34388134831E+01  0.11966511723E+03  0.12305860368E+03  0.00000000000E+00 0.  1.
          5    1    4    4  501    0  0.57331112667E+02 -0.13649299344E+02 -0.32743238615E+01  0.59172235457E+02  0.41800000000E+01 0.  1.
         -5    1    4    4    0  501 -0.21186826792E+02  0.28444236218E+02 -0.10472433840E+03  0.11064635401E+03  0.41800000000E+01 0.  1.
</event>
<event>
11    1  0.1667887E-008  0.1980100E+03  0.7561462E-02  0.1055940E+00
         22   -1    0    0    0    0  0.00000000000E+00  0.00000000000E+00  0.36302320422E+03  0.36302320422E+03  0.00000000000E+00 0.  1.
         22   -1    0    0    0    0 -0.00000000000E+00 -0.00000000000E+00 -0.27975615628E+04  0.27975615628E+04  0.00000000000E+00 0.  1.
        -24    2    1    2    0    0 -0.13499379314E+03  0.61499684922E+02 -0.18795099360E+04  0.18870678785E+04  0.80386834581E+02 0.  0.
         25    2    1    2    0    0  0.10076219367E+03 -0.18002951618E+03 -0.88267516548E+03  0.91505542851E+03  0.12508934056E+03 0.  0.
         24    2    1    2    0    0  0.34231599476E+02  0.11852983126E+03  0.32764674282E+03  0.35846146008E+03  0.76948729600E+02 0.  0.
        -11    1    5    5    0    0  0.16740037653E+02  0.12382881841E+03  0.30319178147E+03  0.32793148900E+03  0.00000000000E+00 0.  1.
         12    1    5    5    0    0  0.17491561823E+02 -0.52989871482E+01  0.24454961345E+02  0.30529971080E+02  0.00000000000E+00 0. -1.
         11    1    3    3    0    0 -0.14247503279E+02 -0.12244206911E+02 -0.49301386522E+03  0.49337164820E+03  0.00000000000E+00 0. -1.
        -12    1    3    3    0    0 -0.12074628986E+03  0.73743891833E+02 -0.13864960707E+04  0.13936962303E+04  0.00000000000E+00 0.  1.
          5    1    4    4  501    0  0.12881097685E+03 -0.13611679987E+03 -0.72985324565E+03  0.75354049894E+03  0.41800000000E+01 0. -1.
         -5    1    4    4    0  501 -0.28048783185E+02 -0.43912716317E+02 -0.15282191984E+03  0.16151492957E+03  0.41800000000E+01 0. -1.
</event>
<event>
11    1  0.8328696E-009  0.2273270E+03  0.7561462E-02  0.1036722E+00
         22   -1    0    0    0    0  0.00000000000E+00  0.00000000000E+00  0.15779088424E+04  0.15779088424E+04  0.00000000000E+00 0. -1.
         22   -1    0    0    0    0 -0.00000000000E+00 -0.00000000000E+00 -0.32583607966E+03  0.32583607966E+03  0.00000000000E+00 0.  1.
        -24    2    1    2    0    0 -0.98333459379E+01 -0.90922899040E+01 -0.26784375974E+03  0.27985101346E+03  0.79980908170E+02 0.  0.
         25    2    1    2    0    0 -0.16885107627E+03  0.75920178025E+02  0.24239021727E+03  0.32966017516E+03  0.12509298251E+03 0.  0.
         24    2    1    2    0    0  0.17868442221E+03 -0.66827888121E+02  0.12775263052E+04  0.12942337334E+04  0.81076549444E+02 0.  0.
        -11    1    5    5    0    0  0.22045379825E+02  0.51465536050E+01  0.35624563357E+03  0.35696419600E+03  0.00000000000E+00 0.  1.
         12    1    5    5    0    0  0.15663904238E+03 -0.71974441726E+02  0.92128067164E+03  0.93726953743E+03  0.00000000000E+00 0. -1.
         13    1    3    3    0    0 -0.33328449811E+02  0.14782011716E+02 -0.20887149432E+03  0.21202970211E+03  0.00000000000E+00 0. -1.
        -14    1    3    3    0    0  0.23495103873E+02 -0.23874301620E+02 -0.58972265426E+02  0.67821311351E+02  0.00000000000E+00 0.  1.
          5    1    4    4  501    0  0.15281138512E+02  0.28640930304E+02  0.27797875238E+02  0.42941941627E+02  0.41800000000E+01 0.  1.
         -5    1    4    4    0  501 -0.18413221478E+03  0.47279247721E+02  0.21459234203E+03  0.28671823354E+03  0.41800000000E+01 0.  1.
</event>
<event>
11    1  0.8328696E-009  0.1695601E+03  0.7561462E-02  0.1078415E+00
         22   -1    0    0    0    0  0.00000000000E+00  0.00000000000E+00  0.31209646973E+03  0.31209646973E+03  0.00000000000E+00 0.  1.
         22   -1    0    0    0    0 -0.00000000000E+00 -0.00000000000E+00 -0.38324918315E+03  0.38324918315E+03  0.00000000000E+00 0. -1.
        -24    2    1    2    0    0  0.92106841789E+02 -0.54576940398E+02 -0.13476744374E+03  0.19200504662E+03  0.85096188553E+02 0.  0.
         25    2    1    2    0    0 -0.14430502422E+03 -0.47522825070E+02 -0.15038519695E+03  0.24767242930E+03  0.12507424138E+03 0.  0.
         24    2    1    2    0    0  0.52198182427E+02  0.10209976547E+03  0.21399992728E+03  0.25566817696E+03  0.80132611833E+02 0.  0.
        -11    1    5    5    0    0  0.58080035300E+02  0.10763509485E+03  0.16168242296E+03  0.20273088082E+03  0.00000000000E+00 0.  1.
         12    1    5    5    0    0 -0.58818528728E+01 -0.55353293869E+01  0.52317504314E+02  0.52937296137E+02  0.00000000000E+00 0. -1.
         13    1    3    3    0    0  0.36402075290E+02  0.19494880440E+02 -0.60451618458E+02  0.73209013263E+02  0.00000000000E+00 0. -1.
        -14    1    3    3    0    0  0.55704766499E+02 -0.74071820838E+02 -0.74315825283E+02  0.11879603335E+03  0.00000000000E+00 0.  1.
          5    1    4    4  501    0  0.54655459607E+00 -0.50081896519E+02 -0.25514100201E+02  0.56364321960E+02  0.41800000000E+01 0. -1.
         -5    1    4    4    0  501 -0.14485157881E+03  0.25590714497E+01 -0.12487109675E+03  0.19130810734E+03  0.41800000000E+01 0. -1.
</event>
<event>
11    1  0.8328696E-009  0.1309224E+03  0.7561462E-02  0.1118141E+00
         22   -1    0    0    0    0  0.00000000000E+00  0.00000000000E+00  0.59171441278E+03  0.59171441278E+03  0.00000000000E+00 0. -1.
         22   -1    0    0    0    0 -0.00000000000E+00 -0.00000000000E+00 -0.65371298132E+03  0.65371298132E+03  0.00000000000E+00 0. -1.
        -24    2    1    2    0    0  0.12713096935E+02 -0.88405984907E+01 -0.53939092846E+03  0.54573158183E+03  0.81489917682E+02 0.  0.
         25    2    1    2    0    0 -0.45016643201E+02 -0.12015277024E+02 -0.66082041789E+02  0.14894566538E+03  0.12508840850E+03 0.  0.
         24    2    1    2    0    0  0.32303546267E+02  0.20855875515E+02  0.54347440171E+03  0.55075014689E+03  0.80515913542E+02 0.  0.
        -11    1    5    5    0    0  0.11319435596E+02 -0.12946348011E+02  0.22802168631E+02  0.28560049778E+02  0.00000000000E+00 0.  1.
         12    1    5    5    0    0  0.20984110671E+02  0.33802223526E+02  0.52067223308E+03  0.52219009711E+03  0.00000000000E+00 0. -1.
         11    1    3    3    0    0 -0.26449348308E+01  0.40345751745E+01 -0.51076389952E+03  0.51078668202E+03  0.00000000000E+00 0. -1.
        -12    1    3    3    0    0  0.15358031766E+02 -0.12875173665E+02 -0.28627028945E+02  0.34944899811E+02  0.00000000000E+00 0.  1.
          5    1    4    4  501    0  0.23146354148E+02  0.13458719742E+02  0.21794050794E+02  0.34775622172E+02  0.41800000000E+01 0.  1.
         -5    1    4    4    0  501 -0.68162997349E+02 -0.25473996766E+02 -0.87876092583E+02  0.11417004321E+03  0.41800000000E+01 0.  1.
</event>
<event>
11    1  0.8328696E-009  0.1419918E+03  0.7561462E-02  0.1105354E+00
         22   -1    0    0    0    0  0.00000000000E+00  0.00000000000E+00  0.62928689999E+03  0.62928689999E+03  0.00000000000E+00 0. -1.
         22   -1    0    0    0    0 -0.00000000000E+00 -0.00000000000E+00 -0.26724909793E+03  0.26724909793E+03  0.00000000000E+00 0.  1.
         24    2    1    2    0    0 -0.28124271859E+02 -0.40285991190E+02 -0.22912099436E+03  0.24765709733E+03  0.80147813722E+02 0.  0.
         25    2    1    2    0    0  0.67514946861E+02  0.78141141153E+02  0.28647402109E+03  0.32920965146E+03  0.12508926360E+03 0.  0.
        -24    2    1    2    0    0 -0.39390675002E+02 -0.37855149963E+02  0.30468477533E+03  0.31966924913E+03  0.79818411797E+02 0.  0.
        -11    1    3    3    0    0 -0.19903709880E+02 -0.32001985033E+00 -0.19029649093E+03  0.19133482313E+03  0.00000000000E+00 0.  1.
         12    1    3    3    0    0 -0.82205619789E+01 -0.39965971340E+02 -0.38824503430E+02  0.56322274200E+02  0.00000000000E+00 0. -1.
         13    1    5    5    0    0 -0.10429768659E+02 -0.15956543474E+02  0.26574704694E+03  0.26642988629E+03  0.00000000000E+00 0. -1.
        -14    1    5    5    0    0 -0.28960906343E+02 -0.21898606489E+02  0.38937728395E+02  0.53239362834E+02  0.00000000000E+00 0.  1.
          5    1    4    4  501    0  0.69226305078E+02  0.25602541561E+02  0.55900067905E+02  0.92682584345E+02  0.41800000000E+01 0. -1.
         -5    1    4    4    0  501 -0.17113582174E+01  0.52538599593E+02  0.23057395318E+03  0.23652706712E+03  0.41800000000E+01 0. -1.
</event>
<event>
11    1  0.8328696E-009  0.1345108E+03  0.7561462E-02  0.1113848E+00
         22   -1    0    0    0    0  0.00000000000E+00  0.00000000000E+00  0.19375950490E+03  0.19375950490E+03  0.00000000000E+00 0.  1.
         22   -1    0    0    0    0 -0.00000000000E+00 -0.00000000000E+00 -0.13392071422E+04  0.13392071422E+04  0.00000000000E+00 0.  1.
        -24    2    1    2    0    0  0.49413854454E+02 -0.18417553311E+02 -0.10686844317E+04  0.10729709701E+04  0.79995955355E+02 0.  0.
         25    2    1    2    0    0 -0.18766473844E+02  0.20543344220E+02 -0.24203364530E+03  0.27386779981E+03  0.12509627006E+03 0.  0.
         24    2    1    2    0    0 -0.30647380610E+02 -0.21257909092E+01  0.16527043967E+03  0.18612787721E+03  0.79909245522E+02 0.  0.
        -13    1    5    5    0    0 -0.50406189661E+02  0.20848619736E+02  0.11770454476E+03  0.12972975278E+03  0.00000000000E+00 0.  1.
         14    1    5    5    0    0  0.19758809051E+02 -0.22974410645E+02  0.47565894912E+02  0.56398124423E+02  0.00000000000E+00 0. -1.
         13    1    3    3    0    0 -0.25049508542E+01 -0.24162260372E+02 -0.10109324150E+03  0.10397082803E+03  0.00000000000E+00 0. -1.
        -14    1    3    3    0    0  0.51918805308E+02  0.57447070610E+01 -0.96759119020E+03  0.96900014208E+03  0.00000000000E+00 0.  1.
          5    1    4    4  501    0 -0.11040735742E+02 -0.16526139461E+02  0.73442788348E+01  0.21596804459E+02  0.41800000000E+01 0. -1.
         -5    1    4    4    0  501 -0.77257381021E+01  0.37069483682E+02 -0.24937792414E+03  0.25227099535E+03  0.41800000000E+01 0. -1.
</event>
<event>
11    1  0.8328696E-009  0.1413609E+03  0.7561462E-02  0.1106048E+00
         22   -1    0    0    0    0  0.00000000000E+00  0.00000000000E+00  0.86991038440E+03  0.86991038440E+03  0.00000000000E+00 0.  1.
         22   -1    0    0    0    0 -0.00000000000E+00 -0.00000000000E+00 -0.17728254459E+03  0.17728254459E+03  0.00000000000E+00 0. -1.
        -24    2    1    2    0    0 -0.36735770732E+02 -0.22005552149E+01 -0.13472766419E+03  0.16146780187E+03  0.81030538987E+02 0.  0.
         25    2    1    2    0    0 -0.34110896902E+02  0.25733604667E+01  0.14169687207E+03  0.19208770073E+03  0.12509798457E+03 0.  0.
         24    2    1    2    0    0  0.70846667633E+02 -0.37280525186E+00  0.68565863193E+03  0.69363742639E+03  0.77367502575E+02 0.  0.
        -13    1    5    5    0    0  0.32517512534E+02 -0.74478166307E+01  0.58099458906E+03  0.58195151955E+03  0.00000000000E+00 0.  1.
         14    1    5    5    0    0  0.38329155099E+02  0.70750113788E+01  0.10466404287E+03  0.11168590684E+03  0.00000000000E+00 0. -1.
         11    1    3    3    0    0 -0.11007510424E+01  0.10235434062E+02 -0.12079925277E+03  0.12123710337E+03  0.00000000000E+00 0. -1.
        -12    1    3    3    0    0 -0.35635019689E+02 -0.12435989277E+02 -0.13928411424E+02  0.40230698507E+02  0.00000000000E+00 0.  1.
          5    1    4    4  501    0 -0.15955968157E+02  0.10425221929E+00  0.16291262467E+03  0.16374553265E+03  0.41800000000E+01 0.  1.
         -5    1    4    4    0  501 -0.18154928745E+02  0.24691082474E+01 -0.21215752591E+02  0.28342168077E+02  0.41800000000E+01 0.  1.
</event>
<event>
11    1  0.8328696E-009  0.1738243E+03  0.7561462E-02  0.1074751E+00
         22   -1    0    0    0    0  0.00000000000E+00  0.00000000000E+00  0.17951821067E+04  0.17951821067E+04  0.00000000000E+00 0. -1.
         22   -1    0    0    0    0 -0.00000000000E+00 -0.00000000000E+00 -0.14563331085E+03  0.14563331085E+03  0.00000000000E+00 0.  1.
         24    2    1    2    0    0  0.43642854032E+02 -0.93587699779E+02 -0.11532777649E+01  0.13020379735E+03  0.79299070209E+02 0.  0.
         25    2    1    2    0    0 -0.11227149221E+03  0.11664844432E+03  0.55820708606E+02  0.21207159354E+03  0.12508661700E+03 0.  0.
        -24    2    1    2    0    0  0.68628638173E+02 -0.23060744538E+02  0.15948813650E+04  0.15985400267E+04  0.80261824642E+02 0.  0.
        -11    1    3    3    0    0  0.54871344441E+02 -0.41146612990E+02 -0.22936894267E+02  0.72318803364E+02  0.00000000000E+00 0.  1.
         12    1    3    3    0    0 -0.11228490409E+02 -0.52441086789E+02  0.21783616503E+02  0.57884993983E+02  0.00000000000E+00 0. -1.
         11    1    5    5    0    0  0.45730190151E+02  0.57836209803E+01  0.13606935068E+04  0.13614740247E+04  0.00000000000E+00 0. -1.
        -12    1    5    5    0    0  0.22898448022E+02 -0.28844365518E+02  0.23418785827E+03  0.23706600200E+03  0.00000000000E+00 0.  1.
          5    1    4    4  501    0 -0.45188703037E+02 -0.21353666053E+02  0.51185884395E+01  0.50414980747E+02  0.41800000000E+01 0. -1.
         -5    1    4    4    0  501 -0.67082789168E+02  0.13800211037E+03  0.50702120167E+02  0.16165661279E+03  0.41800000000E+01 0. -1.
</event>
<event>
11    1  0.8328696E-009  0.1327271E+03  0.7561462E-02  0.1115963E+00
         22   -1    0    0    0    0  0.00000000000E+00  0.00000000000E+00  0.24707554108E+04  0.24707554108E+04  0.00000000000E+00 0. -1.
         22   -1    0    0    0    0 -0.00000000000E+00 -0.00000000000E+00 -0.17370331345E+03  0.17370331345E+03  0.00000000000E+00 0.  1.
        -24    2    1    2    0    0 -0.19982803661E+02 -0.70940169858E+01 -0.15136007636E+03  0.17370205846E+03  0.82540262171E+02 0.  0.
         25    2    1    2    0    0  0.62511164442E+02  0.77601219239E+01  0.47374498003E+03  0.49401080042E+03  0.12507797429E+03 0.  0.
         24    2    1    2    0    0 -0.42528360781E+02 -0.66610493816E+00  0.19746671937E+04  0.19767458654E+04  0.80028653249E+02 0.  0.
        -13    1    5    5    0    0 -0.28257911711E+01  0.11411709021E+02  0.41494125547E+02  0.43127423450E+02  0.00000000000E+00 0.  1.
         14    1    5    5    0    0 -0.39702569610E+02 -0.12077813959E+02  0.19331730681E+04  0.19336184419E+04  0.00000000000E+00 0. -1.
         13    1    3    3    0    0 -0.36867444802E+02  0.27696101598E+02 -0.73494174582E+02  0.86762182012E+02  0.00000000000E+00 0. -1.
        -14    1    3    3    0    0  0.16884641142E+02 -0.34790118584E+02 -0.77865901776E+02  0.86939876449E+02  0.00000000000E+00 0.  1.
          5    1    4    4  501    0  0.47749100118E+02 -0.28060397915E+02  0.43678744816E+03  0.44030456478E+03  0.41800000000E+01 0. -1.
         -5    1    4    4    0  501  0.14762064323E+02  0.35820519839E+02  0.36957531872E+02  0.53706235641E+02  0.41800000000E+01 0. -1.
</event>
<event>
11    1  0.8328696E-009  0.2033623E+03  0.7561462E-02  0.1052171E+00
         22   -1    0    0    0    0  0.00000000000E+00  0.00000000000E+00  0.21397427286E+03  0.21397427286E+03  0.00000000000E+00 0. -1.
         22   -1    0    0    0    0 -0.00000000000E+00 -0.00000000000E+00 -0.14196623136E+04  0.14196623136E+04  0.00000000000E+00 0.  1.
        -24    2    1    2    0    0 -0.12170104713E+03 -0.83047906099E+02 -0.90961942397E+03  0.92512817629E+03  0.82137363798E+02 0.  0.
         25    2    1    2    0    0  0.18963901673E+03  0.10027400269E+03 -0.45439568948E+03  0.51782307337E+03  0.12508980939E+03 0.  0.
         24    2    1    2    0    0 -0.67937969600E+02 -0.17226096596E+02  0.15832707268E+03  0.19068533682E+03  0.79881973026E+02 0.  0.
        -13    1    5    5    0    0 -0.41002414858E+02 -0.37508079747E+02  0.42242654791E+02  0.69803266071E+02  0.00000000000E+00 0.  1.
         14    1    5    5    0    0 -0.26935554742E+02  0.20281983151E+02  0.11608441789E+03  0.12088207074E+03  0.00000000000E+00 0. -1.
         13    1    3    3    0    0 -0.36641439835E+02 -0.47808866389E+02 -0.18204856644E+03  0.19175495655E+03  0.00000000000E+00 0. -1.
        -14    1    3    3    0    0 -0.85059607291E+02 -0.35239039710E+02 -0.72757085753E+03  0.73337321974E+03  0.00000000000E+00 0.  1.
          5    1    4    4  501    0  0.10124305382E+03  0.75615214243E+02 -0.37721187049E+03  0.39783675573E+03  0.41800000000E+01 0.  1.
         -5    1    4    4    0  501  0.88395962910E+02  0.24658788452E+02 -0.77183818990E+02  0.11998631764E+03  0.41800000000E+01 0.  1.
</event>
<event>
11    1  0.8328696E-009  0.1392214E+03  0.7561462E-02  0.1108431E+00
         22   -1    0    0    0    0  0.00000000000E+00  0.00000000000E+00  0.18115679374E+03  0.18115679374E+03  0.00000000000E+00 0.  1.
         22   -1    0    0    0    0 -0.00000000000E+00 -0.00000000000E+00 -0.14517019297E+04  0.14517019297E+04  0.00000000000E+00 0. -1.
         24    2    1    2    0    0  0.48382889317E+02  0.30644767424E+02 -0.11056384233E+04  0.11100473601E+04  0.80553167846E+02 0.  0.
         25    2    1    2    0    0 -0.76230386500E+02 -0.53629092251E+02 -0.31333749182E+03  0.35002120677E+03  0.12508920836E+03 0.  0.
        -24    2    1    2    0    0  0.27847497183E+02  0.22984324827E+02  0.14843077918E+03  0.17279015654E+03  0.80752583248E+02 0.  0.
        -13    1    3    3    0    0 -0.14506605416E+02 -0.88815125361E+01 -0.83576060984E+02  0.85289394623E+02  0.00000000000E+00 0.  1.
         14    1    3    3    0    0  0.62889494733E+02  0.39526279960E+02 -0.10220623623E+04  0.10247579655E+04  0.00000000000E+00 0. -1.
         11    1    5    5    0    0 -0.19573374188E+02  0.34470471674E+02  0.68600009406E+02  0.79229361256E+02  0.00000000000E+00 0. -1.
        -12    1    5    5    0    0  0.47420871371E+02 -0.11486146847E+02  0.79830769772E+02  0.93560795280E+02  0.00000000000E+00 0.  1.
          5    1    4    4  501    0 -0.83527860614E+02  0.14133459065E+02 -0.20633561681E+03  0.22308858628E+03  0.41800000000E+01 0. -1.
         -5    1    4    4    0  501  0.72974741137E+01 -0.67762551317E+02 -0.10700187500E+03  0.12693262049E+03  0.41800000000E+01 0. -1.
</event>
<event>
11    1  0.8328696E-009  0.1312814E+03  0.7561462E-02  0.1117704E+00
         22   -1    0    0    0    0  0.00000000000E+00  0.00000000000E+00  0.30419674387E+03  0.30419674387E+03  0.00000000000E+00 0. -1.
         22   -1    0    0    0    0 -0.00000000000E+00 -0.00000000000E+00 -0.66397583236E+03  0.66397583236E+03  0.00000000000E+00 0.  1.
        -24    2    1    2    0    0 -0.65105602625E+01 -0.21139015126E+02 -0.57138160007E+03  0.57755915093E+03  0.81292032651E+02 0.  0.
         25    2    1    2    0    0 -0.13264703834E+02  0.54130940476E+02 -0.23797362079E+02  0.13899881619E+03  0.12509294695E+03 0.  0.
         24    2    1    2    0    0  0.19775264096E+02 -0.32991925350E+02  0.23539987366E+03  0.25161460910E+03  0.80107944580E+02 0.  0.
        -13    1    5    5    0    0 -0.16807116138E+02 -0.18595423137E+02  0.18429387270E+02  0.31111271746E+02  0.00000000000E+00 0.  1.
         14    1    5    5    0    0  0.36582380234E+02 -0.14396502213E+02  0.21697048639E+03  0.22050333736E+03  0.00000000000E+00 0. -1.
         13    1    3    3    0    0 -0.39878954938E+02 -0.20930052488E+01 -0.18437808194E+03  0.18865309120E+03  0.00000000000E+00 0. -1.
        -14    1    3    3    0    0  0.33368394675E+02 -0.19046009877E+02 -0.38700351812E+03  0.38890605973E+03  0.00000000000E+00 0.  1.
          5    1    4    4  501    0 -0.39212577001E+02  0.49591982948E+02  0.36460917532E+02  0.73101722791E+02  0.41800000000E+01 0.  1.
         -5    1    4    4    0  501  0.25947873168E+02  0.45389575277E+01 -0.60258279611E+02  0.65897093404E+02  0.41800000000E+01 0.  1.
</event>
<event>
11    1  0.8328696E-009  0.1322247E+03  0.7561462E-02  0.1116565E+00
         22   -1    0    0    0    0  0.00000000000E+00  0.00000000000E+00  0.87336070524E+02  0.87336070524E+02  0.00000000000E+00 0. -1.
         22   -1    0    0    0    0 -0.00000000000E+00 -0.00000000000E+00 -0.63603127759E+03  0.63603127759E+03  0.00000000000E+00 0. -1.
         24    2    1    2    0    0 -0.27815655236E+02 -0.34011792137E+02 -0.43307545771E+03  0.44390182747E+03  0.86971073778E+02 0.  0.
         25    2    1    2    0    0  0.49131777851E+02  0.46274224679E+01 -0.12445065683E+03  0.18322323555E+03  0.12508974149E+03 0.  0.
        -24    2    1    2    0    0 -0.21316122615E+02  0.29384369669E+02  0.88309074715E+01  0.96242285102E+02  0.88694837790E+02 0.  0.
        -13    1    3    3    0    0  0.57225908498E+01  0.25592758138E+02 -0.77733403225E+02  0.82037913748E+02  0.00000000000E+00 0.  1.
         14    1    3    3    0    0 -0.33538246085E+02 -0.59604550275E+02 -0.35534205449E+03  0.36186391372E+03  0.00000000000E+00 0. -1.
         13    1    5    5    0    0  0.22277803107E+02  0.35816021433E+01  0.33109467343E+02  0.40067009034E+02  0.00000000000E+00 0. -1.
        -14    1    5    5    0    0 -0.43593925722E+02  0.25802767526E+02 -0.24278559871E+02  0.56175276068E+02  0.00000000000E+00 0.  1.
          5    1    4    4  501    0  0.62070551344E+02  0.32789250207E+02 -0.13330885193E+03  0.15072030612E+03  0.41800000000E+01 0. -1.
         -5    1    4    4    0  501 -0.12938773493E+02 -0.28161827739E+02  0.88581951036E+01  0.32502929431E+02  0.41800000000E+01 0. -1.
</event>
<event>
11    1  0.8328696E-009  0.2037939E+03  0.7561462E-02  0.1051873E+00
         22   -1    0    0    0    0  0.00000000000E+00  0.00000000000E+00  0.25296026930E+03  0.25296026930E+03  0.00000000000E+00 0. -1.
         22   -1    0    0    0    0 -0.00000000000E+00 -0.00000000000E+00 -0.31037490303E+03  0.31037490303E+03  0.00000000000E+00 0.  1.
        -24    2    1    2    0    0  0.13208824603E+03 -0.70687747422E+02 -0.35086862946E+02  0.17416556786E+03  0.81599599879E+02 0.  0.
         25    2    1    2    0    0 -0.11802611981E+03  0.12965108352E+03 -0.12154986856E+03  0.24730901905E+03  0.12509121449E+03 0.  0.
         24    2    1    2    0    0 -0.14062126222E+02 -0.58963336101E+02  0.99222097768E+02  0.14186058542E+03  0.81271044111E+02 0.  0.
        -11    1    5    5    0    0 -0.13365450291E+02 -0.16827374175E+02  0.97332487378E+02  0.99676521219E+02  0.00000000000E+00 0.  1.
         12    1    5    5    0    0 -0.69667593032E+00 -0.42135961925E+02  0.18896103902E+01  0.42184064197E+02  0.00000000000E+00 0. -1.
         13    1    3    3    0    0  0.12041502848E+02  0.14458730781E+02 -0.17930998827E+02  0.25991794966E+02  0.00000000000E+00 0. -1.
        -14    1    3    3    0    0  0.12004674319E+03 -0.85146478203E+02 -0.17155864120E+02  0.14817377289E+03  0.00000000000E+00 0.  1.
          5    1    4    4  501    0 -0.59309056866E+02  0.23446695563E+02  0.13892436175E+02  0.65404770025E+02  0.41800000000E+01 0.  1.
         -5    1    4    4    0  501 -0.58717062946E+02  0.10620438796E+03 -0.13544230473E+03  0.18190424903E+03  0.41800000000E+01 0.  1.
</event>
<event>
11    1  0.8328696E-009  0.1716020E+03  0.7561462E-02  0.1076646E+00
         22   -1    0    0    0    0  0.00000000000E+00  0.00000000000E+00  0.11880971063E+04  0.11880971063E+04  0.00000000000E+00 0.  1.
         22   -1    0    0    0    0 -0.00000000000E+00 -0.00000000000E+00 -0.47858133646E+03  0.47858133646E+03  0.00000000000E+00 0.  1.
        -24    2    1    2    0    0 -0.15402781805E+02 -0.79757323881E+02 -0.43566035513E+03  0.45025663697E+03  0.79577746263E+02 0.  0.
         25    2    1    2    0    0  0.45442050841E+02  0.17985486203E+03  0.38850424058E+03  0.44832470884E+03  0.12508696265E+03 0.  0.
         24    2    1    2    0    0 -0.30039269035E+02 -0.10009753815E+03  0.75667188442E+03  0.76809709698E+03  0.80615971663E+02 0.  0.
        -11    1    5    5    0    0 -0.48802311982E+02 -0.36736355297E+02  0.46733365684E+03  0.47130878654E+03  0.00000000000E+00 0.  1.
         12    1    5    5    0    0  0.18763042947E+02 -0.63361182853E+02  0.28933822758E+03  0.29678831044E+03  0.00000000000E+00 0. -1.
         13    1    3    3    0    0 -0.17695308416E+02  0.71898537646E+01 -0.16161658318E+03  0.16274132203E+03  0.00000000000E+00 0. -1.
        -14    1    3    3    0    0  0.22925266109E+01 -0.86947177645E+02 -0.27404377195E+03  0.28751531494E+03  0.00000000000E+00 0.  1.
          5    1    4    4  501    0  0.18250826918E+02  0.74017028759E+02  0.46804771962E+02  0.89553181451E+02  0.41800000000E+01 0.  1.
         -5    1    4    4    0  501  0.27191223923E+02  0.10583783327E+03  0.34169946862E+03  0.35877152739E+03  0.41800000000E+01 0.  1.
</event>
<event>
11    1  0.8328696E-009  0.1283932E+03  0.7561462E-02  0.1121259E+00
         22   -1    0    0    0    0  0.00000000000E+00  0.00000000000E+00  0.28063295566E+03  0.28063295566E+03  0.00000000000E+00 0. -1.
         22   -1    0    0    0    0 -0.00000000000E+00 -0.00000000000E+00 -0.56421815229E+03  0.56421815229E+03  0.00000000000E+00 0.  1.
        -24    2    1    2    0    0 -0.37759808123E+01  0.32941983108E+02 -0.38487159763E+03  0.39469282730E+03  0.80974372360E+02 0.  0.
         25    2    1    2    0    0  0.28922372474E+01 -0.25557174022E+01 -0.14323929466E+03  0.19020977663E+03  0.12508943546E+03 0.  0.
         24    2    1    2    0    0  0.88374356489E+00 -0.30386265705E+02  0.24452569565E+03  0.25994850401E+03  0.82802794381E+02 0.  0.
        -11    1    5    5    0    0 -0.32075790371E+02 -0.30236288305E+02  0.72934738571E+02  0.85220687329E+02  0.00000000000E+00 0.  1.
         12    1    5    5    0    0  0.32959533936E+02 -0.14997739999E+00  0.17159095708E+03  0.17472781668E+03  0.00000000000E+00 0. -1.
         11    1    3    3    0    0 -0.21914916723E+01  0.60156885475E+02 -0.25914408577E+03  0.26604381349E+03  0.00000000000E+00 0. -1.
        -12    1    3    3    0    0 -0.15844891400E+01 -0.27214902367E+02 -0.12572751185E+03  0.12864901380E+03  0.00000000000E+00 0.  1.
          5    1    4    4  501    0 -0.11401916280E+02  0.12603306588E+02  0.19434537802E+02  0.26153789236E+02  0.41800000000E+01 0.  1.
         -5    1    4    4    0  501  0.14294153528E+02 -0.15159023990E+02 -0.16267383246E+03  0.16405598740E+03  0.41800000000E+01 0.  1.
</event>
<event>
11    1  0.8328696E-009  0.1589828E+03  0.7561462E-02  0.1088038E+00
         22   -1    0    0    0    0  0.00000000000E+00  0.00000000000E+00  0.71138615524E+03  0.71138615524E+03  0.00000000000E+00 0. -1.
         22   -1    0    0    0    0 -0.00000000000E+00 -0.00000000000E+00 -0.24683058537E+03  0.24683058537E+03  0.00000000000E+00 0.  1.
         24    2    1    2    0    0 -0.45364994278E+02  0.15553888555E+01 -0.19110044239E+03  0.21015795517E+03  0.74743461916E+02 0.  0.
         25    2    1    2    0    0  0.32513769790E+02  0.96683074128E+02  0.13039411008E+03  0.20749494281E+03  0.12508703090E+03 0.  0.
        -24    2    1    2    0    0  0.12851224487E+02 -0.98238462983E+02  0.52526190220E+03  0.54056384263E+03  0.80580720255E+02 0.  0.
        -13    1    3    3    0    0 -0.64030080345E+02 -0.10794847746E+02 -0.14702308639E+03  0.16072388702E+03  0.00000000000E+00 0.  1.
         14    1    3    3    0    0  0.18665086067E+02  0.12350236602E+02 -0.44077356007E+02  0.49434068157E+02  0.00000000000E+00 0. -1.
         13    1    5    5    0    0  0.13226706597E+02 -0.44773320836E+02  0.41915964001E+03  0.42175158546E+03  0.00000000000E+00 0. -1.
        -14    1    5    5    0    0 -0.37548210970E+00 -0.53465142147E+02  0.10610226218E+03  0.11881225716E+03  0.00000000000E+00 0.  1.
          5    1    4    4  501    0 -0.21434565790E+02 -0.19555172343E+02  0.44064604725E+02  0.52924542186E+02  0.41800000000E+01 0.  1.
         -5    1    4    4    0  501  0.53948335580E+02  0.11623824647E+03  0.86329505351E+02  0.15457040062E+03  0.41800000000E+01 0.  1.
</event>
<event>
11    1  0.8328696E-009  0.1377748E+03  0.7561462E-02  0.1110069E+00
         22   -1    0    0    0    0  0.00000000000E+00  0.00000000000E+00  0.74430112381E+03  0.74430112381E+03  0.00000000000E+00 0. -1.
         22   -1    0    0    0    0 -0.00000000000E+00 -0.00000000000E+00 -0.30452241397E+03  0.30452241397E+03  0.00000000000E+00 0.  1.
         24    2    1    2    0    0  0.54378094802E+01 -0.60230532836E+02 -0.18162417649E+03  0.20779089237E+03  0.80823428574E+02 0.  0.
         25    2    1    2    0    0  0.18534628692E+02  0.49584376284E+02 -0.64251491126E+02  0.15025822036E+03  0.12508851203E+03 0.  0.
        -24    2    1    2    0    0 -0.23972438172E+02  0.10646156551E+02  0.68565437746E+03  0.69077442505E+03  0.79745611359E+02 0.  0.
        -11    1    3    3    0    0  0.90189763664E+01 -0.87691741658E+01 -0.14248123546E+03  0.14303545997E+03  0.00000000000E+00 0.  1.
         12    1    3    3    0    0 -0.35811668862E+01 -0.51461358670E+02 -0.39142941032E+02  0.64755432398E+02  0.00000000000E+00 0. -1.
         13    1    5    5    0    0 -0.34027584761E+02  0.40177202086E+02  0.41387065664E+03  0.41720618945E+03  0.00000000000E+00 0. -1.
        -14    1    5    5    0    0  0.10055146589E+02 -0.29531045535E+02  0.27178372082E+03  0.27356823559E+03  0.00000000000E+00 0.  1.
          5    1    4    4  501    0  0.31385674464E+02 -0.29421121763E+02 -0.54433229769E+02  0.69506200230E+02  0.41800000000E+01 0. -1.
         -5    1    4    4    0  501 -0.12851045772E+02  0.79005498047E+02 -0.98182613570E+01  0.80752020131E+02  0.41800000000E+01 0. -1.
</event>
<event>
11    1  0.8328696E-009  0.1570529E+03  0.7561462E-02  0.1089882E+00
         22   -1    0    0    0    0  0.00000000000E+00  0.00000000000E+00  0.35862563405E+03  0.35862563405E+03  0.00000000000E+00 0.  1.
         22   -1    0    0    0    0 -0.00000000000E+00 -0.00000000000E+00 -0.55427677422E+03  0.55427677422E+03  0.00000000000E+00 0. -1.
        -24    2    1    2    0    0 -0.41429114987E+02 -0.50711063380E+02 -0.45032823388E+03  0.46165650591E+03  0.77738199747E+02 0.  0.
         25    2    1    2    0    0  0.91543749835E+02 -0.33321925987E+02 -0.85301536074E+01  0.15878118088E+03  0.12509232988E+03 0.  0.
         24    2    1    2    0    0 -0.50114634848E+02  0.84032989367E+02  0.26320724732E+03  0.29246472149E+03  0.81759026099E+02 0.  0.
        -11    1    5    5    0    0 -0.71652918511E+02  0.51006530345E+02  0.18757106436E+03  0.20716831576E+03  0.00000000000E+00 0.  1.
         12    1    5    5    0    0  0.21538283663E+02  0.33026459022E+02  0.75636182962E+02  0.85296405737E+02  0.00000000000E+00 0. -1.
         13    1    3    3    0    0 -0.29475880716E+02  0.40169774456E+01 -0.29572445349E+03  0.29721695113E+03  0.00000000000E+00 0. -1.
        -14    1    3    3    0    0 -0.11953234271E+02 -0.54728040825E+02 -0.15460378039E+03  0.16443955477E+03  0.00000000000E+00 0.  1.
          5    1    4    4  501    0  0.10448067790E+01 -0.55766680706E+02 -0.29331225488E+02  0.63157006632E+02  0.41800000000E+01 0. -1.
         -5    1    4    4    0  501  0.90498943056E+02  0.22444754719E+02  0.20801071881E+02  0.95624174245E+02  0.41800000000E+01 0. -1.
</event>
<event>
11    1  0.8328696E-009  0.1385551E+03  0.7561462E-02  0.1109183E+00
         22   -1    0    0    0    0  0.00000000000E+00  0.00000000000E+00  0.35898545605E+03  0.35898545605E+03  0.00000000000E+00 0.  1.
         22   -1    0    0    0    0 -0.00000000000E+00 -0.00000000000E+00 -0.99347415765E+03  0.99347415765E+03  0.00000000000E+00 0.  1.
         24    2    1    2    0    0 -0.57804518884E+02 -0.15475891028E+02 -0.92776813746E+03  0.93319500407E+03  0.80736194705E+02 0.  0.
         25    2    1    2    0    0  0.50893226108E+02  0.10483883106E+02  0.23141994502E+02  0.13741659229E+03  0.12509090958E+03 0.  0.
        -24    2    1    2    0    0  0.69112927766E+01  0.49920079224E+01  0.27013744135E+03  0.28184801734E+03  0.79946116510E+02 0.  0.
        -11    1    3    3    0    0 -0.55666377871E+02 -0.24123431921E+02 -0.91789291537E+03  0.91989569500E+03  0.00000000000E+00 0.  1.
         12    1    3    3    0    0 -0.21381410129E+01  0.86475408930E+01 -0.98752220866E+01  0.13299309070E+02  0.00000000000E+00 0. -1.
         11    1    5    5    0    0  0.11244511212E+02  0.39142125247E+02  0.95027038962E+02  0.10338608773E+03  0.00000000000E+00 0. -1.
        -12    1    5    5    0    0 -0.43332184354E+01 -0.34150117324E+02  0.17511040239E+03  0.17846192961E+03  0.00000000000E+00 0.  1.
          5    1    4    4  501    0 -0.34294043138E+02 -0.22029999638E+02  0.21166301231E+02  0.46118184988E+02  0.41800000000E+01 0. -1.
         -5    1    4    4    0  501  0.85187269246E+02  0.32513882743E+02  0.19756932712E+01  0.91298407305E+02  0.41800000000E+01 0. -1.
</event>
<event>
11    1  0.8328696E-009  0.2368027E+03  0.7561462E-02  0.1031174E+00
         22   -1    0    0    0    0  0.00000000000E+00  0.00000000000E+00  0.58839677831E+03  0.58839677831E+03  0.00000000000E+00 0.  1.
         22   -1    0    0    0    0 -0.00000000000E+00 -0.00000000000E+00 -0.22577093711E+03  0.22577093711E+03  0.00000000000E+00 0. -1.
        -24    2    1    2    0    0 -0.20485417726E+03 -0.21119284276E+02 -0.76963024565E+02  0.23398135717E+03  0.80079399602E+02 0.  0.
         25    2    1    2    0    0  0.19007560478E+03 -0.12148229755E+02  0.13798102008E+03  0.26638740077E+03  0.12508865004E+03 0.  0.
         24    2    1    2    0    0  0.14778572485E+02  0.33267514031E+02  0.30160784569E+03  0.31379895749E+03  0.78596179567E+02 0.  0.
        -11    1    5    5    0    0  0.12123946609E+02  0.26528512759E+02  0.30457741193E+03  0.30597083509E+03  0.00000000000E+00 0.  1.
         12    1    5    5    0    0  0.26546258768E+01  0.67390012718E+01 -0.29695662314E+01  0.78281223988E+01  0.00000000000E+00 0. -1.
         13    1    3    3    0    0 -0.17501419739E+03  0.32215603826E+01 -0.37842544103E+02  0.17908770444E+03  0.00000000000E+00 0. -1.
        -14    1    3    3    0    0 -0.29839979874E+02 -0.24340844658E+02 -0.39120480461E+02  0.54893652721E+02  0.00000000000E+00 0.  1.
          5    1    4    4  501    0  0.49835320391E+02 -0.43943573090E+02 -0.68518848483E+00  0.66577313386E+02  0.41800000000E+01 0. -1.
         -5    1    4    4    0  501  0.14024028439E+03  0.31795343335E+02  0.13866620856E+03  0.19981008738E+03  0.41800000000E+01 0. -1.
</event>
<event>
11    1  0.8328696E-009  0.2002593E+03  0.7561462E-02  0.1054340E+00
         22   -1    0    0    0    0  0.00000000000E+00  0.00000000000E+00  0.27251950459E+04  0.27251950459E+04  0.00000000000E+00 0.  1.
         22   -1    0    0    0    0 -0.00000000000E+00 -0.00000000000E+00 -0.10903478845E+03  0.10903478845E+03  0.00000000000E+00 0.  1.
         24    2    1    2    0    0  0.15401111289E+03  0.14886599268E+01 -0.38946118632E+01  0.17426020210E+03  0.81423651555E+02 0.  0.
         25    2    1    2    0    0 -0.17303595689E+03 -0.61200448003E+02  0.64836498317E+03  0.68535534618E+03  0.12509141430E+03 0.  0.
        -24    2    1    2    0    0  0.19024844000E+02  0.59711788076E+02  0.19716898861E+04  0.19746142860E+04  0.87253247808E+02 0.  0.
        -11    1    3    3    0    0  0.16204076640E+03  0.43447482993E+01  0.46855973208E+01  0.16216670939E+03  0.00000000000E+00 0.  1.
         12    1    3    3    0    0 -0.80296535080E+01 -0.28560883726E+01 -0.85802091840E+01  0.12093492709E+02  0.00000000000E+00 0. -1.
         11    1    5    5    0    0 -0.11349755177E+02  0.30061660576E+02  0.21280636287E+03  0.21521865268E+03  0.00000000000E+00 0. -1.
        -12    1    5    5    0    0  0.30374599177E+02  0.29650127500E+02  0.17588835233E+04  0.17593956334E+04  0.00000000000E+00 0.  1.
          5    1    4    4  501    0 -0.12184232173E+03  0.14656971995E+02  0.45673576899E+03  0.47295392299E+03  0.41800000000E+01 0.  1.
         -5    1    4    4    0  501 -0.51193635162E+02 -0.75857419998E+02  0.19162921418E+03  0.21240142320E+03  0.41800000000E+01 0.  1.
</event>
<event>
11    1  0.8328696E-009  0.1395969E+03  0.7561462E-02  0.1108009E+00
         22   -1    0    0    0    0  0.00000000000E+00  0.00000000000E+00  0.57248677342E+03  0.57248677342E+03  0.00000000000E+00 0.  1.
         22   -1    0    0    0    0 -0.00000000000E+00 -0.00000000000E+00 -0.16106991729E+03  0.16106991729E+03  0.00000000000E+00 0. -1.
        -24    2    1    2    0    0  0.24079690663E+02  0.24732028058E+02 -0.11049875891E+03  0.14168094900E+03  0.81682377979E+02 0.  0.
         25    2    1    2    0    0  0.86627267341E+01 -0.75134569915E+02  0.16211778580E+03  0.21828966676E+03  0.12509178914E+03 0.  0.
         24    2    1    2    0    0 -0.32742417397E+02  0.50402541857E+02  0.35979782925E+03  0.37358607496E+03  0.80620067886E+02 0.  0.
        -11    1    5    5    0    0 -0.19617016709E+02  0.72360187606E+02  0.26990002753E+03  0.28011934770E+03  0.00000000000E+00 0.  1.
         12    1    5    5    0    0 -0.13125400688E+02 -0.21957645749E+02  0.89897801723E+02  0.93466727260E+02  0.00000000000E+00 0. -1.
         11    1    3    3    0    0 -0.21927879934E+02  0.14851307247E+02 -0.61148125654E+01  0.27180584579E+02  0.00000000000E+00 0. -1.
        -12    1    3    3    0    0  0.46007570597E+02  0.98807208108E+01 -0.10438394635E+03  0.11450036442E+03  0.00000000000E+00 0.  1.
          5    1    4    4  501    0 -0.40675741224E+02 -0.40051942955E+02  0.14400038059E+03  0.15495888509E+03  0.41800000000E+01 0. -1.
         -5    1    4    4    0  501  0.49338467958E+02 -0.35082626960E+02  0.18117405211E+02  0.63330781666E+02  0.41800000000E+01 0. -1.
</event>
<event>
11    1  0.8328696E-009  0.1345679E+03  0.7561462E-02  0.1113781E+00
         22   -1    0    0    0    0  0.00000000000E+00  0.00000000000E+00  0.45099239554E+03  0.45099239554E+03  0.00000000000E+00 0. -1.
         22   -1    0    0    0    0 -0.00000000000E+00 -0.00000000000E+00 -0.59960170637E+03  0.59960170637E+03  0.00000000000E+00 0.  1.
         24    2    1    2    0    0 -0.15661668030E+02 -0.56266815114E+02 -0.36650818089E+03  0.37928045646E+03  0.78193194492E+02 0.  0.
         25    2    1    2    0    0  0.35908950783E+02  0.11302672791E+02 -0.20209144498E+03  0.24063728717E+03  0.12509256047E+03 0.  0.
        -24    2    1    2    0    0 -0.20247282753E+02  0.44964142323E+02  0.41999031504E+03  0.43067635828E+03  0.81599842497E+02 0.  0.
        -13    1    3    3    0    0  0.17339062570E+00 -0.70649072799E+02 -0.21601951056E+03  0.22727901464E+03  0.00000000000E+00 0.  1.
         14    1    3    3    0    0 -0.15835058656E+02  0.14382257685E+02 -0.15048867033E+03  0.15200144182E+03  0.00000000000E+00 0. -1.
         13    1    5    5    0    0 -0.27577309371E+00  0.66123606848E+02  0.28138737092E+03  0.28905234811E+03  0.00000000000E+00 0. -1.
        -14    1    5    5    0    0 -0.19971509659E+02 -0.21159464524E+02  0.13860294412E+03  0.14162401017E+03  0.00000000000E+00 0.  1.
          5    1    4    4  501    0 -0.31984281314E+02  0.32719878942E+02 -0.31409408530E+02  0.55656159348E+02  0.41800000000E+01 0. -1.
         -5    1    4    4    0  501  0.67893232097E+02 -0.21417206151E+02 -0.17068203645E+03  0.18498112782E+03  0.41800000000E+01 0. -1.
</event>
<event>
11    1  0.8328696E-009  0.1522003E+03  0.7561462E-02  0.1094651E+00
         22   -1    0    0    0    0  0.00000000000E+00  0.00000000000E+00  0.33858608948E+03  0.33858608948E+03  0.00000000000E+00 0.  1.
         22   -1    0    0    0    0 -0.00000000000E+00 -0.00000000000E+00 -0.65692654031E+03  0.65692654031E+03  0.00000000000E+00 0. -1.
         24    2    1    2    0    0 -0.78598975343E+02  0.40263464300E+02 -0.54956449595E+03  0.56246298967E+03  0.80898294501E+02 0.  0.
         25    2    1    2    0    0  0.66478284214E+02 -0.30140554690E+02 -0.39322418693E+02  0.15007046282E+03  0.12508827240E+03 0.  0.
        -24    2    1    2    0    0  0.12120691128E+02 -0.10122909610E+02  0.27054646382E+03  0.28297917729E+03  0.81439801339E+02 0.  0.
        -13    1    3    3    0    0 -0.50690222540E+02 -0.74901430674E+00 -0.12320709367E+03  0.13322930464E+03  0.00000000000E+00 0.  1.
         14    1    3    3    0    0 -0.27908752803E+02  0.41012478607E+02 -0.42635740228E+03  0.42923368503E+03  0.00000000000E+00 0. -1.
         11    1    5    5    0    0  0.19929699729E+02 -0.27412733483E+02  0.43513879656E+02  0.55155313534E+02  0.00000000000E+00 0. -1.
        -12    1    5    5    0    0 -0.78090086009E+01  0.17289823873E+02  0.22703258416E+03  0.22782386376E+03  0.00000000000E+00 0.  1.
          5    1    4    4  501    0  0.60123409976E+02  0.75609998206E+01 -0.75750761173E+02  0.97096052256E+02  0.41800000000E+01 0.  1.
         -5    1    4    4    0  501  0.63548742387E+01 -0.37701554510E+02  0.36428342480E+02  0.52974410567E+02  0.41800000000E+01 0.  1.
</event>
<event>
11    1  0.8328696E-009  0.1380725E+03  0.7561462E-02  0.1109730E+00
         22   -1    0    0    0    0  0.00000000000E+00  0.00000000000E+00  0.65091005467E+03  0.65091005467E+03  0.00000000000E+00 0. -1.
         22   -1    0    0    0    0 -0.00000000000E+00 -0.00000000000E+00 -0.54021861508E+03  0.54021861508E+03  0.00000000000E+00 0.  1.
         24    2    1    2    0    0 -0.49539547942E+02  0.20089573780E+01 -0.50499939437E+03  0.51387115316E+03  0.81123184200E+02 0.  0.
         25    2    1    2    0    0 -0.16088490495E+02  0.13797280752E+02  0.13571597844E+03  0.18578406982E+03  0.12509072433E+03 0.  0.
        -24    2    1    2    0    0  0.65628038437E+02 -0.15806238130E+02  0.47997485552E+03  0.49147344678E+03  0.81322877217E+02 0.  0.
        -13    1    3    3    0    0 -0.63853325389E+02  0.16973682108E+02 -0.45470925602E+03  0.45948434201E+03  0.00000000000E+00 0.  1.
         14    1    3    3    0    0  0.14313777447E+02 -0.14964724730E+02 -0.50290138352E+02  0.54386811145E+02  0.00000000000E+00 0. -1.
         11    1    5    5    0    0  0.81072649512E+02 -0.27832910146E+02  0.37300466908E+03  0.38272696344E+03  0.00000000000E+00 0. -1.
        -12    1    5    5    0    0 -0.15444611075E+02  0.12026672016E+02  0.10697018644E+03  0.10874648334E+03  0.00000000000E+00 0.  1.
          5    1    4    4  501    0 -0.28416403011E+01 -0.54983079481E+02  0.74047566395E+02  0.92367355911E+02  0.41800000000E+01 0.  1.
         -5    1    4    4    0  501 -0.13246850194E+02  0.68780360234E+02  0.61668412041E+02  0.93416713909E+02  0.41800000000E+01 0.  1.
</event>
<event>
11    1  0.8328696E-009  0.3069689E+03  0.7561462E-02  0.9972842E-01
         22   -1    0    0    0    0  0.00000000000E+00  0.00000000000E+00  0.24810223923E+04  0.24810223923E+04  0.00000000000E+00 0.  1.
         22   -1    0    0    0    0 -0.00000000000E+00 -0.00000000000E+00 -0.21491299916E+04  0.21491299916E+04  0.00000000000E+00 0.  1.
        -24    2    1    2    0    0  0.41964416354E+02  0.69064508258E+02 -0.20520714391E+04  0.20552898021E+04  0.81780566189E+02 0.  0.
         25    2    1    2    0    0  0.13178748291E+03  0.16123862877E+03  0.86330694457E+02  0.25781719358E+03  0.12510347892E+03 0.  0.
         24    2    1    2    0    0 -0.17375189927E+03 -0.23030313703E+03  0.22976331454E+04  0.23170453882E+04  0.79699452114E+02 0.  0.
        -13    1    5    5    0    0 -0.13951905953E+03 -0.13647530292E+03  0.13248684159E+04  0.13391666796E+04  0.00000000000E+00 0.  1.
         14    1    5    5    0    0 -0.34232839735E+02 -0.93827834114E+02  0.97276472952E+03  0.97787870862E+03  0.00000000000E+00 0. -1.
         11    1    3    3    0    0 -0.13926787713E+02  0.27629328549E+02 -0.25472970850E+03  0.25660194778E+03  0.00000000000E+00 0. -1.
        -12    1    3    3    0    0  0.55891204067E+02  0.41435179709E+02 -0.17973417306E+04  0.17986878544E+04  0.00000000000E+00 0.  1.
          5    1    4    4  501    0  0.69516589010E+02  0.52986207964E+02  0.99106736833E+02  0.13221086214E+03  0.41800000000E+01 0. -1.
         -5    1    4    4    0  501  0.62270893901E+02  0.10825242081E+03 -0.12776042376E+02  0.12560633144E+03  0.41800000000E+01 0. -1.
</event>
<event>
11    1  0.8328696E-009  0.4329904E+03  0.7561462E-02  0.9557139E-01
         22   -1    0    0    0    0  0.00000000000E+00  0.00000000000E+00  0.35336985861E+03  0.35336985861E+03  0.00000000000E+00 0. -1.
         22   -1    0    0    0    0 -0.00000000000E+00 -0.00000000000E+00 -0.83659551055E+03  0.83659551055E+03  0.00000000000E+00 0. -1.
        -24    2    1    2    0    0 -0.17382222378E+03 -0.63955650409E+02 -0.14022915388E+03  0.24838388508E+03  0.87896803525E+02 0.  0.
         25    2    1    2    0    0 -0.35715143679E+02  0.42778662165E+03 -0.15112988241E+03  0.47198419391E+03  0.12510744502E+03 0.  0.
         24    2    1    2    0    0  0.20953736746E+03 -0.36383097124E+03 -0.19186661566E+03  0.46959729017E+03  0.86197057601E+02 0.  0.
        -11    1    5    5    0    0  0.18420321991E+02 -0.68917248182E+02 -0.48329005303E+01  0.71500015991E+02  0.00000000000E+00 0.  1.
         12    1    5    5    0    0  0.19111704547E+03 -0.29491372305E+03 -0.18703371513E+03  0.39809727418E+03  0.00000000000E+00 0. -1.
         11    1    3    3    0    0  0.88810434313E+00  0.97978046190E+01  0.34887904525E+01  0.10438264391E+02  0.00000000000E+00 0. -1.
        -12    1    3    3    0    0 -0.17471032812E+03 -0.73753455028E+02 -0.14371794433E+03  0.23794562068E+03  0.00000000000E+00 0.  1.
          5    1    4    4  501    0 -0.69825663336E+02  0.13679864007E+03 -0.41669811652E+02  0.15919590694E+03  0.41800000000E+01 0. -1.
         -5    1    4    4    0  501  0.34110519657E+02  0.29098798158E+03 -0.10946007075E+03  0.31278828697E+03  0.41800000000E+01 0. -1.
</event>
<event>
11    1  0.8328696E-009  0.1414601E+03  0.7561462E-02  0.1105939E+00
         22   -1    0    0    0    0  0.00000000000E+00  0.00000000000E+00  0.10313768327E+04  0.10313768327E+04  0.00000000000E+00 0.  1.
         22   -1    0    0    0    0 -0.00000000000E+00 -0.00000000000E+00 -0.10644516907E+04  0.10644516907E+04  0.00000000000E+00 0. -1.
        -24    2    1    2    0    0  0.20060128318E+02 -0.50046175081E+02 -0.10424884874E+04  0.10470317893E+04  0.81155980143E+02 0.  0.
         25    2    1    2    0    0  0.42513389365E+02  0.70445548486E+02  0.34634188260E+03  0.37731901593E+03  0.12508787534E+03 0.  0.
         24    2    1    2    0    0 -0.62573517683E+02 -0.20399373405E+02  0.66307174678E+03  0.67147771813E+03  0.82985571143E+02 0.  0.
        -13    1    5    5    0    0 -0.56133728723E+02 -0.49850289206E+02  0.50602834945E+03  0.51156694311E+03  0.00000000000E+00 0.  1.
         14    1    5    5    0    0 -0.64397889601E+01  0.29450915801E+02  0.15704339733E+03  0.15991077502E+03  0.00000000000E+00 0. -1.
         11    1    3    3    0    0  0.30408729634E+02 -0.42490824755E+02 -0.10184686560E+04  0.10198081017E+04  0.00000000000E+00 0. -1.
        -12    1    3    3    0    0 -0.10348601316E+02 -0.75553503264E+01 -0.24019831377E+02  0.27223687610E+02  0.00000000000E+00 0.  1.
          5    1    4    4  501    0  0.38631156466E+02 -0.99319160611E+01  0.27939175350E+02  0.48878207064E+02  0.41800000000E+01 0. -1.
         -5    1    4    4    0  501  0.38822328985E+01  0.80377464547E+02  0.31840270725E+03  0.32844080886E+03  0.41800000000E+01 0. -1.
</event>
<event>
11    1  0.8328696E-009  0.2260120E+03  0.7561462E-02  0.1037515E+00
         22   -1    0    0    0    0  0.00000000000E+00  0.00000000000E+00  0.19869056129E+04  0.19869056129E+04  0.00000000000E+00 0. -1.
         22   -1    0    0    0    0 -0.00000000000E+00 -0.00000000000E+00 -0.94028799851E+03  0.94028799851E+03  0.00000000000E+00 0. -1.
        -24    2    1    2    0    0  0.10202491499E+03 -0.30634371987E+02 -0.90788076941E+03  0.91757500511E+03  0.79679674389E+02 0.  0.
         25    2    1    2    0    0 -0.16328265977E+03  0.18425322209E+03  0.99381553271E+03  0.10314681638E+04  0.12508710163E+03 0.  0.
         24    2    1    2    0    0  0.61257744786E+02 -0.15361885010E+03  0.96068285108E+03  0.97815044252E+03  0.80718556968E+02 0.  0.
        -11    1    5    5    0    0  0.22625782133E+02 -0.46270711708E+02  0.13271513701E+03  0.14235944778E+03  0.00000000000E+00 0.  1.
         12    1    5    5    0    0  0.38631962653E+02 -0.10734813840E+03  0.82796771407E+03  0.83579099475E+03  0.00000000000E+00 0. -1.
         11    1    3    3    0    0  0.10955772851E+03 -0.90658454340E+01 -0.77178493249E+03  0.77957492741E+03  0.00000000000E+00 0. -1.
        -12    1    3    3    0    0 -0.75328135288E+01 -0.21568526553E+02 -0.13609583692E+03  0.13800007770E+03  0.00000000000E+00 0.  1.
          5    1    4    4  501    0 -0.97411825209E+02  0.63375780090E+02  0.25972386667E+03  0.28456899429E+03  0.41800000000E+01 0. -1.
         -5    1    4    4    0  501 -0.65870834562E+02  0.12087744200E+03  0.73409166603E+03  0.74689916948E+03  0.41800000000E+01 0. -1.
</event>
<event>
11    1  0.8328696E-009  0.2963949E+03  0.7561462E-02  0.1001729E+00
         22   -1    0    0    0    0  0.00000000000E+00  0.00000000000E+00  0.22895115673E+03  0.22895115673E+03  0.00000000000E+00 0.  1.
         22   -1    0    0    0    0 -0.00000000000E+00 -0.00000000000E+00 -0.53124233039E+03  0.53124233039E+03  0.00000000000E+00 0.  1.
         24    2    1    2    0    0  0.13389251251E+03 -0.24912529141E+03 -0.93966787459E+02  0.30862191141E+03  0.80169266754E+02 0.  0.
         25    2    1    2    0    0 -0.18128738276E+03  0.18318221594E+03 -0.15808715044E+03  0.32719879494E+03  0.12508662954E+03 0.  0.
        -24    2    1    2    0    0  0.47394870256E+02  0.65943075477E+02 -0.50237235764E+02  0.12437278076E+03  0.79687174677E+02 0.  0.
        -11    1    3    3    0    0  0.11491311417E+03 -0.24397013862E+03 -0.71973281671E+02  0.27911754804E+03  0.00000000000E+00 0.  1.
         12    1    3    3    0    0  0.18979398335E+02 -0.51551527933E+01 -0.21993505788E+02  0.29504363377E+02  0.00000000000E+00 0. -1.
         13    1    5    5    0    0  0.52190603310E+02  0.18487084493E+02 -0.52931846288E+02  0.76599032098E+02  0.00000000000E+00 0. -1.
        -14    1    5    5    0    0 -0.47957330536E+01  0.47455990984E+02  0.26946105243E+01  0.47773748667E+02  0.00000000000E+00 0.  1.
          5    1    4    4  501    0 -0.18604390797E+03  0.15820397810E+03 -0.17121096935E+03  0.29828091258E+03  0.41800000000E+01 0. -1.
         -5    1    4    4    0  501  0.47565252082E+01  0.24978237833E+02  0.13123818915E+02  0.28917882360E+02  0.41800000000E+01 0. -1.
</event>
<event>
11    1  0.8328696E-009  0.1943194E+03  0.7561462E-02  0.1058615E+00
         22   -1    0    0    0    0  0.00000000000E+00  0.00000000000E+00  0.40379965998E+03  0.40379965998E+03  0.00000000000E+00 0. -1.
         22   -1    0    0    0    0 -0.00000000000E+00 -0.00000000000E+00 -0.37733536576E+03  0.37733536576E+03  0.00000000000E+00 0. -1.
        -24    2    1    2    0    0  0.16027591913E+03  0.39603929007E+02 -0.27519695891E+03  0.33191442033E+03  0.84717027709E+02 0.  0.
         25    2    1    2    0    0 -0.35534212317E+02 -0.99103649521E+02  0.10398979392E+03  0.19379321697E+03  0.12513081199E+03 0.  0.
         24    2    1    2    0    0 -0.12474170681E+03  0.59499720514E+02  0.19767145921E+03  0.25542738845E+03  0.84073984218E+02 0.  0.
        -13    1    5    5    0    0 -0.43534440640E+02  0.63035737554E+02  0.68266355868E+02  0.10261114498E+03  0.00000000000E+00 0.  1.
         14    1    5    5    0    0 -0.81207266168E+02 -0.35360170398E+01  0.12940510334E+03  0.15281624346E+03  0.00000000000E+00 0. -1.
         13    1    3    3    0    0  0.11518860745E+03  0.20676353701E+02 -0.25188150109E+03  0.27774127796E+03  0.00000000000E+00 0. -1.
        -14    1    3    3    0    0  0.45087311676E+02  0.18927575307E+02 -0.23315457820E+02  0.54173142373E+02  0.00000000000E+00 0.  1.
          5    1    4    4  501    0  0.27967945188E+02 -0.48357452654E+02 -0.66783253416E+01  0.56415614989E+02  0.41800000000E+01 0.  1.
         -5    1    4    4    0  501 -0.63502157505E+02 -0.50746196867E+02  0.11066811926E+03  0.13737760198E+03  0.41800000000E+01 0.  1.
</event>
<event>
11    1  0.8328696E-009  0.2057399E+03  0.7561462E-02  0.1050537E+00
         22   -1    0    0    0    0  0.00000000000E+00  0.00000000000E+00  0.10360667956E+04  0.10360667956E+04  0.00000000000E+00 0.  1.
         22   -1    0    0    0    0 -0.00000000000E+00 -0.00000000000E+00 -0.29968630657E+03  0.29968630657E+03  0.00000000000E+00 0.  1.
         24    2    1    2    0    0 -0.31273308649E+02 -0.15208496859E+03 -0.16130194128E+03  0.23737683069E+03  0.78877030758E+02 0.  0.
         25    2    1    2    0    0  0.87080670597E+02  0.17776262874E+03  0.43576861312E+02  0.23817940181E+03  0.12509152345E+03 0.  0.
        -24    2    1    2    0    0 -0.55807361948E+02 -0.25677660149E+02  0.85410556900E+03  0.86019686967E+03  0.81661053820E+02 0.  0.
        -11    1    3    3    0    0  0.49452832493E+00 -0.13058153148E+03 -0.14652301368E+03  0.19626709979E+03  0.00000000000E+00 0.  1.
         12    1    3    3    0    0 -0.31767836974E+02 -0.21503437108E+02 -0.14778927606E+02  0.41109730900E+02  0.00000000000E+00 0. -1.
         11    1    5    5    0    0 -0.30684609658E+02  0.28713061733E+02  0.38217681301E+03  0.38448030065E+03  0.00000000000E+00 0. -1.
        -12    1    5    5    0    0 -0.25122752290E+02 -0.54390721883E+02  0.47192875599E+03  0.47571656902E+03  0.00000000000E+00 0.  1.
          5    1    4    4  501    0  0.48174371235E+02  0.12102746297E+03 -0.33717087000E+02  0.13462069378E+03  0.41800000000E+01 0.  1.
         -5    1    4    4    0  501  0.38906299363E+02  0.56735165764E+02  0.77293948312E+02  0.10355870804E+03  0.41800000000E+01 0.  1.
</event>
<event>
11    1  0.8328696E-009  0.1308946E+03  0.7561462E-02  0.1118175E+00
         22   -1    0    0    0    0  0.00000000000E+00  0.00000000000E+00  0.27532132212E+03  0.27532132212E+03  0.00000000000E+00 0.  1.
         22   -1    0    0    0    0 -0.00000000000E+00 -0.00000000000E+00 -0.97667646401E+03  0.97667646401E+03  0.00000000000E+00 0.  1.
         24    2    1    2    0    0 -0.14504568247E+02  0.37525835815E+02 -0.89776393817E+03  0.90189533344E+03  0.76266197849E+02 0.  0.
         25    2    1    2    0    0 -0.63248946647E+01  0.81642865150E+00 -0.84946619715E+01  0.12554309414E+03  0.12509291888E+03 0.  0.
        -24    2    1    2    0    0  0.20829462912E+02 -0.38342264467E+02  0.20490345826E+03  0.22455935855E+03  0.80854700162E+02 0.  0.
        -11    1    3    3    0    0 -0.34643292956E+01  0.51485278073E+02 -0.83672453990E+03  0.83831419594E+03  0.00000000000E+00 0.  1.
         12    1    3    3    0    0 -0.11040238951E+02 -0.13959442257E+02 -0.61039398273E+02  0.63581137500E+02  0.00000000000E+00 0. -1.
         11    1    5    5    0    0 -0.65378700411E+01  0.27918963117E+01 -0.51469718527E+01  0.87766593270E+01  0.00000000000E+00 0. -1.
        -12    1    5    5    0    0  0.27367332953E+02 -0.41134160779E+02  0.21005043011E+03  0.21578269923E+03  0.00000000000E+00 0.  1.
          5    1    4    4  501    0  0.54949934951E+02  0.23196654573E+02 -0.65107412878E+01  0.60145176753E+02  0.41800000000E+01 0. -1.
         -5    1    4    4    0  501 -0.61274829616E+02 -0.22380225921E+02 -0.19839206836E+01  0.65397917383E+02  0.41800000000E+01 0. -1.
</event>
<event>
11    1  0.8328696E-009  0.1409310E+03  0.7561462E-02  0.1106523E+00
         22   -1    0    0    0    0  0.00000000000E+00  0.00000000000E+00  0.17653352091E+03  0.17653352091E+03  0.00000000000E+00 0. -1.
         22   -1    0    0    0    0 -0.00000000000E+00 -0.00000000000E+00 -0.14994272116E+04  0.14994272116E+04  0.00000000000E+00 0.  1.
        -24    2    1    2    0    0  0.22132806267E+02 -0.62280522415E+02 -0.13984985147E+04  0.14024040385E+04  0.81057182550E+02 0.  0.
         25    2    1    2    0    0 -0.59327133899E+02  0.68617347960E+01 -0.11013962511E+02  0.13904181219E+03  0.12507807940E+03 0.  0.
         24    2    1    2    0    0  0.37194327632E+02  0.55418787619E+02  0.86618786586E+02  0.13451488181E+03  0.78337597680E+02 0.  0.
        -11    1    5    5    0    0 -0.14099526855E+02 -0.10248381177E+02  0.56359470467E+01  0.18319112244E+02  0.00000000000E+00 0.  1.
         12    1    5    5    0    0  0.51293854487E+02  0.65667168797E+02  0.80982839539E+02  0.11619576957E+03  0.00000000000E+00 0. -1.
         13    1    3    3    0    0 -0.19454405571E+01  0.18168964258E+02 -0.15502581769E+03  0.15609900753E+03  0.00000000000E+00 0. -1.
        -14    1    3    3    0    0  0.24078246824E+02 -0.80449486674E+02 -0.12434726970E+04  0.12463050309E+04  0.00000000000E+00 0.  1.
          5    1    4    4  501    0 -0.28095304999E+02 -0.52654071137E+02 -0.32843697988E+02  0.68249382912E+02  0.41800000000E+01 0.  1.
         -5    1    4    4    0  501 -0.31231828900E+02  0.59515805933E+02  0.21829735477E+02  0.70792429280E+02  0.41800000000E+01 0.  1.
</event>
<event>
11    1  0.8328696E-009  0.1612353E+03  0.7561462E-02  0.1085921E+00
         22   -1    0    0    0    0  0.00000000000E+00  0.00000000000E+00  0.11502955784E+04  0.11502955784E+04  0.00000000000E+00 0.  1.
         22   -1    0    0    0    0 -0.00000000000E+00 -0.00000000000E+00 -0.11675321534E+04  0.11675321534E+04  0.00000000000E+00 0. -1.
         24    2    1    2    0    0 -0.10531097171E+03 -0.49304122346E+01 -0.10627823712E+04  0.10710522042E+04  0.80819217147E+02 0.  0.
         25    2    1    2    0    0  0.57611754222E+02 -0.28562617116E+02 -0.46998170325E+02  0.14828952261E+03  0.12508404047E+03 0.  0.
        -24    2    1    2    0    0  0.47699217487E+02  0.33493029351E+02  0.10925439666E+04  0.10984860050E+04  0.98092741929E+02 0.  0.
        -13    1    3    3    0    0 -0.46029728631E+02  0.31621620807E+02 -0.30452309058E+03  0.30960131704E+03  0.00000000000E+00 0.  1.
         14    1    3    3    0    0 -0.59281243077E+02 -0.36552033042E+02 -0.75825928060E+03  0.76145088714E+03  0.00000000000E+00 0. -1.
         11    1    5    5    0    0 -0.59644682442E+01  0.32988245536E+02  0.12385399107E+03  0.12831060100E+03  0.00000000000E+00 0. -1.
        -12    1    5    5    0    0  0.53663685731E+02  0.50478381503E+00  0.96868997550E+03  0.97017540404E+03  0.00000000000E+00 0.  1.
          5    1    4    4  501    0  0.20652443978E+02  0.28416286844E+02  0.29388575026E+02  0.45990972400E+02  0.41800000000E+01 0.  1.
         -5    1    4    4    0  501  0.36959310244E+02 -0.56978903960E+02 -0.76386745350E+02  0.10229855021E+03  0.41800000000E+01 0.  1.
</event>
<event>
11    1  0.1811066E-008  0.1593283E+03  0.7561462E-02  0.1087711E+00
         22   -1    0    0    0    0  0.00000000000E+00  0.00000000000E+00  0.21978647253E+03  0.21978647253E+03  0.00000000000E+00 0.  1.
         22   -1    0    0    0    0 -0.00000000000E+00 -0.00000000000E+00 -0.11496476683E+04  0.11496476683E+04  0.00000000000E+00 0.  1.
        -24    2    1    2    0    0 -0.70178383357E+02  0.32155260163E+02 -0.56602265180E+03  0.58178948585E+03  0.11017439470E+03 0.  0.
         25    2    1    2    0    0  0.93042053352E+02 -0.13375946906E+03 -0.53431990953E+03  0.57244552699E+03  0.12509075262E+03 0.  0.
         24    2    1    2    0    0 -0.22863669995E+02  0.10160420890E+03  0.17048136557E+03  0.21519912798E+03  0.80003787446E+02 0.  0.
        -13    1    5    5    0    0 -0.89903007632E+01  0.11022533961E+03  0.16360537041E+03  0.19747700683E+03  0.00000000000E+00 0.  1.
         14    1    5    5    0    0 -0.13873369232E+02 -0.86211307145E+01  0.68759951658E+01  0.17722121153E+02  0.00000000000E+00 0. -1.
         13    1    3    3    0    0 -0.42900088920E+02  0.53200770441E+02 -0.15589792210E+03  0.17022015662E+03  0.00000000000E+00 0. -1.
        -14    1    3    3    0    0 -0.27278294437E+02 -0.21045510277E+02 -0.41012472971E+03  0.41156932923E+03  0.00000000000E+00 0.  1.
          5    1    4    4  501    0  0.49492140642E+02 -0.13017160718E+03 -0.26326510503E+03  0.29785920706E+03  0.41800000000E+01 0.  1.
         -5    1    4    4    0  501  0.43549912710E+02 -0.35878618801E+01 -0.27105480450E+03  0.27458631993E+03  0.41800000000E+01 0.  1.
</event>
<event>
11    1  0.8328696E-009  0.1358798E+03  0.7561462E-02  0.1112248E+00
         22   -1    0    0    0    0  0.00000000000E+00  0.00000000000E+00  0.26433789530E+04  0.26433789530E+04  0.00000000000E+00 0.  1.
         22   -1    0    0    0    0 -0.00000000000E+00 -0.00000000000E+00 -0.57385990383E+02  0.57385990383E+02  0.00000000000E+00 0. -1.
        -24    2    1    2    0    0 -0.94920680394E+01 -0.52650958787E+02 -0.88879390764E+01  0.97038084150E+02  0.80468450324E+02 0.  0.
         25    2    1    2    0    0  0.19161685638E+01  0.40363900747E+02  0.13164043857E+04  0.13229515387E+04  0.12508937144E+03 0.  0.
         24    2    1    2    0    0  0.75758994755E+01  0.12287058040E+02  0.12784765160E+04  0.12807753206E+04  0.75331624942E+02 0.  0.
        -13    1    5    5    0    0 -0.23729062934E+02  0.31746152897E+02  0.70937064251E+03  0.71047701941E+03  0.00000000000E+00 0.  1.
         14    1    5    5    0    0  0.31304962409E+02 -0.19459094857E+02  0.56910587351E+03  0.57029830116E+03  0.00000000000E+00 0. -1.
         13    1    3    3    0    0 -0.26393198856E+02 -0.66412094119E+02 -0.17545289841E+02  0.73586713385E+02  0.00000000000E+00 0. -1.
        -14    1    3    3    0    0  0.16901130817E+02  0.13761135332E+02  0.86573507647E+01  0.23451370765E+02  0.00000000000E+00 0.  1.
          5    1    4    4  501    0  0.40494470345E+02 -0.28800048108E+02  0.63294941140E+03  0.63491076121E+03  0.41800000000E+01 0. -1.
         -5    1    4    4    0  501 -0.38578301781E+02  0.69163948855E+02  0.68345497430E+03  0.68804077749E+03  0.41800000000E+01 0. -1.
</event>
<event>
11    1  0.1187330E-008  0.1742086E+03  0.7561462E-02  0.1074426E+00
         22   -1    0    0    0    0  0.00000000000E+00  0.00000000000E+00  0.72279760746E+03  0.72279760746E+03  0.00000000000E+00 0. -1.
         22   -1    0    0    0    0 -0.00000000000E+00 -0.00000000000E+00 -0.19845558497E+04  0.19845558497E+04  0.00000000000E+00 0.  1.
         24    2    1    2    0    0  0.15799046972E+02  0.11870353086E+03 -0.17066072508E+04  0.17124597783E+04  0.75299706403E+02 0.  0.
         25    2    1    2    0    0 -0.91483613770E+02 -0.12771424519E+03 -0.23336119691E+03  0.30787231385E+03  0.12509090054E+03 0.  0.
        -24    2    1    2    0    0  0.75684566798E+02  0.90107143242E+01  0.67821020543E+03  0.68702136502E+03  0.78866511455E+02 0.  0.
        -11    1    3    3    0    0  0.12149491965E+02  0.65588882242E+02 -0.13740209739E+04  0.13756391781E+04  0.00000000000E+00 0.  1.
         12    1    3    3    0    0  0.36495550076E+01  0.53114648622E+02 -0.33258627682E+03  0.33682060014E+03  0.00000000000E+00 0. -1.
         13    1    5    5    0    0  0.56377278022E+02 -0.15920874507E+02  0.59757540850E+03  0.60044003911E+03  0.00000000000E+00 0. -1.
        -14    1    5    5    0    0  0.19307288776E+02  0.24931588831E+02  0.80634796931E+02  0.86581325917E+02  0.00000000000E+00 0.  1.
          5    1    4    4  501    0 -0.48707249278E+02 -0.14570783565E+03 -0.16925582973E+03  0.22862234755E+03  0.41800000000E+01 0. -1.
         -5    1    4    4    0  501 -0.42776364492E+02  0.17993590460E+02 -0.64105367185E+02  0.79249966301E+02  0.41800000000E+01 0. -1.
</event>
<event>
11    1  0.8328696E-009  0.1384061E+03  0.7561462E-02  0.1109351E+00
         22   -1    0    0    0    0  0.00000000000E+00  0.00000000000E+00  0.10550555003E+04  0.10550555003E+04  0.00000000000E+00 0.  1.
         22   -1    0    0    0    0 -0.00000000000E+00 -0.00000000000E+00 -0.17823518248E+04  0.17823518248E+04  0.00000000000E+00 0. -1.
        -24    2    1    2    0    0 -0.42528346026E+02  0.29861963732E+01 -0.15892457781E+04  0.15918410465E+04  0.80238373598E+02 0.  0.
         25    2    1    2    0    0  0.54817029904E+02 -0.60781476144E+02 -0.16004996467E+03  0.21900554886E+03  0.12509254426E+03 0.  0.
         24    2    1    2    0    0 -0.12288683878E+02  0.57795279771E+02  0.10219994182E+04  0.10265607297E+04  0.76503691414E+02 0.  0.
        -13    1    5    5    0    0  0.36077158010E+01  0.73914963623E+02  0.79188144577E+03  0.79533179342E+03  0.00000000000E+00 0.  1.
         14    1    5    5    0    0 -0.15896399679E+02 -0.16119683852E+02  0.23011797246E+03  0.23122893629E+03  0.00000000000E+00 0. -1.
         13    1    3    3    0    0 -0.24880356881E+02  0.46715900058E+01 -0.15245518926E+04  0.15247620565E+04  0.00000000000E+00 0. -1.
        -14    1    3    3    0    0 -0.17647989144E+02 -0.16853936326E+01 -0.64693885520E+02  0.67078989976E+02  0.00000000000E+00 0.  1.
          5    1    4    4  501    0 -0.32808238024E+02 -0.38260465629E+02 -0.25046453530E+02  0.56436167011E+02  0.41800000000E+01 0.  1.
         -5    1    4    4    0  501  0.87625267928E+02 -0.22521010515E+02 -0.13500351114E+03  0.16256938185E+03  0.41800000000E+01 0.  1.
</event>
<event>
11    1  0.8328696E-009  0.1905527E+03  0.7561462E-02  0.1061413E+00
         22   -1    0    0    0    0  0.00000000000E+00  0.00000000000E+00  0.13998338421E+04  0.13998338421E+04  0.00000000000E+00 0. -1.
         22   -1    0    0    0    0 -0.00000000000E+00 -0.00000000000E+00 -0.26733232569E+03  0.26733232569E+03  0.00000000000E+00 0. -1.
         24    2    1    2    0    0  0.14390107254E+03 -0.14868556228E+02 -0.21009263320E+03  0.26828919041E+03  0.83135927988E+02 0.  0.
         25    2    1    2    0    0 -0.13730405499E+03 -0.61825142383E+02  0.35776486408E+03  0.40782086102E+03  0.12508958774E+03 0.  0.
        -24    2    1    2    0    0 -0.65970175537E+01  0.76693698610E+02  0.98482928549E+03  0.99105611633E+03  0.79862757958E+02 0.  0.
        -13    1    3    3    0    0  0.53622836649E+02 -0.45066814732E+02 -0.10776002695E+03  0.12852489957E+03  0.00000000000E+00 0.  1.
         14    1    3    3    0    0  0.90278235895E+02  0.30198258504E+02 -0.10233260625E+03  0.13976429084E+03  0.00000000000E+00 0. -1.
         13    1    5    5    0    0 -0.18377126967E+02  0.71747106996E+02  0.96238012323E+03  0.96522581179E+03  0.00000000000E+00 0. -1.
        -14    1    5    5    0    0  0.11780109413E+02  0.49465916137E+01  0.22449162254E+02  0.25830304533E+02  0.00000000000E+00 0.  1.
          5    1    4    4  501    0 -0.30753457801E+02 -0.34991151379E+02  0.17017820446E+02  0.49771823900E+02  0.41800000000E+01 0. -1.
         -5    1    4    4    0  501 -0.10655059719E+03 -0.26833991003E+02  0.34074704363E+03  0.35804903712E+03  0.41800000000E+01 0. -1.
</event>
<event>
11    1  0.8328696E-009  0.1320041E+03  0.7561462E-02  0.1116831E+00
         22   -1    0    0    0    0  0.00000000000E+00  0.00000000000E+00  0.20692056758E+04  0.20692056758E+04  0.00000000000E+00 0.  1.
         22   -1    0    0    0    0 -0.00000000000E+00 -0.00000000000E+00 -0.44696562214E+03  0.44696562214E+03  0.00000000000E+00 0. -1.
        -24    2    1    2    0    0 -0.42592440718E+02  0.19567611231E+02 -0.42742029289E+03  0.43739623098E+03  0.80189454982E+02 0.  0.
         25    2    1    2    0    0 -0.31027163549E+01 -0.14680439118E+02  0.28481812770E+03  0.31143780184E+03  0.12508795467E+03 0.  0.
         24    2    1    2    0    0  0.45695157073E+02 -0.48871721127E+01  0.17648422188E+04  0.17673372651E+04  0.81859754886E+02 0.  0.
        -13    1    5    5    0    0  0.98454280929E+01  0.64181309987E+01  0.14774966395E+04  0.14775433816E+04  0.00000000000E+00 0.  1.
         14    1    5    5    0    0  0.35849728980E+02 -0.11305303111E+02  0.28734557939E+03  0.28979388355E+03  0.00000000000E+00 0. -1.
         13    1    3    3    0    0 -0.52797537310E+02  0.31689268692E+02 -0.19625804174E+03  0.20569153761E+03  0.00000000000E+00 0. -1.
        -14    1    3    3    0    0  0.10205096592E+02 -0.12121657461E+02 -0.23116225114E+03  0.23170469337E+03  0.00000000000E+00 0.  1.
          5    1    4    4  501    0 -0.35229686728E+02  0.36782612113E+02  0.20395707252E+03  0.21026186343E+03  0.41800000000E+01 0. -1.
         -5    1    4    4    0  501  0.32126970373E+02 -0.51463051231E+02  0.80861055179E+02  0.10117593840E+03  0.41800000000E+01 0. -1.
</event>
<event>
11    1  0.8328696E-009  0.1582632E+03  0.7561462E-02  0.1088722E+00
         22   -1    0    0    0    0  0.00000000000E+00  0.00000000000E+00  0.64577625482E+03  0.64577625482E+03  0.00000000000E+00 0. -1.
         22   -1    0    0    0    0 -0.00000000000E+00 -0.00000000000E+00 -0.14131890370E+03  0.14131890370E+03  0.00000000000E+00 0. -1.
        -24    2    1    2    0    0  0.35798618665E+02  0.54612325798E+01 -0.74956546688E+02  0.11533799536E+03  0.79831091196E+02 0.  0.
         25    2    1    2    0    0 -0.11955156502E+02  0.91023221507E+02  0.12341794570E+03  0.19825704728E+03  0.12508283198E+03 0.  0.
         24    2    1    2    0    0 -0.23843462163E+02 -0.96484454086E+02  0.45599595211E+03  0.47350011589E+03  0.79951803222E+02 0.  0.
        -11    1    5    5    0    0 -0.21962209710E+01  0.13953623472E+02  0.35560823979E+02  0.38263549189E+02  0.00000000000E+00 0.  1.
         12    1    5    5    0    0 -0.21647241192E+02 -0.11043807756E+03  0.42043512813E+03  0.43523656670E+03  0.00000000000E+00 0. -1.
         13    1    3    3    0    0  0.56398333894E+01 -0.42278685152E+01 -0.82479356472E+02  0.82779990558E+02  0.00000000000E+00 0. -1.
        -14    1    3    3    0    0  0.30158785275E+02  0.96891010951E+01  0.75228097838E+01  0.32558004797E+02  0.00000000000E+00 0.  1.
          5    1    4    4  501    0 -0.37895361845E+02  0.66890128076E+02  0.13933460035E+03  0.15919155423E+03  0.41800000000E+01 0. -1.
         -5    1    4    4    0  501  0.25940205343E+02  0.24133093431E+02 -0.15916654656E+02  0.39065493050E+02  0.41800000000E+01 0. -1.
</event>
<event>
11    1  0.8328696E-009  0.1565947E+03  0.7561462E-02  0.1090325E+00
         22   -1    0    0    0    0  0.00000000000E+00  0.00000000000E+00  0.50758931858E+03  0.50758931858E+03  0.00000000000E+00 0.  1.
         22   -1    0    0    0    0 -0.00000000000E+00 -0.00000000000E+00 -0.43367223686E+03  0.43367223686E+03  0.00000000000E+00 0.  1.
         24    2    1    2    0    0  0.93789768751E+02 -0.50971985045E+01 -0.25763666125E+03  0.28643745072E+03  0.82748183082E+02 0.  0.
         25    2    1    2    0    0 -0.93794518760E+02  0.18394221131E+02 -0.11864982719E+03  0.19713845909E+03  0.12510008569E+03 0.  0.
        -24    2    1    2    0    0  0.47500091238E-02 -0.13297022626E+02  0.45020357016E+03  0.45768564563E+03  0.81339318928E+02 0.  0.
        -13    1    3    3    0    0  0.75171642324E+02 -0.18468347446E+02 -0.96648619562E+02  0.12382572968E+03  0.00000000000E+00 0.  1.
         14    1    3    3    0    0  0.18618126427E+02  0.13371148941E+02 -0.16098804169E+03  0.16261172105E+03  0.00000000000E+00 0. -1.
         11    1    5    5    0    0 -0.21631753942E+02  0.26520909186E+02  0.13646172574E+03  0.14068793124E+03  0.00000000000E+00 0. -1.
        -12    1    5    5    0    0  0.21636503951E+02 -0.39817931813E+02  0.31374184441E+03  0.31699771440E+03  0.00000000000E+00 0.  1.
          5    1    4    4  501    0  0.57990869677E+01 -0.40834883888E+02 -0.29593071433E+02  0.50934658423E+02  0.41800000000E+01 0.  1.
         -5    1    4    4    0  501 -0.99593605727E+02  0.59229105019E+02 -0.89056755758E+02  0.14620380067E+03  0.41800000000E+01 0.  1.
</event>
<event>
11    1  0.8328696E-009  0.3372147E+03  0.7561462E-02  0.9855655E-01
         22   -1    0    0    0    0  0.00000000000E+00  0.00000000000E+00  0.92452008150E+03  0.92452008150E+03  0.00000000000E+00 0. -1.
         22   -1    0    0    0    0 -0.00000000000E+00 -0.00000000000E+00 -0.23388655478E+04  0.23388655478E+04  0.00000000000E+00 0.  1.
        -24    2    1    2    0    0 -0.16769887910E+03 -0.25784387352E+03 -0.21104717064E+04  0.21342663300E+04  0.79972287491E+02 0.  0.
         25    2    1    2    0    0  0.16319258021E+03  0.41019411542E+03  0.51259887421E+02  0.46169739273E+03  0.12508347545E+03 0.  0.
         24    2    1    2    0    0  0.45062988866E+01 -0.15235024190E+03  0.64486635266E+03  0.66742190657E+03  0.79802792213E+02 0.  0.
        -13    1    5    5    0    0  0.32750458960E+02 -0.54160396807E+02  0.16330696634E+03  0.17514310263E+03  0.00000000000E+00 0.  1.
         14    1    5    5    0    0 -0.28244160073E+02 -0.98189845092E+02  0.48155938631E+03  0.49227880394E+03  0.00000000000E+00 0. -1.
         13    1    3    3    0    0 -0.43086574525E+01 -0.14255715977E+01 -0.17492547053E+03  0.17498433365E+03  0.00000000000E+00 0. -1.
        -14    1    3    3    0    0 -0.16339022164E+03 -0.25641830192E+03 -0.19355462359E+04  0.19592819964E+04  0.00000000000E+00 0.  1.
          5    1    4    4  501    0  0.11410430070E+03  0.13755713414E+03  0.46001114056E+02  0.18459504730E+03  0.41800000000E+01 0. -1.
         -5    1    4    4    0  501  0.49088279507E+02  0.27263698128E+03  0.52587733659E+01  0.27710234543E+03  0.41800000000E+01 0. -1.
</event>
<event>
11    1  0.8328696E-009  0.1461219E+03  0.7561462E-02  0.1100909E+00
         22   -1    0    0    0    0  0.00000000000E+00  0.00000000000E+00  0.99273498393E+02  0.99273498393E+02  0.00000000000E+00 0.  1.
         22   -1    0    0    0    0 -0.00000000000E+00 -0.00000000000E+00 -0.11806284445E+04  0.11806284445E+04  0.00000000000E+00 0.  1.
        -24    2    1    2    0    0  0.16737065094E+02 -0.28419075238E+02 -0.90704863133E+03  0.91145475854E+03  0.83215287543E+02 0.  0.
         25    2    1    2    0    0  0.61359504205E+02  0.24798970122E+02 -0.20786748962E+03  0.25146775169E+03  0.12508860548E+03 0.  0.
         24    2    1    2    0    0 -0.78096569299E+02  0.36201051160E+01  0.33561174859E+02  0.11697943265E+03  0.80284842332E+02 0.  0.
        -13    1    5    5    0    0 -0.17910391335E+02 -0.24669777600E+02  0.39856402142E+02  0.50178808638E+02  0.00000000000E+00 0.  1.
         14    1    5    5    0    0 -0.60186177964E+02  0.28289882716E+02 -0.62952272828E+01  0.66800624013E+02  0.00000000000E+00 0. -1.
         13    1    3    3    0    0 -0.25999176858E+02 -0.66925761826E+01 -0.12086523476E+03  0.12381095568E+03  0.00000000000E+00 0. -1.
        -14    1    3    3    0    0  0.42736241951E+02 -0.21726499056E+02 -0.78618339657E+03  0.78764380286E+03  0.00000000000E+00 0.  1.
          5    1    4    4  501    0 -0.26302774719E+02 -0.19975425572E+02 -0.18707461939E+02  0.38187630418E+02  0.41800000000E+01 0.  1.
         -5    1    4    4    0  501  0.87662278925E+02  0.44774395695E+02 -0.18916002769E+03  0.21328012127E+03  0.41800000000E+01 0.  1.
</event>
<event>
11    1  0.8328696E-009  0.1438418E+03  0.7561462E-02  0.1103343E+00
         22   -1    0    0    0    0  0.00000000000E+00  0.00000000000E+00  0.25117099351E+03  0.25117099351E+03  0.00000000000E+00 0. -1.
         22   -1    0    0    0    0 -0.00000000000E+00 -0.00000000000E+00 -0.57035034157E+03  0.57035034157E+03  0.00000000000E+00 0.  1.
        -24    2    1    2    0    0 -0.57296733213E+02  0.38892749719E+02 -0.46010487372E+03  0.47116181696E+03  0.74171431981E+02 0.  0.
         25    2    1    2    0    0  0.53108614837E+02 -0.86755071514E+02 -0.21478146960E+02  0.16265128193E+03  0.12508861384E+03 0.  0.
         24    2    1    2    0    0  0.41881183761E+01  0.47862321795E+02  0.16240367262E+03  0.18770823619E+03  0.80938784698E+02 0.  0.
        -13    1    5    5    0    0 -0.15626001610E+02 -0.15472328681E+02  0.16728885602E+02  0.27630065049E+02  0.00000000000E+00 0.  1.
         14    1    5    5    0    0  0.19814119986E+02  0.63334650476E+02  0.14567478702E+03  0.16007817114E+03  0.00000000000E+00 0. -1.
         13    1    3    3    0    0 -0.12418116943E+02  0.44500893464E+02 -0.12984940965E+03  0.13782383079E+03  0.00000000000E+00 0. -1.
        -14    1    3    3    0    0 -0.44878616270E+02 -0.56081437455E+01 -0.33025546407E+03  0.33333798617E+03  0.00000000000E+00 0.  1.
          5    1    4    4  501    0  0.12305403820E+02  0.69107368802E+01  0.40492886979E+02  0.43085119743E+02  0.41800000000E+01 0.  1.
         -5    1    4    4    0  501  0.40803211017E+02 -0.93665808394E+02 -0.61971033939E+02  0.11956616218E+03  0.41800000000E+01 0.  1.
</event>
<event>
11    1  0.8328696E-009  0.1283352E+03  0.7561462E-02  0.1121332E+00
         22   -1    0    0    0    0  0.00000000000E+00  0.00000000000E+00  0.20928703135E+04  0.20928703135E+04  0.00000000000E+00 0.  1.
         22   -1    0    0    0    0 -0.00000000000E+00 -0.00000000000E+00 -0.25549765670E+03  0.25549765670E+03  0.00000000000E+00 0. -1.
         24    2    1    2    0    0 -0.50900691972E+01 -0.20421348125E+02 -0.23488350882E+03  0.24916830667E+03  0.80446516829E+02 0.  0.
         25    2    1    2    0    0  0.26583300761E+01 -0.97358873407E+01  0.30408315331E+03  0.32896291333E+03  0.12509268563E+03 0.  0.
        -24    2    1    2    0    0  0.24317391210E+01  0.30157235465E+02  0.17681730123E+04  0.17702367502E+04  0.79918571666E+02 0.  0.
        -13    1    3    3    0    0 -0.41764517513E+02 -0.19475033876E+02 -0.11874710789E+03  0.12737514475E+03  0.00000000000E+00 0.  1.
         14    1    3    3    0    0  0.36674448316E+02 -0.94631424830E+00 -0.11613640093E+03  0.12179316192E+03  0.00000000000E+00 0. -1.
         13    1    5    5    0    0 -0.13201487043E+02  0.51424485686E+02  0.83232384986E+03  0.83401543633E+03  0.00000000000E+00 0. -1.
        -14    1    5    5    0    0  0.15633226164E+02 -0.21267250221E+02  0.93584916243E+03  0.93622131385E+03  0.00000000000E+00 0.  1.
          5    1    4    4  501    0 -0.60994400442E+02 -0.82522900367E+01  0.14974748149E+03  0.16195739498E+03  0.41800000000E+01 0. -1.
         -5    1    4    4    0  501  0.63652730518E+02 -0.14835973040E+01  0.15433567181E+03  0.16700551834E+03  0.41800000000E+01 0. -1.
</event>
<event>
11    1  0.8328696E-009  0.2254270E+03  0.7561462E-02  0.1037870E+00
         22   -1    0    0    0    0  0.00000000000E+00  0.00000000000E+00  0.26877929025E+02  0.26877929025E+02  0.00000000000E+00 0. -1.
         22   -1    0    0    0    0 -0.00000000000E+00 -0.00000000000E+00 -0.28781613616E+04  0.28781613616E+04  0.00000000000E+00 0.  1.
         24    2    1    2    0    0 -0.18785760320E+03  0.51372472815E+02 -0.17476009459E+04  0.17601246407E+04  0.77460149246E+02 0.  0.
         25    2    1    2    0    0  0.16452210580E+03 -0.53345576991E+02 -0.87964054144E+03  0.90516740671E+03  0.12508908079E+03 0.  0.
        -24    2    1    2    0    0  0.23335497403E+02  0.19731041758E+01 -0.22404194521E+03  0.23974724317E+03  0.82070145711E+02 0.  0.
        -13    1    3    3    0    0 -0.11838135484E+03  0.69613626104E+02 -0.10927519888E+04  0.11013478611E+04  0.00000000000E+00 0.  1.
         14    1    3    3    0    0 -0.69476248365E+02 -0.18241153289E+02 -0.65484895711E+03  0.65877677964E+03  0.00000000000E+00 0. -1.
         11    1    5    5    0    0  0.29270139153E+02  0.35454673546E+02 -0.16817100946E+03  0.17434237392E+03  0.00000000000E+00 0. -1.
        -12    1    5    5    0    0 -0.59346417502E+01 -0.33481569370E+02 -0.55870935751E+02  0.65404869252E+02  0.00000000000E+00 0.  1.
          5    1    4    4  501    0  0.91641089704E+02 -0.92016588294E+02 -0.49631626150E+03  0.51304234296E+03  0.41800000000E+01 0. -1.
         -5    1    4    4    0  501  0.72881016096E+02  0.38671011303E+02 -0.38332427994E+03  0.39212506374E+03  0.41800000000E+01 0. -1.
</event>
<event>
11    1  0.8328696E-009  0.1323011E+03  0.7561462E-02  0.1116474E+00
         22   -1    0    0    0    0  0.00000000000E+00  0.00000000000E+00  0.13904509567E+04  0.13904509567E+04  0.00000000000E+00 0.  1.
         22   -1    0    0    0    0 -0.00000000000E+00 -0.00000000000E+00 -0.34644752658E+02  0.34644752658E+02  0.00000000000E+00 0. -1.
         24    2    1    2    0    0  0.38936196924E+02 -0.44574398819E+02  0.11780915611E+03  0.15442044779E+03  0.80397593067E+02 0.  0.
         25    2    1    2    0    0 -0.95664362420E+01  0.45746200024E+01  0.26718817816E+03  0.29521133556E+03  0.12509103182E+03 0.  0.
        -24    2    1    2    0    0 -0.29369760682E+02  0.39999778817E+02  0.97080886976E+03  0.97546392600E+03  0.81224652475E+02 0.  0.
        -11    1    3    3    0    0  0.26907192246E+02  0.19828605205E+02  0.49892032851E+02  0.60053189099E+02  0.00000000000E+00 0.  1.
         12    1    3    3    0    0  0.12029004678E+02 -0.64403004025E+02  0.67917123256E+02  0.94367258688E+02  0.00000000000E+00 0. -1.
         11    1    5    5    0    0  0.75576017081E+01 -0.21529298817E+01  0.86969912321E+01  0.11721352616E+02  0.00000000000E+00 0. -1.
        -12    1    5    5    0    0 -0.36927362390E+02  0.42152708699E+02  0.96211187853E+03  0.96374257338E+03  0.00000000000E+00 0.  1.
          5    1    4    4  501    0 -0.59367085737E+01  0.15692454722E+02 -0.84836553411E+01  0.19259866351E+02  0.41800000000E+01 0.  1.
         -5    1    4    4    0  501 -0.36297276683E+01 -0.11117834720E+02  0.27567183350E+03  0.27595146921E+03  0.41800000000E+01 0.  1.
</event>
<event>
11    1  0.1003652E-008  0.1664678E+03  0.7561462E-02  0.1081147E+00
         22   -1    0    0    0    0  0.00000000000E+00  0.00000000000E+00  0.87160616557E+03  0.87160616557E+03  0.00000000000E+00 0. -1.
         22   -1    0    0    0    0 -0.00000000000E+00 -0.00000000000E+00 -0.36734135847E+03  0.36734135847E+03  0.00000000000E+00 0.  1.
         24    2    1    2    0    0 -0.14836509482E+02 -0.32799144659E+02 -0.28831866353E+03  0.30173972220E+03  0.81383673471E+02 0.  0.
         25    2    1    2    0    0  0.55221994444E+02 -0.71652254458E+02  0.24050585628E+02  0.15623417900E+03  0.12508866367E+03 0.  0.
        -24    2    1    2    0    0 -0.40385484962E+02  0.10445139912E+03  0.76853288500E+03  0.78097362284E+03  0.82072663338E+02 0.  0.
        -13    1    3    3    0    0 -0.16036869933E+02  0.24388541190E+01 -0.24653330304E+03  0.24706638523E+03  0.00000000000E+00 0.  1.
         14    1    3    3    0    0  0.12003604508E+01 -0.35237998778E+02 -0.41785360498E+02  0.54673336966E+02  0.00000000000E+00 0. -1.
         11    1    5    5    0    0 -0.10578821724E+02  0.10739301139E+03  0.63679002730E+03  0.64586895670E+03  0.00000000000E+00 0. -1.
        -12    1    5    5    0    0 -0.29806663238E+02 -0.29416122709E+01  0.13174285770E+03  0.13510466614E+03  0.00000000000E+00 0.  1.
          5    1    4    4  501    0  0.69197858313E+02 -0.87332448459E+02 -0.14193237378E+02  0.11240204863E+03  0.41800000000E+01 0. -1.
         -5    1    4    4    0  501 -0.13975863869E+02  0.15680194001E+02  0.38243823005E+02  0.43832130371E+02  0.41800000000E+01 0. -1.
</event>
<event>
11    1  0.8328696E-009  0.1438504E+03  0.7561462E-02  0.1103333E+00
         22   -1    0    0    0    0  0.00000000000E+00  0.00000000000E+00  0.59004866395E+03  0.59004866395E+03  0.00000000000E+00 0. -1.
         22   -1    0    0    0    0 -0.00000000000E+00 -0.00000000000E+00 -0.22692295735E+03  0.22692295735E+03  0.00000000000E+00 0.  1.
         24    2    1    2    0    0  0.13861829111E+02  0.34272718410E+02 -0.11607610779E+03  0.14504228350E+03  0.78719957260E+02 0.  0.
         25    2    1    2    0    0  0.34603293038E+02  0.20444283037E+02 -0.43037614044E+02  0.13825730930E+03  0.12508993067E+03 0.  0.
        -24    2    1    2    0    0 -0.48465122148E+02 -0.54717001447E+02  0.52223942843E+03  0.53367202849E+03  0.82030452111E+02 0.  0.
        -11    1    3    3    0    0  0.22558128376E+02  0.57320384418E+02 -0.73977426209E+02  0.96266064707E+02  0.00000000000E+00 0.  1.
         12    1    3    3    0    0 -0.86962992648E+01 -0.23047666008E+02 -0.42098681579E+02  0.48776218796E+02  0.00000000000E+00 0. -1.
         13    1    5    5    0    0 -0.39045480534E+02 -0.75404894331E+02  0.44996655365E+03  0.45790866671E+03  0.00000000000E+00 0. -1.
        -14    1    5    5    0    0 -0.94196416143E+01  0.20687892884E+02  0.72272874780E+02  0.75763361786E+02  0.00000000000E+00 0.  1.
          5    1    4    4  501    0  0.11909478176E+02  0.67546741526E+02 -0.50501693556E+02  0.85277731051E+02  0.41800000000E+01 0. -1.
         -5    1    4    4    0  501  0.22693814862E+02 -0.47102458489E+02  0.74640795125E+01  0.52979578251E+02  0.41800000000E+01 0. -1.
</event>
<event>
11    1  0.8328696E-009  0.1521860E+03  0.7561462E-02  0.1094666E+00
         22   -1    0    0    0    0  0.00000000000E+00  0.00000000000E+00  0.17501330053E+03  0.17501330053E+03  0.00000000000E+00 0. -1.
         22   -1    0    0    0    0 -0.00000000000E+00 -0.00000000000E+00 -0.10827111010E+04  0.10827111010E+04  0.00000000000E+00 0. -1.
        -24    2    1    2    0    0 -0.22269699128E+01  0.92509957253E+02 -0.83782725605E+03  0.84669036400E+03  0.79793545545E+02 0.  0.
         25    2    1    2    0    0 -0.17656262288E+02 -0.16438568115E+03 -0.15608513661E+03  0.25950738217E+03  0.12508843179E+03 0.  0.
         24    2    1    2    0    0  0.19883232200E+02  0.71875723899E+02  0.86214592234E+02  0.15152665531E+03  0.99829398210E+02 0.  0.
        -13    1    5    5    0    0  0.58930506566E+00  0.31794389480E+02 -0.19175045086E+02  0.37133715636E+02  0.00000000000E+00 0.  1.
         14    1    5    5    0    0  0.19293927135E+02  0.40081334419E+02  0.10538963732E+03  0.11439293967E+03  0.00000000000E+00 0. -1.
         13    1    3    3    0    0  0.14764941830E+02  0.31668974697E+02 -0.58671751427E+03  0.58775706633E+03  0.00000000000E+00 0. -1.
        -14    1    3    3    0    0 -0.16991911743E+02  0.60840982556E+02 -0.25110974178E+03  0.25893329767E+03  0.00000000000E+00 0.  1.
          5    1    4    4  501    0  0.28266074095E+02 -0.12628953816E+03 -0.52148010216E+02  0.13958834393E+03  0.41800000000E+01 0.  1.
         -5    1    4    4    0  501 -0.45922336383E+02 -0.38096142995E+02 -0.10393712639E+03  0.11991903824E+03  0.41800000000E+01 0.  1.
</event>
<event>
11    1  0.8328696E-009  0.1466168E+03  0.7561462E-02  0.1100387E+00
         22   -1    0    0    0    0  0.00000000000E+00  0.00000000000E+00  0.10792789852E+04  0.10792789852E+04  0.00000000000E+00 0. -1.
         22   -1    0    0    0    0 -0.00000000000E+00 -0.00000000000E+00 -0.28321970415E+03  0.28321970415E+03  0.00000000000E+00 0. -1.
        -24    2    1    2    0    0  0.21129649695E+02  0.12152764413E+02 -0.22684977033E+03  0.24154985746E+03  0.79318116215E+02 0.  0.
         25    2    1    2    0    0  0.48908999774E+02 -0.45070047918E+02  0.63915434868E+02  0.15542621101E+03  0.12509486311E+03 0.  0.
         24    2    1    2    0    0 -0.70038649469E+02  0.32917283506E+02  0.95899361655E+03  0.96552262092E+03  0.81093865102E+02 0.  0.
        -11    1    5    5    0    0 -0.85920528820E+02  0.20664061518E+02  0.66508084421E+03  0.67092612861E+03  0.00000000000E+00 0.  1.
         12    1    5    5    0    0  0.15881879351E+02  0.12253221988E+02  0.29391277234E+03  0.29459649232E+03  0.00000000000E+00 0. -1.
         11    1    3    3    0    0  0.29572481456E+02 -0.14865437093E+02 -0.19936940989E+03  0.20209818030E+03  0.00000000000E+00 0. -1.
        -12    1    3    3    0    0 -0.84428317608E+01  0.27018201506E+02 -0.27480360434E+02  0.39451677155E+02  0.00000000000E+00 0.  1.
          5    1    4    4  501    0  0.20629692027E+02  0.23186627611E+02  0.74366169631E+02  0.80690789305E+02  0.41800000000E+01 0. -1.
         -5    1    4    4    0  501  0.28279307747E+02 -0.68256675529E+02 -0.10450734764E+02  0.74735421709E+02  0.41800000000E+01 0. -1.
</event>
<event>
11    1  0.8328696E-009  0.1822728E+03  0.7561462E-02  0.1067819E+00
         22   -1    0    0    0    0  0.00000000000E+00  0.00000000000E+00  0.82849031088E+03  0.82849031088E+03  0.00000000000E+00 0. -1.
         22   -1    0    0    0    0 -0.00000000000E+00 -0.00000000000E+00 -0.14251423469E+04  0.14251423469E+04  0.00000000000E+00 0.  1.
         24    2    1    2    0    0 -0.67327805834E+02 -0.12474466786E+03 -0.12779807276E+04  0.12883445218E+04  0.80638707156E+02 0.  0.
         25    2    1    2    0    0 -0.10050310148E+02  0.76091992427E+02 -0.98040745182E+02  0.17649502947E+03  0.12508999826E+03 0.  0.
        -24    2    1    2    0    0  0.77378115982E+02  0.48652675433E+02  0.77936943680E+03  0.78879310648E+03  0.80146055112E+02 0.  0.
        -13    1    3    3    0    0 -0.78945147509E+01 -0.26482314840E+02 -0.60539862085E+03  0.60602898156E+03  0.00000000000E+00 0.  1.
         14    1    3    3    0    0 -0.59433291083E+02 -0.98262353020E+02 -0.67258210675E+03  0.68231554023E+03  0.00000000000E+00 0. -1.
         11    1    5    5    0    0  0.38717974629E+02  0.58365780096E+02  0.64043027094E+03  0.64424884772E+03  0.00000000000E+00 0. -1.
        -12    1    5    5    0    0  0.38660141353E+02 -0.97131046629E+01  0.13893916586E+03  0.14454425876E+03  0.00000000000E+00 0.  1.
          5    1    4    4  501    0 -0.45916431383E+02  0.36352392974E+02 -0.10700765751E+03  0.12205706171E+03  0.41800000000E+01 0. -1.
         -5    1    4    4    0  501  0.35866121234E+02  0.39739599453E+02  0.89669123327E+01  0.54437967760E+02  0.41800000000E+01 0. -1.
</event>
<event>
11    1  0.1148763E-008  0.1579530E+03  0.7561462E-02  0.1089019E+00
         22   -1    0    0    0    0  0.00000000000E+00  0.00000000000E+00  0.75546368826E+03  0.75546368826E+03  0.00000000000E+00 0. -1.
         22   -1    0    0    0    0 -0.00000000000E+00 -0.00000000000E+00 -0.15243864706E+04  0.15243864706E+04  0.00000000000E+00 0.  1.
         24    2    1    2    0    0  0.17664017691E+02  0.23362414903E+02 -0.12078948111E+04  0.12109688717E+04  0.81104338542E+02 0.  0.
         25    2    1    2    0    0 -0.75739213157E+02 -0.99727228080E+02 -0.28421588622E+03  0.33482568688E+03  0.12509045600E+03 0.  0.
        -24    2    1    2    0    0  0.58075195466E+02  0.76364813177E+02  0.72318791494E+03  0.73405560027E+03  0.81440474877E+02 0.  0.
        -11    1    3    3    0    0 -0.14816016946E+02  0.27573903331E+02 -0.10017119691E+04  0.10022009297E+04  0.00000000000E+00 0.  1.
         12    1    3    3    0    0  0.32480034637E+02 -0.42114884280E+01 -0.20618284195E+03  0.20876794198E+03  0.00000000000E+00 0. -1.
         11    1    5    5    0    0  0.29077249139E+02  0.47929953202E+02  0.62888978428E+03  0.63138350280E+03  0.00000000000E+00 0. -1.
        -12    1    5    5    0    0  0.28997946327E+02  0.28434859975E+02  0.94298130655E+02  0.10267209747E+03  0.00000000000E+00 0.  1.
          5    1    4    4  501    0  0.94118261806E+01  0.20755253898E+02 -0.14402000138E+02  0.27281001529E+02  0.41800000000E+01 0.  1.
         -5    1    4    4    0  501 -0.85151039338E+02 -0.12048248198E+03 -0.26981388608E+03  0.30754468535E+03  0.41800000000E+01 0.  1.
</event>
<event>
11    1  0.8328696E-009  0.1353094E+03  0.7561462E-02  0.1112912E+00
         22   -1    0    0    0    0  0.00000000000E+00  0.00000000000E+00  0.58780751896E+03  0.58780751896E+03  0.00000000000E+00 0. -1.
         22   -1    0    0    0    0 -0.00000000000E+00 -0.00000000000E+00 -0.28340728539E+03  0.28340728539E+03  0.00000000000E+00 0. -1.
         24    2    1    2    0    0  0.13430203955E+02  0.27115969014E+02 -0.25088253400E+03  0.26524279090E+03  0.80598052757E+02 0.  0.
         25    2    1    2    0    0  0.12104006043E+01  0.31055726997E+02  0.21112684200E+03  0.24736221675E+03  0.12509036580E+03 0.  0.
        -24    2    1    2    0    0 -0.14640604559E+02 -0.58171696012E+02  0.34415592556E+03  0.35860979670E+03  0.80990071424E+02 0.  0.
        -13    1    3    3    0    0  0.29606098796E+02  0.24110844060E+02 -0.46358239782E+02  0.60057807843E+02  0.00000000000E+00 0.  1.
         14    1    3    3    0    0 -0.16175894841E+02  0.30051249547E+01 -0.20452429421E+03  0.20518498306E+03  0.00000000000E+00 0. -1.
         13    1    5    5    0    0 -0.14245355984E+02 -0.78704965668E+02  0.26282579972E+03  0.27472677843E+03  0.00000000000E+00 0. -1.
        -14    1    5    5    0    0 -0.39524857579E+00  0.20533269657E+02  0.81330125844E+02  0.83883018269E+02  0.00000000000E+00 0.  1.
          5    1    4    4  501    0  0.59958301292E+02  0.20700285235E+02  0.72709991677E+02  0.96580096253E+02  0.41800000000E+01 0.  1.
         -5    1    4    4    0  501 -0.58747900687E+02  0.10355441762E+02  0.13841685032E+03  0.15078212050E+03  0.41800000000E+01 0.  1.
</event>
<event>
11    1  0.8328696E-009  0.1547359E+03  0.7561462E-02  0.1092136E+00
         22   -1    0    0    0    0  0.00000000000E+00  0.00000000000E+00  0.10474425460E+04  0.10474425460E+04  0.00000000000E+00 0.  1.
         22   -1    0    0    0    0 -0.00000000000E+00 -0.00000000000E+00 -0.10912271871E+03  0.10912271871E+03  0.00000000000E+00 0. -1.
        -24    2    1    2    0    0  0.63835549268E+02 -0.58050740958E+02 -0.11498921128E+02  0.12003697472E+03  0.82654608074E+02 0.  0.
         25    2    1    2    0    0 -0.78761621764E+02  0.70015596340E+02  0.12043087414E+03  0.20311768116E+03  0.12509044791E+03 0.  0.
         24    2    1    2    0    0  0.14926072496E+02 -0.11964855382E+02  0.82938787432E+03  0.83341060889E+03  0.79517617715E+02 0.  0.
        -11    1    5    5    0    0  0.21333241724E+02 -0.28789507283E+01  0.81472518789E+03  0.81500952592E+03  0.00000000000E+00 0.  1.
         12    1    5    5    0    0 -0.64071692278E+01 -0.90859046538E+01  0.14662686433E+02  0.18401082966E+02  0.00000000000E+00 0. -1.
         11    1    3    3    0    0  0.28639202506E+02 -0.49317931259E+01 -0.40645721779E+02  0.49966000466E+02  0.00000000000E+00 0. -1.
        -12    1    3    3    0    0  0.35196346762E+02 -0.53118947832E+02  0.29146800651E+02  0.70070974250E+02  0.00000000000E+00 0.  1.
          5    1    4    4  501    0 -0.10047483203E+03  0.76367446712E+02  0.12710233073E+03  0.17916376214E+03  0.41800000000E+01 0.  1.
         -5    1    4    4    0  501  0.21713210264E+02 -0.63518503720E+01 -0.66714565906E+01  0.23953919015E+02  0.41800000000E+01 0.  1.
</event>
<event>
11    1  0.8328696E-009  0.1344055E+03  0.7561462E-02  0.1113971E+00
         22   -1    0    0    0    0  0.00000000000E+00  0.00000000000E+00  0.27306299897E+03  0.27306299897E+03  0.00000000000E+00 0.  1.
         22   -1    0    0    0    0 -0.00000000000E+00 -0.00000000000E+00 -0.10699071106E+04  0.10699071106E+04  0.00000000000E+00 0. -1.
        -24    2    1    2    0    0 -0.44918361685E+02  0.24817883759E+02 -0.87544759378E+03  0.88103808139E+03  0.84770424268E+02 0.  0.
         25    2    1    2    0    0  0.44669091953E+02  0.22163101398E+02 -0.15837904334E+03  0.20788906859E+03  0.12508961839E+03 0.  0.
         24    2    1    2    0    0  0.24926973175E+00 -0.46980985157E+02  0.23698252554E+03  0.25404295955E+03  0.78548283165E+02 0.  0.
        -11    1    5    5    0    0 -0.62394810958E+01 -0.49825873595E+02  0.24081024682E+03  0.24599008878E+03  0.00000000000E+00 0.  1.
         12    1    5    5    0    0  0.64887508275E+01  0.28448884377E+01 -0.38277212834E+01  0.80528707768E+01  0.00000000000E+00 0. -1.
         11    1    3    3    0    0 -0.31941356509E+02 -0.13562641430E+02 -0.70453364288E+03  0.70538772987E+03  0.00000000000E+00 0. -1.
        -12    1    3    3    0    0 -0.12977005176E+02  0.38380525188E+02 -0.17091395090E+03  0.17565035152E+03  0.00000000000E+00 0.  1.
          5    1    4    4  501    0 -0.36541391267E+02  0.25111028587E+02 -0.94400248268E+02  0.10437775771E+03  0.41800000000E+01 0.  1.
         -5    1    4    4    0  501  0.81210483220E+02 -0.29479271885E+01 -0.63978795072E+02  0.10351131087E+03  0.41800000000E+01 0.  1.
</event>
<event>
11    1  0.8328696E-009  0.1561906E+03  0.7561462E-02  0.1090716E+00
         22   -1    0    0    0    0  0.00000000000E+00  0.00000000000E+00  0.15799065475E+04  0.15799065475E+04  0.00000000000E+00 0. -1.
         22   -1    0    0    0    0 -0.00000000000E+00 -0.00000000000E+00 -0.49498790935E+03  0.49498790935E+03  0.00000000000E+00 0. -1.
         24    2    1    2    0    0  0.10127181758E+03  0.21565784335E+02 -0.36860096506E+03  0.39096212866E+03  0.79143227818E+02 0.  0.
         25    2    1    2    0    0 -0.57623170047E+02  0.59723381284E+02 -0.62700420223E+02  0.16268191622E+03  0.12508697442E+03 0.  0.
        -24    2    1    2    0    0 -0.43648647532E+02 -0.81289165619E+02  0.15162200234E+04  0.15212504119E+04  0.82258881579E+02 0.  0.
        -11    1    3    3    0    0  0.77453720228E+02  0.50747998177E+02 -0.25661945732E+03  0.27281492623E+03  0.00000000000E+00 0.  1.
         12    1    3    3    0    0  0.23818097351E+02 -0.29182213843E+02 -0.11198150774E+03  0.11814720243E+03  0.00000000000E+00 0. -1.
         11    1    5    5    0    0 -0.40308914903E+02 -0.50571758644E+02  0.13823054131E+04  0.13838173892E+04  0.00000000000E+00 0. -1.
        -12    1    5    5    0    0 -0.33397326288E+01 -0.30717406975E+02  0.13391461024E+03  0.13743302275E+03  0.00000000000E+00 0.  1.
          5    1    4    4  501    0  0.14176145083E+02  0.32446930047E+02  0.26848444197E+02  0.44632697820E+02  0.41800000000E+01 0. -1.
         -5    1    4    4    0  501 -0.71799315130E+02  0.27276451237E+02 -0.89548864420E+02  0.11804921840E+03  0.41800000000E+01 0. -1.
</event>
<event>
11    1  0.8328696E-009  0.2129626E+03  0.7561462E-02  0.1045718E+00
         22   -1    0    0    0    0  0.00000000000E+00  0.00000000000E+00  0.33302679798E+03  0.33302679798E+03  0.00000000000E+00 0.  1.
         22   -1    0    0    0    0 -0.00000000000E+00 -0.00000000000E+00 -0.75087438408E+03  0.75087438408E+03  0.00000000000E+00 0.  1.
         24    2    1    2    0    0  0.12919817002E+03 -0.35408751461E+01 -0.56448953742E+03  0.58404248473E+03  0.75845113068E+02 0.  0.
         25    2    1    2    0    0  0.23129193615E+02  0.12487205476E+03 -0.75526922578E+02  0.19359748506E+03  0.12509068923E+03 0.  0.
        -24    2    1    2    0    0 -0.15232736364E+03 -0.12133117961E+03  0.22216887390E+03  0.30626121226E+03  0.80697216468E+02 0.  0.
        -11    1    3    3    0    0  0.65881581896E+02 -0.10238161895E+02 -0.43123161322E+03  0.43635525324E+03  0.00000000000E+00 0.  1.
         12    1    3    3    0    0  0.63316588127E+02  0.66972867491E+01 -0.13325792421E+03  0.14768723149E+03  0.00000000000E+00 0. -1.
         13    1    5    5    0    0 -0.61142487687E+02 -0.27861281607E+02  0.29197875577E+02  0.73260977004E+02  0.00000000000E+00 0. -1.
        -14    1    5    5    0    0 -0.91184875951E+02 -0.93469898007E+02  0.19297099833E+03  0.23300023526E+03  0.00000000000E+00 0.  1.
          5    1    4    4  501    0 -0.36901414945E+02  0.52914836598E+02  0.11477030572E+02  0.65657360500E+02  0.41800000000E+01 0. -1.
         -5    1    4    4    0  501  0.60030608560E+02  0.71957218162E+02 -0.87003953150E+02  0.12794012456E+03  0.41800000000E+01 0. -1.
</event>
<event>
11    1  0.8328696E-009  0.2997874E+03  0.7561462E-02  0.1000281E+00
         22   -1    0    0    0    0  0.00000000000E+00  0.00000000000E+00  0.31432845224E+04  0.31432845224E+04  0.00000000000E+00 0. -1.
         22   -1    0    0    0    0 -0.00000000000E+00 -0.00000000000E+00 -0.31242521240E+03  0.31242521240E+03  0.00000000000E+00 0.  1.
        -24    2    1    2    0    0 -0.63758887423E+02 -0.26579617972E+03 -0.20224700443E+03  0.35002023711E+03  0.83051253502E+02 0.  0.
         25    2    1    2    0    0  0.83472130937E+02  0.25248082408E+03  0.57384436278E+03  0.64471563391E+03  0.12508690073E+03 0.  0.
         24    2    1    2    0    0 -0.19713243514E+02  0.13315355643E+02  0.24592619517E+04  0.24609738638E+04  0.88640288245E+02 0.  0.
        -11    1    5    5    0    0  0.10873741333E+02 -0.31806613366E+02  0.12953634961E+04  0.12957995547E+04  0.00000000000E+00 0.  1.
         12    1    5    5    0    0 -0.30586984848E+02  0.45121969008E+02  0.11638984556E+04  0.11651743091E+04  0.00000000000E+00 0. -1.
         11    1    3    3    0    0  0.56812534785E+00  0.31545030967E+01 -0.16696988155E+02  0.17001854888E+02  0.00000000000E+00 0. -1.
        -12    1    3    3    0    0 -0.64327012771E+02 -0.26895068282E+03 -0.18555001628E+03  0.33301838222E+03  0.00000000000E+00 0.  1.
          5    1    4    4  501    0 -0.14573518444E+02 -0.46611976405E+01  0.15287730836E+02  0.22029555542E+02  0.41800000000E+01 0.  1.
         -5    1    4    4    0  501  0.98045649381E+02  0.25714202172E+03  0.55855663195E+03  0.62268607836E+03  0.41800000000E+01 0.  1.
</event>
<event>
11    1  0.8328696E-009  0.1792000E+03  0.7561462E-02  0.1070292E+00
         22   -1    0    0    0    0  0.00000000000E+00  0.00000000000E+00  0.60466740935E+03  0.60466740935E+03  0.00000000000E+00 0.  1.
         22   -1    0    0    0    0 -0.00000000000E+00 -0.00000000000E+00 -0.47739573802E+03  0.47739573802E+03  0.00000000000E+00 0.  1.
        -24    2    1    2    0    0  0.15298435082E+03  0.11952201241E+02 -0.35473212825E+03  0.39482103960E+03  0.80633143242E+02 0.  0.
         25    2    1    2    0    0 -0.61626403740E+02 -0.20292496793E+02 -0.43863473982E+02  0.14758630672E+03  0.12509242390E+03 0.  0.
         24    2    1    2    0    0 -0.91357947077E+02  0.83402955516E+01  0.52586727356E+03  0.53965580105E+03  0.79222213910E+02 0.  0.
        -11    1    5    5    0    0 -0.31659453754E+02 -0.25753209422E+01  0.38453448357E+03  0.38584416847E+03  0.00000000000E+00 0.  1.
         12    1    5    5    0    0 -0.59698493324E+02  0.10915616494E+02  0.14133279000E+03  0.15381163258E+03  0.00000000000E+00 0. -1.
         13    1    3    3    0    0  0.98230662885E+02 -0.31667700573E+02 -0.20375353697E+03  0.22840229906E+03  0.00000000000E+00 0. -1.
        -14    1    3    3    0    0  0.54753687932E+02  0.43619901815E+02 -0.15097859128E+03  0.16641874054E+03  0.00000000000E+00 0.  1.
          5    1    4    4  501    0 -0.40792064060E+02  0.17385691072E+02  0.35662219843E+02  0.57057173681E+02  0.41800000000E+01 0. -1.
         -5    1    4    4    0  501 -0.20834339680E+02 -0.37678187864E+02 -0.79525693825E+02  0.90529133040E+02  0.41800000000E+01 0. -1.
</event>
<event>
11    1  0.8328696E-009  0.1338309E+03  0.7561462E-02  0.1114650E+00
         22   -1    0    0    0    0  0.00000000000E+00  0.00000000000E+00  0.11926134230E+04  0.11926134230E+04  0.00000000000E+00 0. -1.
         22   -1    0    0    0    0 -0.00000000000E+00 -0.00000000000E+00 -0.14650334056E+03  0.14650334056E+03  0.00000000000E+00 0. -1.
        -24    2    1    2    0    0 -0.22394467355E+02 -0.38617772334E+02 -0.10365821572E+03  0.13821946695E+03  0.79791922198E+02 0.  0.
         25    2    1    2    0    0  0.38818878341E+02  0.82790438040E+02  0.23377702792E+03  0.28046522394E+03  0.12509149095E+03 0.  0.
         24    2    1    2    0    0 -0.16424410986E+02 -0.44172665705E+02  0.91599127025E+03  0.92043207269E+03  0.77033808046E+02 0.  0.
        -13    1    5    5    0    0 -0.37419583389E+02 -0.39049112756E+02  0.36184410346E+03  0.36586365443E+03  0.00000000000E+00 0.  1.
         14    1    5    5    0    0  0.20995172403E+02 -0.51235529498E+01  0.55414716679E+03  0.55456841825E+03  0.00000000000E+00 0. -1.
         13    1    3    3    0    0 -0.17427987936E+02  0.21687951369E+00 -0.96942331636E+02  0.98496687575E+02  0.00000000000E+00 0. -1.
        -14    1    3    3    0    0 -0.49664794184E+01 -0.38834651848E+02 -0.67158840872E+01  0.39722779372E+02  0.00000000000E+00 0.  1.
          5    1    4    4  501    0 -0.14095979851E+02 -0.10689896464E+02 -0.47886441047E+01  0.18798245842E+02  0.41800000000E+01 0.  1.
         -5    1    4    4    0  501  0.52914858192E+02  0.93480334504E+02  0.23856567203E+03  0.26166697810E+03  0.41800000000E+01 0.  1.
</event>
<event>
11    1  0.8328696E-009  0.1643165E+03  0.7561462E-02  0.1083086E+00
         22   -1    0    0    0    0  0.00000000000E+00  0.00000000000E+00  0.45975917308E+03  0.45975917308E+03  0.00000000000E+00 0.  1.
         22   -1    0    0    0    0 -0.00000000000E+00 -0.00000000000E+00 -0.31297772785E+03  0.31297772785E+03  0.00000000000E+00 0. -1.
        -24    2    1    2    0    0  0.30269976925E+02 -0.20129151069E+02 -0.19791524298E+03  0.21693769001E+03  0.81055929567E+02 0.  0.
         25    2    1    2    0    0  0.51532935303E+02  0.90007898059E+02 -0.23392903333E+02  0.16416930253E+03  0.12508903562E+03 0.  0.
         24    2    1    2    0    0 -0.81802912228E+02 -0.69878746990E+02  0.36808959155E+03  0.39162990839E+03  0.79430988999E+02 0.  0.
        -13    1    5    5    0    0 -0.85828726217E+02 -0.75828304220E+02  0.27010533905E+03  0.29338267868E+03  0.00000000000E+00 0.  1.
         14    1    5    5    0    0  0.40258139887E+01  0.59495572304E+01  0.97984252491E+02  0.98247229710E+02  0.00000000000E+00 0. -1.
         13    1    3    3    0    0  0.17638588359E+02  0.30411406345E+02 -0.10043464344E+03  0.10641001381E+03  0.00000000000E+00 0. -1.
        -14    1    3    3    0    0  0.12631388566E+02 -0.50540557413E+02 -0.97480599535E+02  0.11052767620E+03  0.00000000000E+00 0.  1.
          5    1    4    4  501    0 -0.10047558695E+02 -0.25915514829E+02 -0.16641709693E+02  0.32664755411E+02  0.41800000000E+01 0. -1.
         -5    1    4    4    0  501  0.61580493998E+02  0.11592341289E+03 -0.67511936406E+01  0.13150454712E+03  0.41800000000E+01 0. -1.
</event>
<event>
11    1  0.8328696E-009  0.1368534E+03  0.7561462E-02  0.1111124E+00
         22   -1    0    0    0    0  0.00000000000E+00  0.00000000000E+00  0.79800525613E+03  0.79800525613E+03  0.00000000000E+00 0.  1.
         22   -1    0    0    0    0 -0.00000000000E+00 -0.00000000000E+00 -0.59465876783E+03  0.59465876783E+03  0.00000000000E+00 0. -1.
        -24    2    1    2    0    0  0.53037555166E+02  0.37028399754E+02 -0.38445401686E+03  0.39799917436E+03  0.80089743851E+02 0.  0.
         25    2    1    2    0    0 -0.25438292248E+02 -0.12172055953E+02 -0.18062613279E+03  0.22151083093E+03  0.12508390271E+03 0.  0.
         24    2    1    2    0    0 -0.27599262919E+02 -0.24856343802E+02  0.76842663794E+03  0.77315401866E+03  0.76864045796E+02 0.  0.
        -11    1    5    5    0    0 -0.15165862694E+02  0.26943070424E+02  0.34678760133E+03  0.34816314117E+03  0.00000000000E+00 0.  1.
         12    1    5    5    0    0 -0.12433400225E+02 -0.51799414226E+02  0.42163903661E+03  0.42499087749E+03  0.00000000000E+00 0. -1.
         13    1    3    3    0    0  0.90160911089E+01 -0.30891155259E+01 -0.25847479435E+03  0.25865044336E+03  0.00000000000E+00 0. -1.
        -14    1    3    3    0    0  0.44021464057E+02  0.40117515280E+02 -0.12597922250E+03  0.13934873100E+03  0.00000000000E+00 0.  1.
          5    1    4    4  501    0 -0.39561794099E+02 -0.12518231972E+02 -0.19589948469E+03  0.20028959580E+03  0.41800000000E+01 0. -1.
         -5    1    4    4    0  501  0.14123501851E+02  0.34617601907E+00  0.15273351902E+02  0.21221235136E+02  0.41800000000E+01 0. -1.
</event>
<event>
11    1  0.8328696E-009  0.2766819E+03  0.7561462E-02  0.1010573E+00
         22   -1    0    0    0    0  0.00000000000E+00  0.00000000000E+00  0.21506843851E+04  0.21506843851E+04  0.00000000000E+00 0.  1.
         22   -1    0    0    0    0 -0.00000000000E+00 -0.00000000000E+00 -0.39412322519E+03  0.39412322519E+03  0.00000000000E+00 0. -1.
         24    2    1    2    0    0  0.21999639012E+03 -0.88189936202E+02 -0.23448859698E+03  0.34788837226E+03  0.99325429391E+02 0.  0.
         25    2    1    2    0    0 -0.27579745305E+03  0.88186227528E+02  0.14304181616E+03  0.34633795759E+03  0.12509186169E+03 0.  0.
        -24    2    1    2    0    0  0.55801062929E+02  0.37086733264E-02  0.18480079407E+04  0.18505812804E+04  0.80024795786E+02 0.  0.
        -11    1    3    3    0    0 -0.56129401230E+01  0.59295434450E+01 -0.23825678098E+02  0.25185859508E+02  0.00000000000E+00 0.  1.
         12    1    3    3    0    0  0.22560933025E+03 -0.94119479647E+02 -0.21066291888E+03  0.32270251275E+03  0.00000000000E+00 0. -1.
         11    1    5    5    0    0 -0.14128224775E+02 -0.13111812813E+02  0.17444633900E+03  0.17550798147E+03  0.00000000000E+00 0. -1.
        -12    1    5    5    0    0  0.69929287703E+02  0.13115521486E+02  0.16735616017E+04  0.16750732990E+04  0.00000000000E+00 0.  1.
          5    1    4    4  501    0 -0.69836400091E+02 -0.30288584494E+02  0.49786864389E+02  0.91053420550E+02  0.41800000000E+01 0. -1.
         -5    1    4    4    0  501 -0.20596105296E+03  0.11847481202E+03  0.93254951770E+02  0.25528453704E+03  0.41800000000E+01 0. -1.
</event>
<event>
11    1  0.8328696E-009  0.1586236E+03  0.7561462E-02  0.1088379E+00
         22   -1    0    0    0    0  0.00000000000E+00  0.00000000000E+00  0.11596089451E+04  0.11596089451E+04  0.00000000000E+00 0.  1.
         22   -1    0    0    0    0 -0.00000000000E+00 -0.00000000000E+00 -0.15350356258E+04  0.15350356258E+04  0.00000000000E+00 0. -1.
        -24    2    1    2    0    0 -0.71291433427E+02 -0.50196296160E+02 -0.14673652718E+04  0.14720894627E+04  0.79274262638E+02 0.  0.
         25    2    1    2    0    0  0.16163708614E+03  0.23677483889E+02  0.11117292276E+03  0.23386923319E+03  0.12509287997E+03 0.  0.
         24    2    1    2    0    0 -0.90345652712E+02  0.26518812271E+02  0.98076566835E+03  0.98868587493E+03  0.82054120533E+02 0.  0.
        -13    1    5    5    0    0 -0.39871448986E+02  0.47969167989E+02  0.68845071518E+03  0.69127068559E+03  0.00000000000E+00 0.  1.
         14    1    5    5    0    0 -0.50474203726E+02 -0.21450355718E+02  0.29231495317E+03  0.29741518934E+03  0.00000000000E+00 0. -1.
         13    1    3    3    0    0 -0.39324367393E+02 -0.48822081254E+02 -0.13102696263E+04  0.13117684609E+04  0.00000000000E+00 0. -1.
        -14    1    3    3    0    0 -0.31967066034E+02 -0.13742149066E+01 -0.15709564553E+03  0.16032100181E+03  0.00000000000E+00 0.  1.
          5    1    4    4  501    0  0.17952085865E+03  0.21951547676E+02  0.11587199884E+03  0.21483342769E+03  0.41800000000E+01 0.  1.
         -5    1    4    4    0  501 -0.17883772512E+02  0.17259362137E+01 -0.46990760853E+01  0.19035805503E+02  0.41800000000E+01 0.  1.
</event>
<event>
11    1  0.8328696E-009  0.2141923E+03  0.7561462E-02  0.1044918E+00
         22   -1    0    0    0    0  0.00000000000E+00  0.00000000000E+00  0.28849540874E+04  0.28849540874E+04  0.00000000000E+00 0.  1.
         22   -1    0    0    0    0 -0.00000000000E+00 -0.00000000000E+00 -0.11034057075E+03  0.11034057075E+03  0.00000000000E+00 0. -1.
         24    2    1    2    0    0 -0.15658774637E+03 -0.71951173819E+02 -0.63702554067E+01  0.18970774467E+03  0.79068037196E+02 0.  0.
         25    2    1    2    0    0  0.19693260451E+03  0.39162719450E+02  0.12884262441E+04  0.13099643149E+04  0.12509256791E+03 0.  0.
        -24    2    1    2    0    0 -0.40344858134E+02  0.32788454369E+02  0.14925575280E+04  0.14956225986E+04  0.80350437152E+02 0.  0.
        -13    1    3    3    0    0 -0.32348270640E+02  0.24365079502E+01  0.25706983331E+02  0.41390774049E+02  0.00000000000E+00 0.  1.
         14    1    3    3    0    0 -0.12423947573E+03 -0.74387681769E+02 -0.32077238738E+02  0.14831697062E+03  0.00000000000E+00 0. -1.
         13    1    5    5    0    0  0.14317512726E+02  0.37372101115E+02  0.53466527356E+03  0.53616100181E+03  0.00000000000E+00 0. -1.
        -14    1    5    5    0    0 -0.54662370860E+02 -0.45836467457E+01  0.95789225443E+03  0.95946159678E+03  0.00000000000E+00 0.  1.
          5    1    4    4  501    0  0.19726318418E+03  0.58889592081E+02  0.10081204760E+04  0.10289339699E+04  0.41800000000E+01 0. -1.
         -5    1    4    4    0  501 -0.33057966984E+00 -0.19726872630E+02  0.28030576812E+03  0.28103034503E+03  0.41800000000E+01 0. -1.
</event>
<event>
11    1  0.8328696E-009  0.1659660E+03  0.7561462E-02  0.1081597E+00
         22   -1    0    0    0    0  0.00000000000E+00  0.00000000000E+00  0.16458408904E+03  0.16458408904E+03  0.00000000000E+00 0.  1.
         22   -1    0    0    0    0 -0.00000000000E+00 -0.00000000000E+00 -0.71344843789E+03  0.71344843789E+03  0.00000000000E+00 0. -1.
        -24    2    1    2    0    0 -0.40779396675E+02  0.72218013489E+01 -0.43603662920E+03  0.44497834967E+03  0.78502713757E+02 0.  0.
         25    2    1    2    0    0  0.58749469891E+02 -0.11287657466E+03 -0.20452274468E+03  0.27142141448E+03  0.12508960718E+03 0.  0.
         24    2    1    2    0    0 -0.17970073216E+02  0.10565477331E+03  0.91695025020E+02  0.16163276278E+03  0.78938696052E+02 0.  0.
        -11    1    5    5    0    0 -0.19207148645E+02  0.84867219393E+02  0.10542012031E+03  0.13669221358E+03  0.00000000000E+00 0.  1.
         12    1    5    5    0    0  0.12370754285E+01  0.20787553921E+02 -0.13725095291E+02  0.24940549200E+02  0.00000000000E+00 0. -1.
         13    1    3    3    0    0 -0.54177542758E+02  0.78989969222E+01 -0.42209310594E+03  0.42562917002E+03  0.00000000000E+00 0. -1.
        -14    1    3    3    0    0  0.13398146083E+02 -0.67719557328E+00 -0.13943523258E+02  0.19349179651E+02  0.00000000000E+00 0.  1.
          5    1    4    4  501    0 -0.20974323316E+01 -0.10248698330E+03 -0.72513003045E+02  0.12563275441E+03  0.41800000000E+01 0.  1.
         -5    1    4    4    0  501  0.60846902223E+02 -0.10389591358E+02 -0.13200974163E+03  0.14578866007E+03  0.41800000000E+01 0.  1.
</event>
<event>
11    1  0.8328696E-009  0.2049266E+04  0.7561462E-02  0.8047082E-01
         22   -1    0    0    0    0  0.00000000000E+00  0.00000000000E+00  0.28570949287E+04  0.28570949287E+04  0.00000000000E+00 0. -1.
         22   -1    0    0    0    0 -0.00000000000E+00 -0.00000000000E+00 -0.28524586575E+04  0.28524586575E+04  0.00000000000E+00 0. -1.
         24    2    1    2    0    0 -0.21211952796E+04 -0.16013321805E+03 -0.17506776633E+04  0.27561629140E+04  0.80309813231E+02 0.  0.
         25    2    1    2    0    0  0.17317600100E+04  0.52300306091E+03  0.11687067462E+04  0.21573240644E+04  0.12508687586E+03 0.  0.
        -24    2    1    2    0    0  0.38943526964E+03 -0.36286984286E+03  0.58660718823E+03  0.79606660775E+03  0.79244549334E+02 0.  0.
        -11    1    3    3    0    0 -0.20404678481E+04 -0.14737299192E+03 -0.16643941098E+04  0.26373159824E+04  0.00000000000E+00 0.  1.
         12    1    3    3    0    0 -0.80727431443E+02 -0.12760226131E+02 -0.86283553486E+02  0.11884693164E+03  0.00000000000E+00 0. -1.
         13    1    5    5    0    0  0.65051329505E+02 -0.10371429700E+03  0.14881085352E+03  0.19269925012E+03  0.00000000000E+00 0. -1.
        -14    1    5    5    0    0  0.32438394013E+03 -0.25915554585E+03  0.43779633471E+03  0.60336735762E+03  0.00000000000E+00 0.  1.
          5    1    4    4  501    0  0.10932093014E+04  0.39181942234E+03  0.76037378975E+03  0.13880975502E+04  0.41800000000E+01 0. -1.
         -5    1    4    4    0  501  0.63855070854E+03  0.13118363857E+03  0.40833295645E+03  0.76922651419E+03  0.41800000000E+01 0. -1.
</event>
<event>
11    1  0.8328696E-009  0.2106423E+03  0.7561462E-02  0.1047243E+00
         22   -1    0    0    0    0  0.00000000000E+00  0.00000000000E+00  0.11685116936E+04  0.11685116936E+04  0.00000000000E+00 0.  1.
         22   -1    0    0    0    0 -0.00000000000E+00 -0.00000000000E+00 -0.41176372885E+03  0.41176372885E+03  0.00000000000E+00 0.  1.
        -24    2    1    2    0    0  0.14317096568E+03 -0.55828989145E+02 -0.15141119834E+03  0.23021423578E+03  0.80364431977E+02 0.  0.
         25    2    1    2    0    0 -0.17756239454E+03  0.78050582662E+02 -0.15830027214E+03  0.27986880636E+03  0.12508906908E+03 0.  0.
         24    2    1    2    0    0  0.34391428857E+02 -0.22221593517E+02  0.10664594352E+04  0.10701923803E+04  0.79368975521E+02 0.  0.
        -13    1    5    5    0    0  0.39701344785E+02  0.24284899890E+01  0.95859375097E+03  0.95941861236E+03  0.00000000000E+00 0.  1.
         14    1    5    5    0    0 -0.53099159284E+01 -0.24650083506E+02  0.10786568422E+03  0.11077376791E+03  0.00000000000E+00 0. -1.
         11    1    3    3    0    0  0.64656531164E+02 -0.54650955425E+02 -0.39293425870E+02  0.93333634171E+02  0.00000000000E+00 0. -1.
        -12    1    3    3    0    0  0.78514434519E+02 -0.11780337191E+01 -0.11211777247E+03  0.13688060161E+03  0.00000000000E+00 0.  1.
          5    1    4    4  501    0 -0.73472487110E+02  0.72565060519E+02 -0.13990848466E+03  0.17394180306E+03  0.41800000000E+01 0. -1.
         -5    1    4    4    0  501 -0.10408990743E+03  0.54855221433E+01 -0.18391787483E+02  0.10592700330E+03  0.41800000000E+01 0. -1.
</event>
<event>
11    1  0.8328696E-009  0.2235725E+03  0.7561462E-02  0.1039002E+00
         22   -1    0    0    0    0  0.00000000000E+00  0.00000000000E+00  0.16483217647E+04  0.16483217647E+04  0.00000000000E+00 0. -1.
         22   -1    0    0    0    0 -0.00000000000E+00 -0.00000000000E+00 -0.15330646625E+03  0.15330646625E+03  0.00000000000E+00 0. -1.
        -24    2    1    2    0    0 -0.16909254341E+03  0.71297647659E+02 -0.59156501094E+02  0.21027458489E+03  0.83906296734E+02 0.  0.
         25    2    1    2    0    0  0.18091954520E+03 -0.10873486347E+03  0.98982128627E+03  0.10197792499E+04  0.12509351453E+03 0.  0.
         24    2    1    2    0    0 -0.11827001794E+02  0.37437215816E+02  0.56435051327E+03  0.57157439617E+03  0.81635564715E+02 0.  0.
        -13    1    5    5    0    0 -0.78833902990E+01 -0.12839033778E+02  0.20766801523E+02  0.25656357427E+02  0.00000000000E+00 0.  1.
         14    1    5    5    0    0 -0.39436114946E+01  0.50276249593E+02  0.54358371174E+03  0.54591803874E+03  0.00000000000E+00 0. -1.
         13    1    3    3    0    0 -0.13780145543E+03  0.57394455121E+02 -0.90031193883E+01  0.14954738632E+03  0.00000000000E+00 0. -1.
        -14    1    3    3    0    0 -0.31291087980E+02  0.13903192538E+02 -0.50153381706E+02  0.60727198571E+02  0.00000000000E+00 0.  1.
          5    1    4    4  501    0  0.14905672176E+03 -0.95498764254E+02  0.53313659715E+03  0.56177399717E+03  0.41800000000E+01 0.  1.
         -5    1    4    4    0  501  0.31862823442E+02 -0.13236099221E+02  0.45668468912E+03  0.45800525272E+03  0.41800000000E+01 0.  1.
</event>
<event>
11    1  0.8328696E-009  0.2171674E+03  0.7561462E-02  0.1043006E+00
         22   -1    0    0    0    0  0.00000000000E+00  0.00000000000E+00  0.16170369955E+04  0.16170369955E+04  0.00000000000E+00 0.  1.
         22   -1    0    0    0    0 -0.00000000000E+00 -0.00000000000E+00 -0.31650095926E+03  0.31650095926E+03  0.00000000000E+00 0.  1.
         24    2    1    2    0    0  0.16709754404E+03  0.49630955368E+02 -0.24763962158E+03  0.31314561889E+03  0.79686733514E+02 0.  0.
         25    2    1    2    0    0 -0.21826175880E+03 -0.56181596148E+02  0.45286904720E+03  0.52108801633E+03  0.12509108581E+03 0.  0.
        -24    2    1    2    0    0  0.51164214759E+02  0.65506407804E+01  0.10953066107E+04  0.10993043196E+04  0.78183936482E+02 0.  0.
        -13    1    3    3    0    0  0.13101097534E+03  0.52215012244E+02 -0.23637852162E+03  0.27525458878E+03  0.00000000000E+00 0.  1.
         14    1    3    3    0    0  0.36086568697E+02 -0.25840568764E+01 -0.11261099966E+02  0.37891030109E+02  0.00000000000E+00 0. -1.
         13    1    5    5    0    0  0.49147675583E+02  0.23388255847E+02  0.38849056065E+03  0.39228487129E+03  0.00000000000E+00 0. -1.
        -14    1    5    5    0    0  0.20165391756E+01 -0.16837615067E+02  0.70681605001E+03  0.70701944830E+03  0.00000000000E+00 0.  1.
          5    1    4    4  501    0 -0.22675804498E+03 -0.47683450237E+02  0.36539672925E+03  0.43269523286E+03  0.41800000000E+01 0. -1.
         -5    1    4    4    0  501  0.84962861794E+01 -0.84981459112E+01  0.87472317948E+02  0.88392783472E+02  0.41800000000E+01 0. -1.
</event>
<event>
11    1  0.8328696E-009  0.1407200E+03  0.7561462E-02  0.1106757E+00
         22   -1    0    0    0    0  0.00000000000E+00  0.00000000000E+00  0.52613482239E+03  0.52613482239E+03  0.00000000000E+00 0.  1.
         22   -1    0    0    0    0 -0.00000000000E+00 -0.00000000000E+00 -0.54521995491E+03  0.54521995491E+03  0.00000000000E+00 0. -1.
         24    2    1    2    0    0 -0.10043050882E+02 -0.55203181793E+02 -0.41870557084E+03  0.43030745158E+03  0.81865094439E+02 0.  0.
         25    2    1    2    0    0 -0.45577009177E+01  0.11471010810E+03 -0.49614146141E+02  0.17688552096E+03  0.12509093689E+03 0.  0.
        -24    2    1    2    0    0  0.14600751799E+02 -0.59506926304E+02  0.44923458446E+03  0.46416180476E+03  0.99399260019E+02 0.  0.
        -13    1    3    3    0    0 -0.13086612877E+02 -0.71266184651E+00 -0.67304414776E+01  0.14733165512E+02  0.00000000000E+00 0.  1.
         14    1    3    3    0    0  0.30435619958E+01 -0.54490519946E+02 -0.41197512936E+03  0.41557428607E+03  0.00000000000E+00 0. -1.
         11    1    5    5    0    0 -0.34911355430E+02 -0.27893412749E+02  0.30758817936E+03  0.31081720238E+03  0.00000000000E+00 0. -1.
        -12    1    5    5    0    0  0.49512107230E+02 -0.31613513556E+02  0.14164640509E+03  0.15334460237E+03  0.00000000000E+00 0.  1.
          5    1    4    4  501    0  0.37076318093E+02  0.79625311846E+01 -0.49162212975E+02  0.62229019362E+02  0.41800000000E+01 0. -1.
         -5    1    4    4    0  501 -0.41634019011E+02  0.10674757691E+03 -0.45193316583E+00  0.11465650160E+03  0.41800000000E+01 0. -1.
</event>
<event>
11    1  0.8328696E-009  0.1452609E+03  0.7561462E-02  0.1101822E+00
         22   -1    0    0    0    0  0.00000000000E+00  0.00000000000E+00  0.34891284504E+03  0.34891284504E+03  0.00000000000E+00 0. -1.
         22   -1    0    0    0    0 -0.00000000000E+00 -0.00000000000E+00 -0.40896852851E+03  0.40896852851E+03  0.00000000000E+00 0. -1.
        -24    2    1    2    0    0  0.71215690795E+02  0.15264959215E+02 -0.35189418479E+03  0.36826586792E+03  0.80532841679E+02 0.  0.
         25    2    1    2    0    0 -0.94165427408E+02 -0.24972842361E+01  0.11547892873E+03  0.19457297450E+03  0.12509954147E+03 0.  0.
         24    2    1    2    0    0  0.22949736613E+02 -0.12767674979E+02  0.17635957259E+03  0.19504253113E+03  0.79051794235E+02 0.  0.
        -11    1    5    5    0    0 -0.11010472903E+02  0.27911381947E+02  0.71937011070E+02  0.77943629101E+02  0.00000000000E+00 0.  1.
         12    1    5    5    0    0  0.33960209516E+02 -0.40679056926E+02  0.10442256152E+03  0.11709890203E+03  0.00000000000E+00 0. -1.
         13    1    3    3    0    0  0.79583277123E+02 -0.23543812117E+01 -0.32746494830E+03  0.33700494577E+03  0.00000000000E+00 0. -1.
        -14    1    3    3    0    0 -0.83675863275E+01  0.17619340426E+02 -0.24429236489E+02  0.31260922146E+02  0.00000000000E+00 0.  1.
          5    1    4    4  501    0 -0.67119760751E+02 -0.54202036266E+02  0.30901507513E+02  0.91734936558E+02  0.41800000000E+01 0. -1.
         -5    1    4    4    0  501 -0.27045666657E+02  0.51704752030E+02  0.84577421220E+02  0.10283803794E+03  0.41800000000E+01 0. -1.
</event>
<event>
11    1  0.8328696E-009  0.1280934E+03  0.7561462E-02  0.1121634E+00
         22   -1    0    0    0    0  0.00000000000E+00  0.00000000000E+00  0.10591532267E+03  0.10591532267E+03  0.00000000000E+00 0. -1.
         22   -1    0    0    0    0 -0.00000000000E+00 -0.00000000000E+00 -0.90294479700E+03  0.90294479700E+03  0.00000000000E+00 0. -1.
         24    2    1    2    0    0 -0.17068801520E+02 -0.21627446988E+02 -0.77684567284E+03  0.78144540476E+03  0.80053924104E+02 0.  0.
         25    2    1    2    0    0  0.75214590346E+01  0.42957672400E+02 -0.42277088924E+02  0.13905754390E+03  0.12509082422E+03 0.  0.
        -24    2    1    2    0    0  0.95473424849E+01 -0.21330225412E+02  0.22093287431E+02  0.88357171012E+02  0.82296695287E+02 0.  0.
        -11    1    3    3    0    0  0.86525751200E+01 -0.42578874671E+02 -0.26613763978E+03  0.26966102969E+03  0.00000000000E+00 0.  1.
         12    1    3    3    0    0 -0.25721376640E+02  0.20951427683E+02 -0.51070803306E+03  0.51178437507E+03  0.00000000000E+00 0. -1.
         13    1    5    5    0    0 -0.23045232389E+02  0.11505989480E+02  0.31963670651E+02  0.41050539233E+02  0.00000000000E+00 0. -1.
        -14    1    5    5    0    0  0.32592574874E+02 -0.32836214892E+02 -0.98703832202E+01  0.47306631779E+02  0.00000000000E+00 0.  1.
          5    1    4    4  501    0  0.62608468866E+02  0.36083551875E+02 -0.60470777415E+01  0.72635271314E+02  0.41800000000E+01 0. -1.
         -5    1    4    4    0  501 -0.55087009831E+02  0.68741205252E+01 -0.36230011182E+02  0.66422272585E+02  0.41800000000E+01 0. -1.
</event>
<event>
11    1  0.8328696E-009  0.1441756E+03  0.7561462E-02  0.1102983E+00
         22   -1    0    0    0    0  0.00000000000E+00  0.00000000000E+00  0.28421959809E+04  0.28421959809E+04  0.00000000000E+00 0.  1.
         22   -1    0    0    0    0 -0.00000000000E+00 -0.00000000000E+00 -0.30096897276E+04  0.30096897276E+04  0.00000000000E+00 0. -1.
        -24    2    1    2    0    0  0.37642434128E+02 -0.11576931653E+02 -0.27197591953E+04  0.27212016154E+04  0.79354730500E+02 0.  0.
         25    2    1    2    0    0  0.23591013190E+02 -0.25924126211E+02 -0.27357318262E+03  0.30285387949E+03  0.12509832073E+03 0.  0.
         24    2    1    2    0    0 -0.61233447318E+02  0.37501057864E+02  0.28258386312E+04  0.28278302136E+04  0.78127350263E+02 0.  0.
        -11    1    5    5    0    0 -0.32922282225E+02 -0.10444718642E+02  0.19029494441E+04  0.19032628708E+04  0.00000000000E+00 0.  1.
         12    1    5    5    0    0 -0.28311165092E+02  0.47945776506E+02  0.92288918710E+03  0.92456734272E+03  0.00000000000E+00 0. -1.
         11    1    3    3    0    0  0.57472796485E+02 -0.29835148395E+01 -0.24110865623E+04  0.24117732967E+04  0.00000000000E+00 0. -1.
        -12    1    3    3    0    0 -0.19830362358E+02 -0.85934168138E+01 -0.30867263298E+03  0.30942831874E+03  0.00000000000E+00 0.  1.
          5    1    4    4  501    0 -0.27517778092E+02 -0.59377500023E+02 -0.17418428409E+03  0.18611972718E+03  0.41800000000E+01 0. -1.
         -5    1    4    4    0  501  0.51108791282E+02  0.33453373812E+02 -0.99388898532E+02  0.11673415232E+03  0.41800000000E+01 0. -1.
</event>
<event>
11    1  0.8328696E-009  0.1786646E+03  0.7561462E-02  0.1070728E+00
         22   -1    0    0    0    0  0.00000000000E+00  0.00000000000E+00  0.18243126581E+04  0.18243126581E+04  0.00000000000E+00 0.  1.
         22   -1    0    0    0    0 -0.00000000000E+00 -0.00000000000E+00 -0.12786616623E+03  0.12786616623E+03  0.00000000000E+00 0.  1.
         24    2    1    2    0    0 -0.43616407648E+02 -0.12899949588E+03  0.30530471974E+01  0.15837949849E+03  0.80817593949E+02 0.  0.
         25    2    1    2    0    0  0.51165987607E+02  0.10064759593E+03  0.96102238248E+02  0.19398727755E+03  0.12509007475E+03 0.  0.
        -24    2    1    2    0    0 -0.75495799581E+01  0.28351899948E+02  0.15972912065E+04  0.15998120483E+04  0.84844359283E+02 0.  0.
        -11    1    3    3    0    0 -0.28174671083E+02 -0.12739519215E+03 -0.18540563046E+02  0.13178429174E+03  0.00000000000E+00 0.  1.
         12    1    3    3    0    0 -0.15441736565E+02 -0.16043037350E+01  0.21593610243E+02  0.26595206748E+02  0.00000000000E+00 0. -1.
         11    1    5    5    0    0 -0.42703045566E+02  0.96131950540E+00  0.59538370325E+03  0.59691392037E+03  0.00000000000E+00 0. -1.
        -12    1    5    5    0    0  0.35153465608E+02  0.27390580443E+02  0.10019075032E+04  0.10028981280E+04  0.00000000000E+00 0.  1.
          5    1    4    4  501    0  0.26035679142E+02 -0.17103851669E+02 -0.10481193770E+02  0.33131950639E+02  0.41800000000E+01 0. -1.
         -5    1    4    4    0  501  0.25130308465E+02  0.11775144760E+03  0.10658343202E+03  0.16085532691E+03  0.41800000000E+01 0. -1.
</event>
<event>
11    1  0.8328696E-009  0.1597951E+03  0.7561462E-02  0.1087270E+00
         22   -1    0    0    0    0  0.00000000000E+00  0.00000000000E+00  0.37783414272E+03  0.37783414272E+03  0.00000000000E+00 0. -1.
         22   -1    0    0    0    0 -0.00000000000E+00 -0.00000000000E+00 -0.85700991564E+03  0.85700991564E+03  0.00000000000E+00 0.  1.
        -24    2    1    2    0    0  0.81938655818E+02 -0.31645291899E+02 -0.72935250535E+03  0.73916235369E+03  0.81795722593E+02 0.  0.
         25    2    1    2    0    0 -0.15060143096E+03  0.90029133637E+02 -0.26213790752E+01  0.21550184748E+03  0.12509252068E+03 0.  0.
         24    2    1    2    0    0  0.68662775137E+02 -0.58383841738E+02  0.25279811151E+03  0.28017985719E+03  0.80440148739E+02 0.  0.
        -11    1    5    5    0    0  0.31971672726E+02  0.42452469428E+01  0.15538855742E+03  0.15870038991E+03  0.00000000000E+00 0.  1.
         12    1    5    5    0    0  0.36691102411E+02 -0.62629088681E+02  0.97409554083E+02  0.12147946729E+03  0.00000000000E+00 0. -1.
         13    1    3    3    0    0 -0.96770227847E+01 -0.14286669065E+02 -0.40434022820E+02  0.43962073249E+02  0.00000000000E+00 0. -1.
        -14    1    3    3    0    0  0.91615678603E+02 -0.17358622834E+02 -0.68891848253E+03  0.69520028044E+03  0.00000000000E+00 0.  1.
          5    1    4    4  501    0 -0.56667846942E+02  0.18023057188E+02 -0.59408564215E+02  0.84160117452E+02  0.41800000000E+01 0.  1.
         -5    1    4    4    0  501 -0.93933584013E+02  0.72006076449E+02  0.56787185140E+02  0.13134173003E+03  0.41800000000E+01 0.  1.
</event>
<event>
11    1  0.8328696E-009  0.2463453E+03  0.7561462E-02  0.1025864E+00
         22   -1    0    0    0    0  0.00000000000E+00  0.00000000000E+00  0.27915611094E+04  0.27915611094E+04  0.00000000000E+00 0. -1.
         22   -1    0    0    0    0 -0.00000000000E+00 -0.00000000000E+00 -0.53276417749E+02  0.53276417749E+02  0.00000000000E+00 0. -1.
        -24    2    1    2    0    0 -0.19231100615E+03 -0.17574775979E+02  0.41189907674E+03  0.46074141370E+03  0.73002774174E+02 0.  0.
         25    2    1    2    0    0  0.22964860108E+03  0.11310726162E+03  0.74898627669E+03  0.80134866640E+03  0.12509000702E+03 0.  0.
         24    2    1    2    0    0 -0.37337594931E+02 -0.95532485638E+02  0.15773993382E+04  0.15827474470E+04  0.79876511841E+02 0.  0.
        -11    1    5    5    0    0  0.13310765783E+02 -0.68201401626E+02  0.10267435375E+04  0.10290922696E+04  0.00000000000E+00 0.  1.
         12    1    5    5    0    0 -0.50648360715E+02 -0.27331084012E+02  0.55065580071E+03  0.55365517739E+03  0.00000000000E+00 0. -1.
         13    1    3    3    0    0 -0.38528669204E+02 -0.33981974143E+02  0.90383145090E+02  0.10396319461E+03  0.00000000000E+00 0. -1.
        -14    1    3    3    0    0 -0.15378233695E+03  0.16407198164E+02  0.32151593165E+03  0.35677821909E+03  0.00000000000E+00 0.  1.
          5    1    4    4  501    0  0.90703859551E+02  0.70741284137E+02  0.49980966021E+03  0.51289247241E+03  0.41800000000E+01 0. -1.
         -5    1    4    4    0  501  0.13894474153E+03  0.42365977479E+02  0.24917661649E+03  0.28845619399E+03  0.41800000000E+01 0. -1.
</event>
<event>
11    1  0.8328696E-009  0.1681535E+03  0.7561462E-02  0.1079650E+00
         22   -1    0    0    0    0  0.00000000000E+00  0.00000000000E+00  0.47600874634E+03  0.47600874634E+03  0.00000000000E+00 0. -1.
         22   -1    0    0    0    0 -0.00000000000E+00 -0.00000000000E+00 -0.94564831643E+03  0.94564831643E+03  0.00000000000E+00 0.  1.
        -24    2    1    2    0    0  0.68628494716E+02  0.39685180967E+02 -0.88568169674E+03  0.89303975703E+03  0.82481245304E+02 0.  0.
         25    2    1    2    0    0 -0.12706045812E+03 -0.10336009472E+03  0.24834787128E+03  0.32272491833E+03  0.12508812313E+03 0.  0.
         24    2    1    2    0    0  0.58431963400E+02  0.63674913750E+02  0.16769425537E+03  0.20589238741E+03  0.82471346072E+02 0.  0.
        -11    1    5    5    0    0 -0.15571243387E+01 -0.17843878059E+02  0.20027838238E+02  0.26868995606E+02  0.00000000000E+00 0.  1.
         12    1    5    5    0    0  0.59989087739E+02  0.81518791809E+02  0.14766641713E+03  0.17902339181E+03  0.00000000000E+00 0. -1.
         13    1    3    3    0    0  0.49249110141E+02  0.22365874790E+02 -0.20986238977E+03  0.21672085696E+03  0.00000000000E+00 0. -1.
        -14    1    3    3    0    0  0.19379384576E+02  0.17319306177E+02 -0.67581930697E+03  0.67631890007E+03  0.00000000000E+00 0.  1.
          5    1    4    4  501    0 -0.11704941692E+03 -0.13097258375E+03  0.22138192535E+03  0.28263370812E+03  0.41800000000E+01 0. -1.
         -5    1    4    4    0  501 -0.10011041194E+02  0.27612489031E+02  0.26965945932E+02  0.40091210212E+02  0.41800000000E+01 0. -1.
</event>
<event>
11    1  0.8328696E-009  0.1362551E+03  0.7561462E-02  0.1111814E+00
         22   -1    0    0    0    0  0.00000000000E+00  0.00000000000E+00  0.20671838428E+04  0.20671838428E+04  0.00000000000E+00 0. -1.
         22   -1    0    0    0    0 -0.00000000000E+00 -0.00000000000E+00 -0.29399513191E+03  0.29399513191E+03  0.00000000000E+00 0. -1.
         24    2    1    2    0    0  0.14208944968E+02 -0.30051665425E+02 -0.26668860407E+03  0.28060959539E+03  0.80708963390E+02 0.  0.
         25    2    1    2    0    0  0.14905625369E+02  0.74207565993E+02  0.26148485332E+03  0.29958374535E+03  0.12508857439E+03 0.  0.
        -24    2    1    2    0    0 -0.29114570338E+02 -0.44155900568E+02  0.17783924617E+04  0.17809856340E+04  0.80203984039E+02 0.  0.
        -13    1    3    3    0    0 -0.31606016436E+02 -0.26379835175E+02 -0.11765590413E+03  0.12465050243E+03  0.00000000000E+00 0.  1.
         14    1    3    3    0    0  0.45814961404E+02 -0.36718302503E+01 -0.14903269994E+03  0.15595909296E+03  0.00000000000E+00 0. -1.
         13    1    5    5    0    0 -0.13534987293E+02 -0.65898302713E+02  0.10903162785E+04  0.10923897516E+04  0.00000000000E+00 0. -1.
        -14    1    5    5    0    0 -0.15579583044E+02  0.21742402145E+02  0.68807618315E+03  0.68859588242E+03  0.00000000000E+00 0.  1.
          5    1    4    4  501    0 -0.49259211328E+02  0.38287361762E+02  0.17582475421E+03  0.18661245554E+03  0.41800000000E+01 0.  1.
         -5    1    4    4    0  501  0.64164836698E+02  0.35920204231E+02  0.85660099116E+02  0.11297128981E+03  0.41800000000E+01 0.  1.
</event>
<event>
11    1  0.8328696E-009  0.1588392E+03  0.7561462E-02  0.1088174E+00
         22   -1    0    0    0    0  0.00000000000E+00  0.00000000000E+00  0.42055909611E+04  0.42055909611E+04  0.00000000000E+00 0.  1.
         22   -1    0    0    0    0 -0.00000000000E+00 -0.00000000000E+00 -0.67196101743E+02  0.67196101743E+02  0.00000000000E+00 0.  1.
         24    2    1    2    0    0  0.11470064519E+03  0.92727096679E+01  0.13686034770E+03  0.19586727149E+03  0.79943806019E+02 0.  0.
         25    2    1    2    0    0 -0.60803027390E+02  0.95068520038E+02  0.15841031114E+03  0.23125039058E+03  0.12509150582E+03 0.  0.
        -24    2    1    2    0    0 -0.53897617796E+02 -0.10434122971E+03  0.38431242005E+04  0.38456694007E+04  0.76009696103E+02 0.  0.
        -13    1    3    3    0    0  0.12175777439E+03  0.48517767251E+01  0.98710716887E+02  0.15681932595E+03  0.00000000000E+00 0.  1.
         14    1    3    3    0    0 -0.70571292047E+01  0.44209329427E+01  0.38149630809E+02  0.39047945548E+02  0.00000000000E+00 0. -1.
         13    1    5    5    0    0 -0.43656913643E+02 -0.77998394592E+02  0.16918747107E+04  0.16942342555E+04  0.00000000000E+00 0. -1.
        -14    1    5    5    0    0 -0.10240704153E+02 -0.26342835114E+02  0.21512494898E+04  0.21514351452E+04  0.00000000000E+00 0.  1.
          5    1    4    4  501    0 -0.34679473780E+02 -0.25354914894E+02  0.26300858902E+02  0.50544487236E+02  0.41800000000E+01 0.  1.
         -5    1    4    4    0  501 -0.26123553610E+02  0.12042343493E+03  0.13210945223E+03  0.18070590334E+03  0.41800000000E+01 0.  1.
</event>
<event>
11    1  0.8328696E-009  0.1298777E+03  0.7561462E-02  0.1119419E+00
         22   -1    0    0    0    0  0.00000000000E+00  0.00000000000E+00  0.68913680122E+03  0.68913680122E+03  0.00000000000E+00 0. -1.
         22   -1    0    0    0    0 -0.00000000000E+00 -0.00000000000E+00 -0.20783622783E+04  0.20783622783E+04  0.00000000000E+00 0.  1.
         24    2    1    2    0    0  0.33913791156E+02  0.15624505424E+01 -0.19593234648E+04  0.19613174889E+04  0.81641080893E+02 0.  0.
         25    2    1    2    0    0 -0.22426236053E+02  0.31778157134E+02 -0.77735186870E+02  0.15232207272E+03  0.12508583943E+03 0.  0.
        -24    2    1    2    0    0 -0.11487555103E+02 -0.33340607676E+02  0.64783317453E+03  0.65385951795E+03  0.81245843910E+02 0.  0.
        -11    1    3    3    0    0  0.26768781500E+02  0.16674658527E+02 -0.18794016407E+04  0.18796662308E+04  0.00000000000E+00 0.  1.
         12    1    3    3    0    0  0.71450096561E+01 -0.15112207985E+02 -0.79921824038E+02  0.81651258108E+02  0.00000000000E+00 0. -1.
         11    1    5    5    0    0 -0.30893426824E+02  0.82172161467E+01  0.43333366500E+03  0.43451121008E+03  0.00000000000E+00 0. -1.
        -12    1    5    5    0    0  0.19405871721E+02 -0.41557823823E+02  0.21449950953E+03  0.21934830787E+03  0.00000000000E+00 0.  1.
          5    1    4    4  501    0 -0.51131998157E+01  0.73865069159E+02 -0.76586208118E+02  0.10660728365E+03  0.41800000000E+01 0.  1.
         -5    1    4    4    0  501 -0.17313036237E+02 -0.42086912025E+02 -0.11489787520E+01  0.45714789071E+02  0.41800000000E+01 0.  1.
</event>
<event>
11    1  0.8328696E-009  0.1493428E+03  0.7561462E-02  0.1097552E+00
         22   -1    0    0    0    0  0.00000000000E+00  0.00000000000E+00  0.36211315627E+03  0.36211315627E+03  0.00000000000E+00 0.  1.
         22   -1    0    0    0    0 -0.00000000000E+00 -0.00000000000E+00 -0.28750335715E+03  0.28750335715E+03  0.00000000000E+00 0.  1.
         24    2    1    2    0    0  0.20474027733E+02 -0.39231501880E+02 -0.11891932403E+03  0.14974038166E+03  0.79511506834E+02 0.  0.
         25    2    1    2    0    0 -0.78227568802E+02  0.92354642829E+02 -0.88281711403E+02  0.19516403939E+03  0.12508560721E+03 0.  0.
        -24    2    1    2    0    0  0.57753541069E+02 -0.53123140950E+02  0.28181083456E+03  0.30471209237E+03  0.85291108279E+02 0.  0.
        -11    1    3    3    0    0  0.42376915060E+02  0.37940108007E+01 -0.51149194516E+02  0.66531477870E+02  0.00000000000E+00 0.  1.
         12    1    3    3    0    0 -0.21902887327E+02 -0.43025512680E+02 -0.67770129516E+02  0.83208903786E+02  0.00000000000E+00 0. -1.
         13    1    5    5    0    0  0.47605642843E+02 -0.25051792297E+01  0.58262199799E+02  0.75279858388E+02  0.00000000000E+00 0. -1.
        -14    1    5    5    0    0  0.10147898226E+02 -0.50617961720E+02  0.22354863476E+03  0.22943223398E+03  0.00000000000E+00 0.  1.
          5    1    4    4  501    0  0.21877194493E+02 -0.56441550728E+01  0.88742185767E+01  0.24631124227E+02  0.41800000000E+01 0.  1.
         -5    1    4    4    0  501 -0.10010476329E+03  0.97998797902E+02 -0.97155929980E+02  0.17053291517E+03  0.41800000000E+01 0.  1.
</event>
<event>
11    1  0.8328696E-009  0.5037663E+03  0.7561462E-02  0.9385144E-01
         22   -1    0    0    0    0  0.00000000000E+00  0.00000000000E+00  0.12536487425E+04  0.12536487425E+04  0.00000000000E+00 0. -1.
         22   -1    0    0    0    0 -0.00000000000E+00 -0.00000000000E+00 -0.24552743650E+03  0.24552743650E+03  0.00000000000E+00 0. -1.
        -24    2    1    2    0    0  0.44643336179E+03  0.16447043351E+03  0.45886140545E+03  0.66667788221E+03  0.86904195541E+02 0.  0.
         25    2    1    2    0    0 -0.45066351802E+03 -0.21725930917E+03  0.38851578709E+03  0.64567132876E+03  0.12509090322E+03 0.  0.
         24    2    1    2    0    0  0.42301562347E+01  0.52788875660E+02  0.16074411351E+03  0.18682696807E+03  0.79127026709E+02 0.  0.
        -13    1    5    5    0    0 -0.34970632373E+02  0.24995720410E+02  0.48962626417E+02  0.65154201346E+02  0.00000000000E+00 0.  1.
         14    1    5    5    0    0  0.39200788608E+02  0.27793155250E+02  0.11178148709E+03  0.12167276672E+03  0.00000000000E+00 0. -1.
         13    1    3    3    0    0  0.32949163568E+03  0.15961024302E+03  0.33473917602E+03  0.49607507861E+03  0.00000000000E+00 0. -1.
        -14    1    3    3    0    0  0.11694172611E+03  0.48601904911E+01  0.12412222943E+03  0.17060280360E+03  0.00000000000E+00 0.  1.
          5    1    4    4  501    0 -0.13449212738E+02 -0.38345464087E+02  0.49579027621E+02  0.64240239097E+02  0.41800000000E+01 0.  1.
         -5    1    4    4    0  501 -0.43721430528E+03 -0.17891384508E+03  0.33893675947E+03  0.58143108966E+03  0.41800000000E+01 0.  1.
</event>
<event>
11    1  0.8328696E-009  0.1367067E+03  0.7561462E-02  0.1111293E+00
         22   -1    0    0    0    0  0.00000000000E+00  0.00000000000E+00  0.14998200779E+04  0.14998200779E+04  0.00000000000E+00 0.  1.
         22   -1    0    0    0    0 -0.00000000000E+00 -0.00000000000E+00 -0.52496028890E+02  0.52496028890E+02  0.00000000000E+00 0.  1.
         24    2    1    2    0    0 -0.56333557660E+02 -0.23443054905E+02  0.19025153490E+02  0.10224467364E+03  0.79805828616E+02 0.  0.
         25    2    1    2    0    0  0.14070884119E+02 -0.86582659834E+01  0.45947561061E+03  0.47648529323E+03  0.12508973807E+03 0.  0.
        -24    2    1    2    0    0  0.42262673541E+02  0.32101320888E+02  0.96882328487E+03  0.97358613988E+03  0.80217118348E+02 0.  0.
        -13    1    3    3    0    0 -0.68738657802E+02 -0.17343895408E+02  0.36681521134E+02  0.79820722730E+02  0.00000000000E+00 0.  1.
         14    1    3    3    0    0  0.12405100143E+02 -0.60991594971E+01 -0.17656367645E+02  0.22423950913E+02  0.00000000000E+00 0. -1.
         13    1    5    5    0    0  0.12015081076E+02 -0.25133839849E+02  0.18393023268E+03  0.18602796180E+03  0.00000000000E+00 0. -1.
        -14    1    5    5    0    0  0.30247592465E+02  0.57235160738E+02  0.78489305220E+03  0.78755817808E+03  0.00000000000E+00 0.  1.
          5    1    4    4  501    0  0.41669526163E+02 -0.39797378911E+02  0.10755759938E+03  0.12209131977E+03  0.41800000000E+01 0. -1.
         -5    1    4    4    0  501 -0.27598642044E+02  0.31139112928E+02  0.35191801123E+03  0.35439397346E+03  0.41800000000E+01 0. -1.
</event>
<event>
11    1  0.8328696E-009  0.1741619E+03  0.7561462E-02  0.1074466E+00
         22   -1    0    0    0    0  0.00000000000E+00  0.00000000000E+00  0.15839942178E+03  0.15839942178E+03  0.00000000000E+00 0.  1.
         22   -1    0    0    0    0 -0.00000000000E+00 -0.00000000000E+00 -0.15564516578E+04  0.15564516578E+04  0.00000000000E+00 0. -1.
        -24    2    1    2    0    0  0.10089797155E+02  0.27923894972E+02 -0.13256753580E+04  0.13284753756E+04  0.80932817460E+02 0.  0.
         25    2    1    2    0    0 -0.11029875388E+03 -0.85766322379E+02 -0.12462416769E+03  0.22516740916E+03  0.12508997486E+03 0.  0.
         24    2    1    2    0    0  0.10020895673E+03  0.57842427406E+02  0.52247289646E+02  0.16120829482E+03  0.99351666445E+02 0.  0.
        -11    1    5    5    0    0  0.12026469494E+03  0.50256622903E+02  0.50171318141E+02  0.13966562268E+03  0.00000000000E+00 0.  1.
         12    1    5    5    0    0 -0.20055738210E+02  0.75858045030E+01  0.20759715046E+01  0.21542672137E+02  0.00000000000E+00 0. -1.
         11    1    3    3    0    0 -0.16469380775E+02  0.41170668838E+02 -0.10951444056E+04  0.10960417572E+04  0.00000000000E+00 0. -1.
        -12    1    3    3    0    0  0.26559177929E+02 -0.13246773865E+02 -0.23053095242E+03  0.23243361842E+03  0.00000000000E+00 0.  1.
          5    1    4    4  501    0 -0.93341964270E+02 -0.11805157731E+02 -0.20708119029E+02  0.96428121607E+02  0.41800000000E+01 0.  1.
         -5    1    4    4    0  501 -0.16956789613E+02 -0.73961164648E+02 -0.10391604866E+03  0.12873928755E+03  0.41800000000E+01 0.  1.
</event>
<event>
11    1  0.8328696E-009  0.1297447E+03  0.7561462E-02  0.1119583E+00
         22   -1    0    0    0    0  0.00000000000E+00  0.00000000000E+00  0.27647126027E+04  0.27647126027E+04  0.00000000000E+00 0.  1.
         22   -1    0    0    0    0 -0.00000000000E+00 -0.00000000000E+00 -0.18645594240E+04  0.18645594240E+04  0.00000000000E+00 0. -1.
        -24    2    1    2    0    0 -0.35388438213E+02  0.81480404784E+01 -0.18358488146E+04  0.18376320859E+04  0.72333123926E+02 0.  0.
         25    2    1    2    0    0  0.47930773177E+02  0.23755350352E+02  0.14383671344E+03  0.19798594434E+03  0.12509100022E+03 0.  0.
         24    2    1    2    0    0 -0.12542334964E+02 -0.31903390830E+02  0.25921652798E+04  0.25936539965E+04  0.80901662471E+02 0.  0.
        -11    1    5    5    0    0  0.53559646387E+01 -0.28795117818E+02  0.24673322002E+04  0.24675060347E+04  0.00000000000E+00 0.  1.
         12    1    5    5    0    0 -0.17898299603E+02 -0.31082730121E+01  0.12483307957E+03  0.12614796172E+03  0.00000000000E+00 0. -1.
         13    1    3    3    0    0 -0.38000427876E+02  0.62696308174E+01 -0.18327841275E+04  0.18331887515E+04  0.00000000000E+00 0. -1.
        -14    1    3    3    0    0  0.26119896625E+01  0.18784096610E+01 -0.30646871034E+01  0.44433343216E+01  0.00000000000E+00 0.  1.
          5    1    4    4  501    0  0.45075676559E+02  0.13197913567E+01  0.16229506312E+03  0.16849545507E+03  0.41800000000E+01 0.  1.
         -5    1    4    4    0  501  0.28550966187E+01  0.22435558995E+02 -0.18458349686E+02  0.29490489268E+02  0.41800000000E+01 0.  1.
</event>
<event>
11    1  0.8328696E-009  0.1380237E+03  0.7561462E-02  0.1109786E+00
         22   -1    0    0    0    0  0.00000000000E+00  0.00000000000E+00  0.64897146084E+02  0.64897146084E+02  0.00000000000E+00 0.  1.
         22   -1    0    0    0    0 -0.00000000000E+00 -0.00000000000E+00 -0.97111467506E+03  0.97111467506E+03  0.00000000000E+00 0.  1.
         24    2    1    2    0    0 -0.23650792172E+02 -0.50066907637E+02 -0.65123299404E+03  0.65868823082E+03  0.81851803185E+02 0.  0.
         25    2    1    2    0    0 -0.36040402027E+01  0.83144884485E+02 -0.23952971857E+03  0.28275015396E+03  0.12508837903E+03 0.  0.
        -24    2    1    2    0    0  0.27254832375E+02 -0.33077976848E+02 -0.15454816367E+02  0.94573436358E+02  0.82875238012E+02 0.  0.
        -11    1    3    3    0    0 -0.41544475173E+02 -0.41960415931E+02 -0.61170171954E+03  0.61454504604E+03  0.00000000000E+00 0.  1.
         12    1    3    3    0    0  0.17893683001E+02 -0.81064917058E+01 -0.39531274501E+02  0.44143184783E+02  0.00000000000E+00 0. -1.
         11    1    5    5    0    0 -0.24366968951E+02 -0.29712346160E+02 -0.18711097188E+02  0.42739651943E+02  0.00000000000E+00 0. -1.
        -12    1    5    5    0    0  0.51621801326E+02 -0.33656306879E+01  0.32562808217E+01  0.51833784415E+02  0.00000000000E+00 0.  1.
          5    1    4    4  501    0  0.29023910702E+02  0.97484403346E+02 -0.21876609299E+03  0.24129167439E+03  0.41800000000E+01 0.  1.
         -5    1    4    4    0  501 -0.32627950905E+02 -0.14339518862E+02 -0.20763625579E+02  0.41458479574E+02  0.41800000000E+01 0.  1.
</event>
<event>
11    1  0.8328696E-009  0.1391278E+03  0.7561462E-02  0.1108536E+00
         22   -1    0    0    0    0  0.00000000000E+00  0.00000000000E+00  0.12373417449E+04  0.12373417449E+04  0.00000000000E+00 0.  1.
         22   -1    0    0    0    0 -0.00000000000E+00 -0.00000000000E+00 -0.15193760586E+03  0.15193760586E+03  0.00000000000E+00 0.  1.
        -24    2    1    2    0    0  0.17423751773E+02 -0.14139618809E+02 -0.11313048867E+03  0.14075171214E+03  0.80678504316E+02 0.  0.
         25    2    1    2    0    0 -0.75509856283E+02  0.52753795744E+01  0.22680709929E+03  0.26984939271E+03  0.12509063287E+03 0.  0.
         24    2    1    2    0    0  0.58086104510E+02  0.88642392350E+01  0.97172752845E+03  0.97867824594E+03  0.10051939741E+03 0.  0.
        -13    1    5    5    0    0  0.46605999587E+02  0.20969076788E+02  0.94956073448E+03  0.95093501873E+03  0.00000000000E+00 0.  1.
         14    1    5    5    0    0  0.11480104923E+02 -0.12104837553E+02  0.22166793969E+02  0.27743227211E+02  0.00000000000E+00 0. -1.
         11    1    3    3    0    0 -0.29819306088E+02 -0.19989678767E+02 -0.53925652588E+02  0.64782360869E+02  0.00000000000E+00 0. -1.
        -12    1    3    3    0    0  0.47243057861E+02  0.58500599573E+01 -0.59204836079E+02  0.75969351272E+02  0.00000000000E+00 0.  1.
          5    1    4    4  501    0 -0.10835554618E+03  0.18421651398E+01  0.19831668683E+03  0.22603384400E+03  0.41800000000E+01 0.  1.
         -5    1    4    4    0  501  0.32845689899E+02  0.34332144345E+01  0.28490412459E+02  0.43815548705E+02  0.41800000000E+01 0.  1.
</event>
<event>
11    1  0.8328696E-009  0.1353927E+03  0.7561462E-02  0.1112815E+00
         22   -1    0    0    0    0  0.00000000000E+00  0.00000000000E+00  0.48800686051E+02  0.48800686051E+02  0.00000000000E+00 0.  1.
         22   -1    0    0    0    0 -0.00000000000E+00 -0.00000000000E+00 -0.10036917592E+04  0.10036917592E+04  0.00000000000E+00 0. -1.
        -24    2    1    2    0    0  0.34951804308E+02  0.35790316890E+02 -0.45855576696E+03  0.46771837664E+03  0.77359634392E+02 0.  0.
         25    2    1    2    0    0  0.37899631918E+01 -0.70054128760E+02 -0.46023927215E+03  0.48206840229E+03  0.12509121503E+03 0.  0.
         24    2    1    2    0    0 -0.38741767500E+02  0.34263811870E+02 -0.36096034042E+02  0.10270566632E+03  0.81059218277E+02 0.  0.
        -11    1    5    5    0    0 -0.56572999186E+02  0.27070186664E+02 -0.10420988717E+01  0.62724677863E+02  0.00000000000E+00 0.  1.
         12    1    5    5    0    0  0.17831231686E+02  0.71936252064E+01 -0.35053935170E+02  0.39980988457E+02  0.00000000000E+00 0. -1.
         11    1    3    3    0    0  0.55274971621E+02  0.43431319398E+02 -0.34003953133E+03  0.34722972923E+03  0.00000000000E+00 0. -1.
        -12    1    3    3    0    0 -0.20323167313E+02 -0.76410025080E+01 -0.11851623562E+03  0.12048864741E+03  0.00000000000E+00 0.  1.
          5    1    4    4  501    0  0.56478470442E+01 -0.12308475807E+02  0.36025427529E+01  0.14623524446E+02  0.41800000000E+01 0. -1.
         -5    1    4    4    0  501 -0.18578838524E+01 -0.57745652952E+02 -0.46384181491E+03  0.46744487785E+03  0.41800000000E+01 0. -1.
</event>
<event>
11    1  0.8328696E-009  0.1565942E+03  0.7561462E-02  0.1090325E+00
         22   -1    0    0    0    0  0.00000000000E+00  0.00000000000E+00  0.10857324477E+04  0.10857324477E+04  0.00000000000E+00 0. -1.
         22   -1    0    0    0    0 -0.00000000000E+00 -0.00000000000E+00 -0.44619506304E+03  0.44619506304E+03  0.00000000000E+00 0.  1.
        -24    2    1    2    0    0  0.59835553372E+02 -0.13995981205E+02 -0.40333568631E+03  0.41571547052E+03  0.79771521458E+02 0.  0.
         25    2    1    2    0    0 -0.39066293385E+02 -0.80895830792E+02  0.15148272462E+03  0.21602267403E+03  0.12509384126E+03 0.  0.
         24    2    1    2    0    0 -0.20769259986E+02  0.94891811997E+02  0.89139034632E+03  0.90018936616E+03  0.79550784292E+02 0.  0.
        -13    1    5    5    0    0  0.36366021614E+01  0.34668910734E+02  0.95717528488E+02  0.10186757829E+03  0.00000000000E+00 0.  1.
         14    1    5    5    0    0 -0.24405862148E+02  0.60222901263E+02  0.79567281784E+03  0.79832178787E+03  0.00000000000E+00 0. -1.
         11    1    3    3    0    0  0.10349208502E+02  0.27273870362E+02 -0.64259339715E+02  0.70570764922E+02  0.00000000000E+00 0. -1.
        -12    1    3    3    0    0  0.49486344870E+02 -0.41269851567E+02 -0.33907634660E+03  0.34514470559E+03  0.00000000000E+00 0.  1.
          5    1    4    4  501    0 -0.83224361245E+02 -0.38332629261E+02  0.10140007415E+03  0.13673014374E+03  0.41800000000E+01 0.  1.
         -5    1    4    4    0  501  0.44158067860E+02 -0.42563201532E+02  0.50082650472E+02  0.79292530291E+02  0.41800000000E+01 0.  1.
</event>
<event>
11    1  0.8328696E-009  0.1418295E+03  0.7561462E-02  0.1105532E+00
         22   -1    0    0    0    0  0.00000000000E+00  0.00000000000E+00  0.58359322639E+03  0.58359322639E+03  0.00000000000E+00 0.  1.
         22   -1    0    0    0    0 -0.00000000000E+00 -0.00000000000E+00 -0.16411359794E+03  0.16411359794E+03  0.00000000000E+00 0.  1.
         24    2    1    2    0    0 -0.46472762600E+02 -0.33519469477E+02 -0.62328841280E+02  0.11656580166E+03  0.80121340246E+02 0.  0.
         25    2    1    2    0    0  0.94831692896E+02  0.36700871771E+02  0.22716559496E+02  0.16279782656E+03  0.12508831397E+03 0.  0.
        -24    2    1    2    0    0 -0.48358930296E+02 -0.31814022944E+01  0.45909191023E+03  0.46834319611E+03  0.78938329388E+02 0.  0.
        -11    1    3    3    0    0 -0.52249786594E+02 -0.42454337000E+02 -0.74491464476E+02  0.10040612137E+03  0.00000000000E+00 0.  1.
         12    1    3    3    0    0  0.57770239946E+01  0.89348675234E+01  0.12162623196E+02  0.16159680284E+02  0.00000000000E+00 0. -1.
         11    1    5    5    0    0 -0.36974230598E+02 -0.39042835088E+02  0.23156297402E+03  0.23772431015E+03  0.00000000000E+00 0. -1.
        -12    1    5    5    0    0 -0.11384699698E+02  0.35861432794E+02  0.22752893620E+03  0.23061888596E+03  0.00000000000E+00 0.  1.
          5    1    4    4  501    0  0.79774853089E+02 -0.24989069908E+02 -0.20119441369E+02  0.86085684764E+02  0.41800000000E+01 0.  1.
         -5    1    4    4    0  501  0.15056839806E+02  0.61689941679E+02  0.42836000865E+02  0.76712141799E+02  0.41800000000E+01 0.  1.
</event>
<event>
11    1  0.8328696E-009  0.1382865E+03  0.7561462E-02  0.1109487E+00
         22   -1    0    0    0    0  0.00000000000E+00  0.00000000000E+00  0.16309988143E+04  0.16309988143E+04  0.00000000000E+00 0. -1.
         22   -1    0    0    0    0 -0.00000000000E+00 -0.00000000000E+00 -0.16634315632E+03  0.16634315632E+03  0.00000000000E+00 0.  1.
        -24    2    1    2    0    0 -0.59060016513E+01  0.56960356885E+02 -0.13393208797E+03  0.16759289049E+03  0.82886727774E+02 0.  0.
         25    2    1    2    0    0  0.17502355205E+02 -0.11149227509E+03  0.51849638500E+03  0.54518020558E+03  0.12508435336E+03 0.  0.
         24    2    1    2    0    0 -0.11596353554E+02  0.54531918210E+02  0.10800913610E+04  0.10845688746E+04  0.81142406430E+02 0.  0.
        -11    1    5    5    0    0  0.78284305700E+01  0.26601072367E+02  0.96909798355E+02  0.10079886107E+03  0.00000000000E+00 0.  1.
         12    1    5    5    0    0 -0.19424784124E+02  0.27930845842E+02  0.98318156264E+03  0.98377001352E+03  0.00000000000E+00 0. -1.
         13    1    3    3    0    0 -0.17638240489E+02  0.53126039708E+02 -0.31127541917E+02  0.64050038941E+02  0.00000000000E+00 0. -1.
        -14    1    3    3    0    0  0.11732238837E+02  0.38343171767E+01 -0.10280454606E+03  0.10354285155E+03  0.00000000000E+00 0.  1.
          5    1    4    4  501    0  0.67249949957E+02 -0.85461745849E+02  0.28714398527E+03  0.30707557124E+03  0.41800000000E+01 0. -1.
         -5    1    4    4    0  501 -0.49747594751E+02 -0.26030529245E+02  0.23135239973E+03  0.23810463434E+03  0.41800000000E+01 0. -1.
</event>
<event>
11    1  0.8328696E-009  0.1390093E+03  0.7561462E-02  0.1108670E+00
         22   -1    0    0    0    0  0.00000000000E+00  0.00000000000E+00  0.22327960510E+03  0.22327960510E+03  0.00000000000E+00 0.  1.
         22   -1    0    0    0    0 -0.00000000000E+00 -0.00000000000E+00 -0.31921466573E+03  0.31921466573E+03  0.00000000000E+00 0. -1.
        -24    2    1    2    0    0 -0.44189536550E+02 -0.77523319433E+01 -0.20058695997E+03  0.22075782984E+03  0.80536185257E+02 0.  0.
         25    2    1    2    0    0  0.80005238578E+02  0.49868204832E+02 -0.25703612420E+02  0.15873122658E+03  0.12508897053E+03 0.  0.
         24    2    1    2    0    0 -0.35815702028E+02 -0.42115872889E+02  0.13035551176E+03  0.16300521441E+03  0.80756604798E+02 0.  0.
        -13    1    5    5    0    0  0.37954583254E+01 -0.45026581406E+02  0.10881077061E+03  0.11782012705E+03  0.00000000000E+00 0.  1.
         14    1    5    5    0    0 -0.39611160353E+02  0.29107085179E+01  0.21544741144E+02  0.45185087358E+02  0.00000000000E+00 0. -1.
         13    1    3    3    0    0 -0.10442461140E+01  0.85979962897E+01 -0.15715135442E+03  0.15738984779E+03  0.00000000000E+00 0. -1.
        -14    1    3    3    0    0 -0.43145290436E+02 -0.16350328233E+02 -0.43435605541E+02  0.63367982048E+02  0.00000000000E+00 0.  1.
          5    1    4    4  501    0  0.92987852443E+02  0.44465260820E+02  0.24836718679E+02  0.10610483079E+03  0.41800000000E+01 0.  1.
         -5    1    4    4    0  501 -0.12982613866E+02  0.54029440114E+01 -0.50540331099E+02  0.52626395795E+02  0.41800000000E+01 0.  1.
</event>
<event>
11    1  0.8328696E-009  0.1412764E+03  0.7561462E-02  0.1106141E+00
         22   -1    0    0    0    0  0.00000000000E+00  0.00000000000E+00  0.90386651768E+03  0.90386651768E+03  0.00000000000E+00 0. -1.
         22   -1    0    0    0    0 -0.00000000000E+00 -0.00000000000E+00 -0.38716537288E+03  0.38716537288E+03  0.00000000000E+00 0. -1.
         24    2    1    2    0    0 -0.61094868348E+02 -0.17142345724E+02 -0.33548980469E+03  0.35083453623E+03  0.80653702980E+02 0.  0.
         25    2    1    2    0    0  0.11559427807E+03  0.24788594060E+02  0.14110475451E+03  0.22256337112E+03  0.12508953153E+03 0.  0.
        -24    2    1    2    0    0 -0.54499409726E+02 -0.76462483362E+01  0.71108619497E+03  0.71763398322E+03  0.79538081528E+02 0.  0.
        -13    1    3    3    0    0  0.18127625047E+02 -0.14736738624E+02 -0.77279513798E+02  0.80733546361E+02  0.00000000000E+00 0.  1.
         14    1    3    3    0    0 -0.79222493395E+02 -0.24056071002E+01 -0.25821029089E+03  0.27010098986E+03  0.00000000000E+00 0. -1.
         11    1    5    5    0    0 -0.68322076046E+02 -0.14568327791E+02  0.39217367463E+03  0.39834700114E+03  0.00000000000E+00 0. -1.
        -12    1    5    5    0    0  0.13822666320E+02  0.69220794551E+01  0.31891252035E+03  0.31928698208E+03  0.00000000000E+00 0.  1.
          5    1    4    4  501    0  0.30788442954E+02  0.49889456983E+02  0.11678865910E+03  0.13074383133E+03  0.41800000000E+01 0.  1.
         -5    1    4    4    0  501  0.84805835121E+02 -0.25100862923E+02  0.24316095417E+02  0.91819539785E+02  0.41800000000E+01 0.  1.
</event>
<event>
11    1  0.8328696E-009  0.1365190E+03  0.7561462E-02  0.1111509E+00
         22   -1    0    0    0    0  0.00000000000E+00  0.00000000000E+00  0.32954313354E+03  0.32954313354E+03  0.00000000000E+00 0. -1.
         22   -1    0    0    0    0 -0.00000000000E+00 -0.00000000000E+00 -0.15716690290E+04  0.15716690290E+04  0.00000000000E+00 0. -1.
        -24    2    1    2    0    0 -0.22103395717E+02  0.51245718735E+02 -0.13206834618E+04  0.13242932172E+04  0.80206203724E+02 0.  0.
         25    2    1    2    0    0 -0.80745202345E+01 -0.49710614432E+02 -0.22452181882E+03  0.26190342507E+03  0.12508802450E+03 0.  0.
         24    2    1    2    0    0  0.30177915951E+02 -0.15351043033E+01  0.30307938520E+03  0.31501552021E+03  0.80402743010E+02 0.  0.
        -13    1    5    5    0    0  0.59920061990E+01 -0.19434756616E+02  0.14756972584E+02  0.25127318657E+02  0.00000000000E+00 0.  1.
         14    1    5    5    0    0  0.24185909752E+02  0.17899652313E+02  0.28832241262E+03  0.28988820155E+03  0.00000000000E+00 0. -1.
         11    1    3    3    0    0  0.26244344134E+02  0.18372179726E+02 -0.73526220587E+03  0.73595979100E+03  0.00000000000E+00 0. -1.
        -12    1    3    3    0    0 -0.48347739851E+02  0.32873539009E+02 -0.58542125594E+03  0.58833342624E+03  0.00000000000E+00 0.  1.
          5    1    4    4  501    0  0.17776140696E+02 -0.33834401312E+02 -0.33188014856E+01  0.38590733778E+02  0.41800000000E+01 0.  1.
         -5    1    4    4    0  501 -0.25850660931E+02 -0.15876213119E+02 -0.22120301733E+03  0.22331269129E+03  0.41800000000E+01 0.  1.
</event>
<event>
11    1  0.8328696E-009  0.1270517E+03  0.7561462E-02  0.1122945E+00
         22   -1    0    0    0    0  0.00000000000E+00  0.00000000000E+00  0.72233465335E+03  0.72233465335E+03  0.00000000000E+00 0.  1.
         22   -1    0    0    0    0 -0.00000000000E+00 -0.00000000000E+00 -0.36262547186E+03  0.36262547186E+03  0.00000000000E+00 0.  1.
         24    2    1    2    0    0  0.11842536336E+02  0.26116021623E+02 -0.32625726991E+03  0.33718453071E+03  0.80170501585E+02 0.  0.
         25    2    1    2    0    0 -0.10006073402E+02 -0.12076460021E+01  0.11411302422E+03  0.16961805153E+03  0.12508765405E+03 0.  0.
        -24    2    1    2    0    0 -0.18364629338E+01 -0.24908375621E+02  0.57185342718E+03  0.57815754297E+03  0.81400261355E+02 0.  0.
        -13    1    3    3    0    0  0.30082711446E+02  0.43961063396E+02 -0.15189023278E+03  0.16096020451E+03  0.00000000000E+00 0.  1.
         14    1    3    3    0    0 -0.18240175110E+02 -0.17845041773E+02 -0.17436703713E+03  0.17622432619E+03  0.00000000000E+00 0. -1.
         11    1    5    5    0    0  0.79404847592E+01 -0.53321385954E+02  0.31873784913E+03  0.32326465623E+03  0.00000000000E+00 0. -1.
        -12    1    5    5    0    0 -0.97769476930E+01  0.28413010333E+02  0.25311557805E+03  0.25489288674E+03  0.00000000000E+00 0.  1.
          5    1    4    4  501    0 -0.29097966153E+02 -0.24972357304E+02  0.12956671114E+03  0.13518622452E+03  0.41800000000E+01 0. -1.
         -5    1    4    4    0  501  0.19091892751E+02  0.23764711302E+02 -0.15453686920E+02  0.34431827013E+02  0.41800000000E+01 0. -1.
</event>
<event>
11    1  0.8328696E-009  0.1562365E+03  0.7561462E-02  0.1090671E+00
         22   -1    0    0    0    0  0.00000000000E+00  0.00000000000E+00  0.69516365228E+03  0.69516365228E+03  0.00000000000E+00 0.  1.
         22   -1    0    0    0    0 -0.00000000000E+00 -0.00000000000E+00 -0.31137460845E+03  0.31137460845E+03  0.00000000000E+00 0. -1.
        -24    2    1    2    0    0  0.74014542841E+02  0.47195343444E+00 -0.13642326384E+03  0.17429290301E+03  0.79299015329E+02 0.  0.
         25    2    1    2    0    0 -0.16434949524E+03 -0.92072385154E+01 -0.78745880601E+02  0.22123417558E+03  0.12509243345E+03 0.  0.
         24    2    1    2    0    0  0.90334952400E+02  0.87352850810E+01  0.59895818827E+03  0.61101118215E+03  0.79668341138E+02 0.  0.
        -11    1    5    5    0    0  0.96587941258E+02  0.28041710766E+01  0.59227353414E+03  0.60010418513E+03  0.00000000000E+00 0.  1.
         12    1    5    5    0    0 -0.62529888577E+01  0.59311140043E+01  0.66846541324E+01  0.10906997014E+02  0.00000000000E+00 0. -1.
         13    1    3    3    0    0  0.64299988354E+02 -0.14085573071E+02 -0.14150746230E+03  0.15606810615E+03  0.00000000000E+00 0. -1.
        -14    1    3    3    0    0  0.97145544871E+01  0.14557526506E+02  0.50841984569E+01  0.18224796866E+02  0.00000000000E+00 0.  1.
          5    1    4    4  501    0 -0.15777694491E+03 -0.48546613482E+02 -0.73646317483E+02  0.18080815939E+03  0.41800000000E+01 0.  1.
         -5    1    4    4    0  501 -0.65725503352E+01  0.39339374966E+02 -0.50995631181E+01  0.40426016186E+02  0.41800000000E+01 0.  1.
</event>
<event>
11    1  0.8328696E-009  0.7507167E+03  0.7561462E-02  0.8960732E-01
         22   -1    0    0    0    0  0.00000000000E+00  0.00000000000E+00  0.16122640132E+04  0.16122640132E+04  0.00000000000E+00 0.  1.
         22   -1    0    0    0    0 -0.00000000000E+00 -0.00000000000E+00 -0.75171054192E+03  0.75171054192E+03  0.00000000000E+00 0.  1.
         24    2    1    2    0    0 -0.42196085755E+02 -0.68385421017E+03 -0.22699986008E+02  0.68935386175E+03  0.72500806422E+02 0.  0.
         25    2    1    2    0    0 -0.99023208031E+02  0.81615945080E+03  0.69545109022E+02  0.83450996765E+03  0.12509404086E+03 0.  0.
        -24    2    1    2    0    0  0.14121929379E+03 -0.13230524063E+03  0.81370834828E+03  0.84011072573E+03  0.78849158499E+02 0.  0.
        -11    1    3    3    0    0 -0.57836423563E+02 -0.62427555268E+03 -0.27646114133E+02  0.62755822454E+03  0.00000000000E+00 0.  1.
         12    1    3    3    0    0  0.15640337808E+02 -0.59578657490E+02  0.49461281257E+01  0.61795637212E+02  0.00000000000E+00 0. -1.
         11    1    5    5    0    0  0.10392840288E+02 -0.22639128801E+02  0.35308982685E+02  0.43211868050E+02  0.00000000000E+00 0. -1.
        -12    1    5    5    0    0  0.13082645350E+03 -0.10966611183E+03  0.77839936559E+03  0.79689885768E+03  0.00000000000E+00 0.  1.
          5    1    4    4  501    0 -0.46973780748E+02  0.56810609087E+03  0.10146088699E+03  0.57901886891E+03  0.41800000000E+01 0.  1.
         -5    1    4    4    0  501 -0.52049427282E+02  0.24805335993E+03 -0.31915777969E+02  0.25549109874E+03  0.41800000000E+01 0.  1.
</event>
<event>
11    1  0.8328696E-009  0.1601669E+03  0.7561462E-02  0.1086920E+00
         22   -1    0    0    0    0  0.00000000000E+00  0.00000000000E+00  0.24099208602E+03  0.24099208602E+03  0.00000000000E+00 0. -1.
         22   -1    0    0    0    0 -0.00000000000E+00 -0.00000000000E+00 -0.48383486950E+03  0.48383486950E+03  0.00000000000E+00 0.  1.
         24    2    1    2    0    0 -0.15496072332E+02  0.11699996560E+02 -0.18655238827E+03  0.20405550335E+03  0.80373109303E+02 0.  0.
         25    2    1    2    0    0  0.26229809519E+02 -0.11016034168E+03 -0.24234125921E+03  0.29532117356E+03  0.12514793586E+03 0.  0.
        -24    2    1    2    0    0 -0.10733737187E+02  0.98460345121E+02  0.18605086400E+03  0.22545027862E+03  0.80020319028E+02 0.  0.
        -11    1    3    3    0    0 -0.21705144868E+02  0.44002298365E+02 -0.12459912714E+03  0.13391138137E+03  0.00000000000E+00 0.  1.
         12    1    3    3    0    0  0.62090725367E+01 -0.32302301805E+02 -0.61953261132E+02  0.70144121982E+02  0.00000000000E+00 0. -1.
         13    1    5    5    0    0  0.90598455877E+01  0.93477084512E+02  0.10071882438E+03  0.13771102976E+03  0.00000000000E+00 0. -1.
        -14    1    5    5    0    0 -0.19793582775E+02  0.49832606083E+01  0.85332039621E+02  0.87739248864E+02  0.00000000000E+00 0.  1.
          5    1    4    4  501    0 -0.22874654400E+02  0.18579992130E+02 -0.57382048258E+02  0.64642383803E+02  0.41800000000E+01 0. -1.
         -5    1    4    4    0  501  0.49104463919E+02 -0.12874033381E+03 -0.18495921095E+03  0.23067878975E+03  0.41800000000E+01 0. -1.
</event>
<event>
11    1  0.8328696E-009  0.1325612E+03  0.7561462E-02  0.1116162E+00
         22   -1    0    0    0    0  0.00000000000E+00  0.00000000000E+00  0.11099595791E+03  0.11099595791E+03  0.00000000000E+00 0.  1.
         22   -1    0    0    0    0 -0.00000000000E+00 -0.00000000000E+00 -0.38441690406E+03  0.38441690406E+03  0.00000000000E+00 0.  1.
        -24    2    1    2    0    0  0.35300658971E+02 -0.26154069566E+02 -0.25140086697E+03  0.26946227529E+03  0.86471671745E+02 0.  0.
         25    2    1    2    0    0 -0.30642407891E+02  0.31672707276E+02 -0.48090502259E+02  0.14107542281E+03  0.12508981160E+03 0.  0.
         24    2    1    2    0    0 -0.46582510800E+01 -0.55186377096E+01  0.26070423076E+02  0.84875163864E+02  0.80448566279E+02 0.  0.
        -11    1    5    5    0    0 -0.36258050047E+01  0.17987542612E+02  0.48815250485E+02  0.52150041525E+02  0.00000000000E+00 0.  1.
         12    1    5    5    0    0 -0.10324460753E+01 -0.23506180322E+02 -0.22744827409E+02  0.32725122339E+02  0.00000000000E+00 0. -1.
         11    1    3    3    0    0  0.58368761033E+02 -0.21771540692E+02 -0.11255558488E+03  0.12864552824E+03  0.00000000000E+00 0. -1.
        -12    1    3    3    0    0 -0.23068102062E+02 -0.43825288746E+01 -0.13884528209E+03  0.14081674705E+03  0.00000000000E+00 0.  1.
          5    1    4    4  501    0 -0.66107401987E+01 -0.42956199136E+02 -0.44703178408E+02  0.62488266819E+02  0.41800000000E+01 0. -1.
         -5    1    4    4    0  501 -0.24031667692E+02  0.74628906412E+02 -0.33873238510E+01  0.78587155994E+02  0.41800000000E+01 0. -1.
</event>
<event>
11    1  0.8328696E-009  0.1556879E+03  0.7561462E-02  0.1091205E+00
         22   -1    0    0    0    0  0.00000000000E+00  0.00000000000E+00  0.15114255806E+03  0.15114255806E+03  0.00000000000E+00 0.  1.
         22   -1    0    0    0    0 -0.00000000000E+00 -0.00000000000E+00 -0.33284186196E+04  0.33284186196E+04  0.00000000000E+00 0.  1.
         24    2    1    2    0    0 -0.74034420067E+02 -0.79813721889E+02 -0.22665423647E+04  0.22706322305E+04  0.81884733964E+02 0.  0.
         25    2    1    2    0    0 -0.19201810575E+02  0.77596082834E+02 -0.10291569160E+04  0.10398077736E+04  0.12508551771E+03 0.  0.
        -24    2    1    2    0    0  0.93236230642E+02  0.22176390548E+01  0.11842321913E+03  0.16912117357E+03  0.76681157351E+02 0.  0.
        -13    1    3    3    0    0 -0.72599368042E+02 -0.60336105528E+02 -0.21741419187E+04  0.21761902942E+04  0.00000000000E+00 0.  1.
         14    1    3    3    0    0 -0.14350520251E+01 -0.19477616361E+02 -0.92400445945E+02  0.94441936258E+02  0.00000000000E+00 0. -1.
         13    1    5    5    0    0 -0.46944569996E+01 -0.19807766944E+02  0.19361562795E+02  0.28093694518E+02  0.00000000000E+00 0. -1.
        -14    1    5    5    0    0  0.97930687642E+02  0.22025405999E+02  0.99061656332E+02  0.14102747905E+03  0.00000000000E+00 0.  1.
          5    1    4    4  501    0 -0.35217562003E+02  0.30055325894E+02 -0.89981450637E+03  0.90101454903E+03  0.41800000000E+01 0.  1.
         -5    1    4    4    0  501  0.16015751428E+02  0.47540756940E+02 -0.12934240958E+03  0.13879322455E+03  0.41800000000E+01 0.  1.
</event>
<event>
11    1  0.8328696E-009  0.3127153E+03  0.7561462E-02  0.9949489E-01
         22   -1    0    0    0    0  0.00000000000E+00  0.00000000000E+00  0.96409878907E+03  0.96409878907E+03  0.00000000000E+00 0. -1.
         22   -1    0    0    0    0 -0.00000000000E+00 -0.00000000000E+00 -0.54238548618E+03  0.54238548618E+03  0.00000000000E+00 0.  1.
         24    2    1    2    0    0  0.77871460333E+02 -0.25312928053E+03 -0.24639893568E+03  0.36997410169E+03  0.77653096650E+02 0.  0.
         25    2    1    2    0    0 -0.17399393217E+03  0.29709135052E+03 -0.81600252562E+02  0.37529126940E+03  0.12509107357E+03 0.  0.
        -24    2    1    2    0    0  0.96122471832E+02 -0.43962069989E+02  0.74971249114E+03  0.76121890416E+03  0.78823901831E+02 0.  0.
        -11    1    3    3    0    0  0.81606670347E+02 -0.25016687387E+03 -0.21954347531E+03  0.34269877587E+03  0.00000000000E+00 0.  1.
         12    1    3    3    0    0 -0.37352100141E+01 -0.29624066588E+01 -0.26855460371E+02  0.27275325824E+02  0.00000000000E+00 0. -1.
         11    1    5    5    0    0  0.81469016110E+02 -0.27821619275E+02  0.71543850108E+03  0.72059939766E+03  0.00000000000E+00 0. -1.
        -12    1    5    5    0    0  0.14653455723E+02 -0.16140450715E+02  0.34273990057E+02  0.40619506500E+02  0.00000000000E+00 0.  1.
          5    1    4    4  501    0 -0.79332893031E+02  0.24381025107E+03 -0.43430724873E+02  0.26007853949E+03  0.41800000000E+01 0. -1.
         -5    1    4    4    0  501 -0.94661039135E+02  0.53281099456E+02 -0.38169527688E+02  0.11521272991E+03  0.41800000000E+01 0. -1.
</event>
<event>
11    1  0.8328696E-009  0.1817941E+03  0.7561462E-02  0.1068201E+00
         22   -1    0    0    0    0  0.00000000000E+00  0.00000000000E+00  0.98474315060E+02  0.98474315060E+02  0.00000000000E+00 0.  1.
         22   -1    0    0    0    0 -0.00000000000E+00 -0.00000000000E+00 -0.28471162429E+04  0.28471162429E+04  0.00000000000E+00 0. -1.
        -24    2    1    2    0    0  0.69488858275E+02  0.11430802720E+03 -0.23411859913E+04  0.23462139690E+04  0.75320091914E+02 0.  0.
         25    2    1    2    0    0 -0.46264491664E+02 -0.11242640954E+03 -0.46591497070E+03  0.49749680281E+03  0.12508480375E+03 0.  0.
         24    2    1    2    0    0 -0.23224366611E+02 -0.18816176511E+01  0.58459034188E+02  0.10187978606E+03  0.80119413633E+02 0.  0.
        -11    1    5    5    0    0  0.11582333386E+02 -0.31241040601E+02  0.41658056228E+02  0.53343666102E+02  0.00000000000E+00 0.  1.
         12    1    5    5    0    0 -0.34806699997E+02  0.29359422950E+02  0.16800977960E+02  0.48536119963E+02  0.00000000000E+00 0. -1.
         11    1    3    3    0    0  0.72528458774E+02  0.61477050276E+02 -0.17803363377E+04  0.17828733215E+04  0.00000000000E+00 0. -1.
        -12    1    3    3    0    0 -0.30396004991E+01  0.52830976920E+02 -0.56084965357E+03  0.56334064757E+03  0.00000000000E+00 0.  1.
          5    1    4    4  501    0  0.79481348665E+01 -0.81983112681E+02 -0.39309285415E+03  0.40165142599E+03  0.41800000000E+01 0. -1.
         -5    1    4    4    0  501 -0.54212626530E+02 -0.30443296864E+02 -0.72822116548E+02  0.95845376820E+02  0.41800000000E+01 0. -1.
</event>
<event>
11    1  0.8328696E-009  0.1781542E+03  0.7561462E-02  0.1071146E+00
         22   -1    0    0    0    0  0.00000000000E+00  0.00000000000E+00  0.11531284551E+04  0.11531284551E+04  0.00000000000E+00 0. -1.
         22   -1    0    0    0    0 -0.00000000000E+00 -0.00000000000E+00 -0.25403700038E+03  0.25403700038E+03  0.00000000000E+00 0.  1.
         24    2    1    2    0    0 -0.17232022997E+02 -0.38579213359E+02 -0.18688791431E+03  0.20877218551E+03  0.82906179552E+02 0.  0.
         25    2    1    2    0    0  0.12797988212E+03 -0.23954544897E+02  0.11127060000E+03  0.21209002813E+03  0.12509341773E+03 0.  0.
        -24    2    1    2    0    0 -0.11074785912E+03  0.62533758255E+02  0.97470876900E+03  0.98630324179E+03  0.81002106116E+02 0.  0.
        -13    1    3    3    0    0 -0.14566094566E+02 -0.25585652627E+02 -0.19223080965E+03  0.19447231399E+03  0.00000000000E+00 0.  1.
         14    1    3    3    0    0 -0.26659284307E+01 -0.12993560731E+02  0.53428953378E+01  0.14299871519E+02  0.00000000000E+00 0. -1.
         13    1    5    5    0    0 -0.12088101943E+03  0.56924844036E+02  0.78898665299E+03  0.80022034298E+03  0.00000000000E+00 0. -1.
        -14    1    5    5    0    0  0.10133160307E+02  0.56089142195E+01  0.18572211600E+03  0.18608289881E+03  0.00000000000E+00 0.  1.
          5    1    4    4  501    0  0.16892837150E+02 -0.34832364292E+02  0.90442421248E+02  0.98468093870E+02  0.41800000000E+01 0.  1.
         -5    1    4    4    0  501  0.11108704497E+03  0.10877819395E+02  0.20828178749E+02  0.11362193426E+03  0.41800000000E+01 0.  1.
</event>
<event>
11    1  0.8328696E-009  0.1348334E+03  0.7561462E-02  0.1113469E+00
         22   -1    0    0    0    0  0.00000000000E+00  0.00000000000E+00  0.35875453607E+04  0.35875453607E+04  0.00000000000E+00 0.  1.
         22   -1    0    0    0    0 -0.00000000000E+00 -0.00000000000E+00 -0.15614944750E+03  0.15614944750E+03  0.00000000000E+00 0.  1.
         24    2    1    2    0    0  0.28334313848E+02  0.17036107963E+01 -0.10163957685E+03  0.13286355907E+03  0.80724135890E+02 0.  0.
         25    2    1    2    0    0 -0.10330425370E+02 -0.48846954589E+02  0.80223003240E+02  0.15676582151E+03  0.12508816844E+03 0.  0.
        -24    2    1    2    0    0 -0.18003888478E+02  0.47143343792E+02  0.34528124868E+04  0.34540654276E+04  0.78149052438E+02 0.  0.
        -11    1    3    3    0    0 -0.22557324768E+02 -0.11503287342E+02 -0.62142862519E+02  0.67103605584E+02  0.00000000000E+00 0.  1.
         12    1    3    3    0    0  0.50891638616E+02  0.13206898138E+02 -0.39496714334E+02  0.65759953487E+02  0.00000000000E+00 0. -1.
         13    1    5    5    0    0 -0.31721314285E+02  0.58054489935E+02  0.18951422230E+04  0.18962965515E+04  0.00000000000E+00 0. -1.
        -14    1    5    5    0    0  0.13717425807E+02 -0.10911146143E+02  0.15576702637E+04  0.15577688761E+04  0.00000000000E+00 0.  1.
          5    1    4    4  501    0 -0.60825890606E+02 -0.10540983313E+02  0.68262216462E+02  0.92130906288E+02  0.41800000000E+01 0. -1.
         -5    1    4    4    0  501  0.50495465236E+02 -0.38305971276E+02  0.11960786778E+02  0.64634915217E+02  0.41800000000E+01 0. -1.
</event>
<event>
11    1  0.8328696E-009  0.1335420E+03  0.7561462E-02  0.1114992E+00
         22   -1    0    0    0    0  0.00000000000E+00  0.00000000000E+00  0.82460992239E+02  0.82460992239E+02  0.00000000000E+00 0. -1.
         22   -1    0    0    0    0 -0.00000000000E+00 -0.00000000000E+00 -0.14359560430E+04  0.14359560430E+04  0.00000000000E+00 0.  1.
         24    2    1    2    0    0 -0.24283966190E+01  0.47151143785E+02 -0.12527437142E+04  0.12562248415E+04  0.80653031482E+02 0.  0.
         25    2    1    2    0    0 -0.21312521107E+01 -0.39443444941E+02 -0.12250106219E+03  0.17948266080E+03  0.12508871935E+03 0.  0.
        -24    2    1    2    0    0  0.45596487298E+01 -0.77076988442E+01  0.21749725567E+02  0.82709532981E+02  0.79294497071E+02 0.  0.
        -11    1    3    3    0    0 -0.16138877971E+01  0.60379779249E+02 -0.12092264464E+04  0.12107340423E+04  0.00000000000E+00 0.  1.
         12    1    3    3    0    0 -0.81450882193E+00 -0.13228635464E+02 -0.43517267763E+02  0.45490799228E+02  0.00000000000E+00 0. -1.
         13    1    5    5    0    0  0.39277560854E+02 -0.47089452519E+01  0.26391868852E+02  0.47554512861E+02  0.00000000000E+00 0. -1.
        -14    1    5    5    0    0 -0.34717912124E+02 -0.29987535922E+01 -0.46421432844E+01  0.35155020120E+02  0.00000000000E+00 0.  1.
          5    1    4    4  501    0  0.13201685540E+02 -0.24440888230E+02  0.20528665902E+02  0.34792815958E+02  0.41800000000E+01 0.  1.
         -5    1    4    4    0  501 -0.15332937651E+02 -0.15002556711E+02 -0.14302972809E+03  0.14468984485E+03  0.41800000000E+01 0.  1.
</event>
<event>
11    1  0.8328696E-009  0.1333553E+03  0.7561462E-02  0.1115214E+00
         22   -1    0    0    0    0  0.00000000000E+00  0.00000000000E+00  0.33678232097E+03  0.33678232097E+03  0.00000000000E+00 0.  1.
         22   -1    0    0    0    0 -0.00000000000E+00 -0.00000000000E+00 -0.31549091547E+03  0.31549091547E+03  0.00000000000E+00 0.  1.
        -24    2    1    2    0    0 -0.38594244727E+01  0.13161851176E+02 -0.25483765260E+03  0.26729959730E+03  0.79490351960E+02 0.  0.
         25    2    1    2    0    0  0.28428260445E+02 -0.49445531219E+02  0.61982565191E+02  0.15080251008E+03  0.12508609879E+03 0.  0.
         24    2    1    2    0    0 -0.24568835973E+02  0.36283680043E+02  0.21414649290E+03  0.23417112905E+03  0.84007524209E+02 0.  0.
        -13    1    5    5    0    0 -0.10086242535E+02  0.53545293767E+02  0.20062650447E+03  0.20789378314E+03  0.00000000000E+00 0.  1.
         14    1    5    5    0    0 -0.14482593437E+02 -0.17261613724E+02  0.13519988424E+02  0.26277345909E+02  0.00000000000E+00 0. -1.
         13    1    3    3    0    0  0.30732465470E+02  0.58901528482E+01 -0.46912028210E+02  0.56390750351E+02  0.00000000000E+00 0. -1.
        -14    1    3    3    0    0 -0.34591889943E+02  0.72716983279E+01 -0.20792562439E+03  0.21090884695E+03  0.00000000000E+00 0.  1.
          5    1    4    4  501    0  0.57076189684E+02 -0.12192345815E+02 -0.15097137806E+02  0.60429634248E+02  0.41800000000E+01 0. -1.
         -5    1    4    4    0  501 -0.28647929239E+02 -0.37253185404E+02  0.77079702998E+02  0.90372875835E+02  0.41800000000E+01 0. -1.
</event>
<event>
11    1  0.8328696E-009  0.1294419E+03  0.7561462E-02  0.1119957E+00
         22   -1    0    0    0    0  0.00000000000E+00  0.00000000000E+00  0.28773569551E+03  0.28773569551E+03  0.00000000000E+00 0.  1.
         22   -1    0    0    0    0 -0.00000000000E+00 -0.00000000000E+00 -0.16590678475E+04  0.16590678475E+04  0.00000000000E+00 0.  1.
        -24    2    1    2    0    0  0.32018044390E+02 -0.79344438398E+01 -0.15504186071E+04  0.15530711046E+04  0.84521525994E+02 0.  0.
         25    2    1    2    0    0 -0.33782057741E+02  0.40521117167E+02 -0.52723330795E+02  0.14564242646E+03  0.12509507750E+03 0.  0.
         24    2    1    2    0    0  0.17640133509E+01 -0.32586673327E+02  0.23180978585E+03  0.24809001194E+03  0.82145445295E+02 0.  0.
        -13    1    5    5    0    0 -0.33138461049E+01 -0.10462358245E+02  0.22372448060E+03  0.22399349485E+03  0.00000000000E+00 0.  1.
         14    1    5    5    0    0  0.50778594557E+01 -0.22124315082E+02  0.80853052543E+01  0.24096517084E+02  0.00000000000E+00 0. -1.
         13    1    3    3    0    0  0.46202397291E+02  0.26206266797E+02 -0.82136790061E+03  0.82308362764E+03  0.00000000000E+00 0. -1.
        -14    1    3    3    0    0 -0.14184352901E+02 -0.34140710637E+02 -0.72905070646E+03  0.72998747701E+03  0.00000000000E+00 0.  1.
          5    1    4    4  501    0  0.32318193973E+02  0.14520621170E+02 -0.64319010136E+02  0.73550809416E+02  0.41800000000E+01 0. -1.
         -5    1    4    4    0  501 -0.66100251714E+02  0.26000495997E+02  0.11595679341E+02  0.72091617045E+02  0.41800000000E+01 0. -1.
</event>
<event>
11    1  0.8328696E-009  0.1466929E+03  0.7561462E-02  0.1100307E+00
         22   -1    0    0    0    0  0.00000000000E+00  0.00000000000E+00  0.11580943460E+04  0.11580943460E+04  0.00000000000E+00 0. -1.
         22   -1    0    0    0    0 -0.00000000000E+00 -0.00000000000E+00 -0.21022641232E+03  0.21022641232E+03  0.00000000000E+00 0. -1.
         24    2    1    2    0    0 -0.36865301395E+02  0.43853518003E+02 -0.18012052773E+03  0.20574864684E+03  0.81282960566E+02 0.  0.
         25    2    1    2    0    0 -0.45057642648E+02 -0.71917357071E+01  0.33385677341E+03  0.35943466411E+03  0.12510403825E+03 0.  0.
        -24    2    1    2    0    0  0.81922944043E+02 -0.36661782296E+02  0.79413168799E+03  0.80313744736E+03  0.79556058483E+02 0.  0.
        -13    1    3    3    0    0 -0.20422109869E+02  0.55989256334E+02 -0.62478816841E+02  0.86345016939E+02  0.00000000000E+00 0.  1.
         14    1    3    3    0    0 -0.16443191526E+02 -0.12135738331E+02 -0.11764171089E+03  0.11940362990E+03  0.00000000000E+00 0. -1.
         13    1    5    5    0    0  0.59679893296E+02 -0.38106670951E+02  0.75327732536E+03  0.75659800220E+03  0.00000000000E+00 0. -1.
        -14    1    5    5    0    0  0.22243050747E+02  0.14448886546E+01  0.40854362630E+02  0.46539445158E+02  0.00000000000E+00 0.  1.
          5    1    4    4  501    0 -0.77014757695E+01  0.57545411320E+02  0.15289070605E+03  0.16359653874E+03  0.41800000000E+01 0.  1.
         -5    1    4    4    0  501 -0.37356166878E+02 -0.64737147027E+02  0.18096606737E+03  0.19583812537E+03  0.41800000000E+01 0.  1.
</event>
<event>
11    1  0.8328696E-009  0.2082233E+03  0.7561462E-02  0.1048856E+00
         22   -1    0    0    0    0  0.00000000000E+00  0.00000000000E+00  0.14751100339E+04  0.14751100339E+04  0.00000000000E+00 0. -1.
         22   -1    0    0    0    0 -0.00000000000E+00 -0.00000000000E+00 -0.33313795930E+03  0.33313795930E+03  0.00000000000E+00 0.  1.
        -24    2    1    2    0    0 -0.22245128866E+02 -0.41363262504E+02 -0.17491474877E+03  0.19850937222E+03  0.81271374297E+02 0.  0.
         25    2    1    2    0    0 -0.13783068339E+03  0.88502382046E+02 -0.64193133586E+02  0.21586541836E+03  0.12508857474E+03 0.  0.
         24    2    1    2    0    0  0.16007581226E+03 -0.47139119543E+02  0.13810799569E+04  0.13938732026E+04  0.87488829223E+02 0.  0.
        -11    1    5    5    0    0  0.56798153023E+01  0.16643663971E+02  0.23828630173E+03  0.23893437058E+03  0.00000000000E+00 0.  1.
         12    1    5    5    0    0  0.15439599695E+03 -0.63782783514E+02  0.11427936552E+04  0.11549388320E+04  0.00000000000E+00 0. -1.
         13    1    3    3    0    0 -0.27548943631E+02  0.15633441478E+02 -0.95486535814E+02  0.10060331659E+03  0.00000000000E+00 0. -1.
        -14    1    3    3    0    0  0.53038147648E+01 -0.56996703982E+02 -0.79428212955E+02  0.97906055630E+02  0.00000000000E+00 0.  1.
          5    1    4    4  501    0 -0.65593519729E+02  0.10667127611E+03 -0.14283936305E+02  0.12610620212E+03  0.41800000000E+01 0.  1.
         -5    1    4    4    0  501 -0.72237163662E+02 -0.18168894064E+02 -0.49909197281E+02  0.89759216232E+02  0.41800000000E+01 0.  1.
</event>
<event>
11    1  0.8328696E-009  0.8035091E+03  0.7561462E-02  0.8892290E-01
         22   -1    0    0    0    0  0.00000000000E+00  0.00000000000E+00  0.14105531355E+04  0.14105531355E+04  0.00000000000E+00 0. -1.
         22   -1    0    0    0    0 -0.00000000000E+00 -0.00000000000E+00 -0.11269738568E+04  0.11269738568E+04  0.00000000000E+00 0. -1.
         24    2    1    2    0    0 -0.11285940729E+03 -0.64141229424E+03 -0.37248867603E+02  0.65729407407E+03  0.80629055939E+02 0.  0.
         25    2    1    2    0    0  0.74546248945E+02  0.92680107412E+03 -0.45935255952E+03  0.10445906035E+04  0.12508949079E+03 0.  0.
        -24    2    1    2    0    0  0.38313158345E+02 -0.28538877989E+03  0.78018070584E+03  0.83564231481E+03  0.81862633486E+02 0.  0.
        -11    1    3    3    0    0 -0.65470612526E+01 -0.23904749997E+03  0.32158946484E+01  0.23915876156E+03  0.00000000000E+00 0.  1.
         12    1    3    3    0    0 -0.10631234604E+03 -0.40236479426E+03 -0.40464762252E+02  0.41813531251E+03  0.00000000000E+00 0. -1.
         13    1    5    5    0    0  0.90192010769E+01 -0.16630650025E+02  0.13188052555E+03  0.13323061783E+03  0.00000000000E+00 0. -1.
        -14    1    5    5    0    0  0.29293957268E+02 -0.26875812986E+03  0.64830018029E+03  0.70241169698E+03  0.00000000000E+00 0.  1.
          5    1    4    4  501    0  0.61235392872E+02  0.79199916172E+03 -0.34027247479E+03  0.86418474588E+03  0.41800000000E+01 0.  1.
         -5    1    4    4    0  501  0.13310856073E+02  0.13480191240E+03 -0.11908008473E+03  0.18040585760E+03  0.41800000000E+01 0.  1.
</event>
<event>
11    1  0.8328696E-009  0.1304977E+03  0.7561462E-02  0.1118659E+00
         22   -1    0    0    0    0  0.00000000000E+00  0.00000000000E+00  0.32312890071E+03  0.32312890071E+03  0.00000000000E+00 0.  1.
         22   -1    0    0    0    0 -0.00000000000E+00 -0.00000000000E+00 -0.31382878720E+03  0.31382878720E+03  0.00000000000E+00 0.  1.
        -24    2    1    2    0    0  0.28785662072E+02  0.20898563662E+02 -0.21333174320E+03  0.23080093813E+03  0.80580866720E+02 0.  0.
         25    2    1    2    0    0 -0.49901456598E+02 -0.99570800699E+01 -0.30801831196E+02  0.13851174543E+03  0.12508977577E+03 0.  0.
         24    2    1    2    0    0  0.21115794526E+02 -0.10941483592E+02  0.25343368790E+03  0.26764500436E+03  0.82702003325E+02 0.  0.
        -13    1    5    5    0    0  0.16084056468E+02  0.89310832231E+00  0.25424949201E+03  0.25475929561E+03  0.00000000000E+00 0.  1.
         14    1    5    5    0    0  0.50317380575E+01 -0.11834591914E+02 -0.81580410376E+00  0.12885708750E+02  0.00000000000E+00 0. -1.
         11    1    3    3    0    0 -0.23163957452E+02  0.69231362668E+01 -0.24358982400E+02  0.34319947030E+02  0.00000000000E+00 0. -1.
        -12    1    3    3    0    0  0.51949619524E+02  0.13975427395E+02 -0.18897276080E+03  0.19648099110E+03  0.00000000000E+00 0.  1.
          5    1    4    4  501    0  0.12973162988E+02  0.47253031260E+02 -0.42806295250E+01  0.49365454624E+02  0.41800000000E+01 0. -1.
         -5    1    4    4    0  501 -0.62874619586E+02 -0.57210111329E+02 -0.26521201671E+02  0.89146290806E+02  0.41800000000E+01 0. -1.
</event>
<event>
11    1  0.8328696E-009  0.1786456E+03  0.7561462E-02  0.1070744E+00
         22   -1    0    0    0    0  0.00000000000E+00  0.00000000000E+00  0.28021482040E+03  0.28021482040E+03  0.00000000000E+00 0. -1.
         22   -1    0    0    0    0 -0.00000000000E+00 -0.00000000000E+00 -0.19351484646E+04  0.19351484646E+04  0.00000000000E+00 0. -1.
         24    2    1    2    0    0  0.34297628990E+02 -0.11122564772E+02 -0.17339906773E+04  0.17361759774E+04  0.79267376046E+02 0.  0.
         25    2    1    2    0    0 -0.84570724295E+02 -0.10556198144E+03 -0.12707649972E+03  0.22380997113E+03  0.12508767749E+03 0.  0.
        -24    2    1    2    0    0  0.50273095304E+02  0.11668454621E+03  0.20613353276E+03  0.25537733648E+03  0.81141131524E+02 0.  0.
        -11    1    3    3    0    0  0.11439850285E+02 -0.42477304746E+02 -0.11847283219E+04  0.11855447644E+04  0.00000000000E+00 0.  1.
         12    1    3    3    0    0  0.22857778706E+02  0.31354739974E+02 -0.54926235534E+03  0.55063121303E+03  0.00000000000E+00 0. -1.
         11    1    5    5    0    0  0.72625225564E+02  0.83217814931E+02  0.14795173896E+03  0.18463300130E+03  0.00000000000E+00 0. -1.
        -12    1    5    5    0    0 -0.22352130260E+02  0.33466731281E+02  0.58181793805E+02  0.70744335181E+02  0.00000000000E+00 0.  1.
          5    1    4    4  501    0  0.12111743112E+02 -0.82509696194E+02 -0.71057730218E+02  0.10964131389E+03  0.41800000000E+01 0. -1.
         -5    1    4    4    0  501 -0.96682467407E+02 -0.23052285246E+02 -0.56018769507E+02  0.11416865724E+03  0.41800000000E+01 0. -1.
</event>
<event>
11    1  0.8328696E-009  0.1387735E+03  0.7561462E-02  0.1108936E+00
         22   -1    0    0    0    0  0.00000000000E+00  0.00000000000E+00  0.12067179484E+04  0.12067179484E+04  0.00000000000E+00 0. -1.
         22   -1    0    0    0    0 -0.00000000000E+00 -0.00000000000E+00 -0.80749354932E+02  0.80749354932E+02  0.00000000000E+00 0.  1.
        -24    2    1    2    0    0 -0.53764916374E+02 -0.31891050079E+02 -0.24588507229E+02  0.99315176584E+02  0.73151926183E+02 0.  0.
         25    2    1    2    0    0  0.47293387977E+02  0.30983094052E+01  0.25051018169E+03  0.28398856100E+03  0.12509151684E+03 0.  0.
         24    2    1    2    0    0  0.64715283970E+01  0.28792740674E+02  0.90004691897E+03  0.90416356570E+03  0.80971566627E+02 0.  0.
        -13    1    5    5    0    0 -0.35207356205E+02  0.25588159041E+02  0.39537170512E+03  0.39776009984E+03  0.00000000000E+00 0.  1.
         14    1    5    5    0    0  0.41678884602E+02  0.32045816334E+01  0.50467521384E+03  0.50640346586E+03  0.00000000000E+00 0. -1.
         13    1    3    3    0    0  0.10335469056E+02  0.13067176805E+02  0.16465647666E+01  0.16741690649E+02  0.00000000000E+00 0. -1.
        -14    1    3    3    0    0 -0.64100385431E+02 -0.44958226884E+02 -0.26235071996E+02  0.82573485935E+02  0.00000000000E+00 0.  1.
          5    1    4    4  501    0 -0.33646900092E+01 -0.38455220231E+00  0.22837523243E+03  0.22843858739E+03  0.41800000000E+01 0. -1.
         -5    1    4    4    0  501  0.50658077987E+02  0.34828616075E+01  0.22134949254E+02  0.55549973616E+02  0.41800000000E+01 0. -1.
</event>
<event>
11    1  0.8328696E-009  0.2057283E+03  0.7561462E-02  0.1050545E+00
         22   -1    0    0    0    0  0.00000000000E+00  0.00000000000E+00  0.11682103295E+04  0.11682103295E+04  0.00000000000E+00 0. -1.
         22   -1    0    0    0    0 -0.00000000000E+00 -0.00000000000E+00 -0.51745476687E+03  0.51745476687E+03  0.00000000000E+00 0.  1.
        -24    2    1    2    0    0 -0.14146778366E+03  0.68189688179E+02 -0.40428295145E+03  0.44113613313E+03  0.80581733253E+02 0.  0.
         25    2    1    2    0    0  0.17867593855E+03 -0.16694287597E+03  0.11941447422E+03  0.29950448251E+03  0.12509238001E+03 0.  0.
         24    2    1    2    0    0 -0.37208154883E+02  0.98753187790E+02  0.93562403985E+03  0.94502448071E+03  0.80884400861E+02 0.  0.
        -11    1    5    5    0    0 -0.38038977265E+02  0.94284722141E+01  0.40949253282E+03  0.41136357923E+03  0.00000000000E+00 0.  1.
         12    1    5    5    0    0  0.83082238250E+00  0.89324715576E+02  0.52613150703E+03  0.53366090148E+03  0.00000000000E+00 0. -1.
         13    1    3    3    0    0  0.77119313525E+01  0.11845969190E+02 -0.61095713499E+02  0.62709545359E+02  0.00000000000E+00 0. -1.
        -14    1    3    3    0    0 -0.14917971502E+03  0.56343718989E+02 -0.34318723795E+03  0.37842658778E+03  0.00000000000E+00 0.  1.
          5    1    4    4  501    0  0.14810402735E+03 -0.55184816495E+02  0.78814761127E+02  0.17666184042E+03  0.41800000000E+01 0.  1.
         -5    1    4    4    0  501  0.30571911194E+02 -0.11175805947E+03  0.40599713090E+02  0.12284264208E+03  0.41800000000E+01 0.  1.
</event>
<event>
11    1  0.8328696E-009  0.2395751E+03  0.7561462E-02  0.1029604E+00
         22   -1    0    0    0    0  0.00000000000E+00  0.00000000000E+00  0.51030603231E+03  0.51030603231E+03  0.00000000000E+00 0. -1.
         22   -1    0    0    0    0 -0.00000000000E+00 -0.00000000000E+00 -0.28805620403E+04  0.28805620403E+04  0.00000000000E+00 0. -1.
         24    2    1    2    0    0  0.20012181060E+03 -0.49721540332E+02 -0.27070471715E+04  0.27161365277E+04  0.82293849495E+02 0.  0.
         25    2    1    2    0    0 -0.17735918016E+03  0.92008370609E+01 -0.91922989347E+02  0.23587876758E+03  0.12509205743E+03 0.  0.
        -24    2    1    2    0    0 -0.22762630442E+02  0.40520703271E+02  0.42871415288E+03  0.43885277732E+03  0.81460852870E+02 0.  0.
        -11    1    3    3    0    0  0.12160348265E+03 -0.39588376946E+01 -0.11445530520E+04  0.11510016370E+04  0.00000000000E+00 0.  1.
         12    1    3    3    0    0  0.78518327958E+02 -0.45762702637E+02 -0.15624941194E+04  0.15651348907E+04  0.00000000000E+00 0. -1.
         13    1    5    5    0    0 -0.42450840276E+02  0.46352384194E+02  0.38997839260E+03  0.39501109359E+03  0.00000000000E+00 0. -1.
        -14    1    5    5    0    0  0.19688209834E+02 -0.58316809230E+01  0.38735760274E+02  0.43841683737E+02  0.00000000000E+00 0.  1.
          5    1    4    4  501    0 -0.21726599455E+02 -0.13868156242E+02 -0.72789528937E+02  0.77331486500E+02  0.41800000000E+01 0.  1.
         -5    1    4    4    0  501 -0.15563258071E+03  0.23068993303E+02 -0.19133460410E+02  0.15854728108E+03  0.41800000000E+01 0.  1.
</event>
<event>
11    1  0.8328696E-009  0.1373248E+03  0.7561462E-02  0.1110583E+00
         22   -1    0    0    0    0  0.00000000000E+00  0.00000000000E+00  0.19725695321E+03  0.19725695321E+03  0.00000000000E+00 0.  1.
         22   -1    0    0    0    0 -0.00000000000E+00 -0.00000000000E+00 -0.98937964026E+03  0.98937964026E+03  0.00000000000E+00 0.  1.
         24    2    1    2    0    0  0.16757710036E+01 -0.26070085319E+02 -0.88142139008E+03  0.88548676500E+03  0.80626835096E+02 0.  0.
         25    2    1    2    0    0 -0.38129551321E+02  0.65136267329E+02 -0.29572626343E+02  0.14905996331E+03  0.12509091264E+03 0.  0.
        -24    2    1    2    0    0  0.36453780317E+02 -0.39066182011E+02  0.11887132938E+03  0.15208986516E+03  0.78395723482E+02 0.  0.
        -13    1    3    3    0    0  0.27119277125E+02 -0.39866909853E+02 -0.35357698292E+03  0.35684941998E+03  0.00000000000E+00 0.  1.
         14    1    3    3    0    0 -0.25443506122E+02  0.13796824535E+02 -0.52784440717E+03  0.52863734502E+03  0.00000000000E+00 0. -1.
         11    1    5    5    0    0 -0.18046610749E+02  0.20100171012E+01  0.41855579685E+01  0.18634356006E+02  0.00000000000E+00 0. -1.
        -12    1    5    5    0    0  0.54500391066E+02 -0.41076199112E+02  0.11468577141E+03  0.13345550915E+03  0.00000000000E+00 0.  1.
          5    1    4    4  501    0 -0.78872418280E+02  0.30795980994E+02 -0.41362349113E+02  0.94326916280E+02  0.41800000000E+01 0. -1.
         -5    1    4    4    0  501  0.40742866960E+02  0.34340286335E+02  0.11789722770E+02  0.54733047025E+02  0.41800000000E+01 0. -1.
</event>
<event>
11    1  0.8328696E-009  0.1765396E+03  0.7561462E-02  0.1072477E+00
         22   -1    0    0    0    0  0.00000000000E+00  0.00000000000E+00  0.13278867807E+04  0.13278867807E+04  0.00000000000E+00 0.  1.
         22   -1    0    0    0    0 -0.00000000000E+00 -0.00000000000E+00 -0.96863962430E+03  0.96863962430E+03  0.00000000000E+00 0.  1.
         24    2    1    2    0    0 -0.80602099371E+02 -0.10749775203E+03 -0.67334151135E+03  0.69129629380E+03  0.80307594903E+02 0.  0.
         25    2    1    2    0    0  0.10395260685E+02  0.11002742077E+03 -0.25957846567E+03  0.30861290188E+03  0.12508736386E+03 0.  0.
        -24    2    1    2    0    0  0.70206838686E+02 -0.25296687425E+01  0.12921671334E+04  0.12966172093E+04  0.81147319223E+02 0.  0.
        -11    1    3    3    0    0 -0.84086203045E+02 -0.11031288384E+03 -0.67260329485E+03  0.68675659016E+03  0.00000000000E+00 0.  1.
         12    1    3    3    0    0  0.34841036745E+01  0.28151318114E+01 -0.73821649861E+00  0.45397036389E+01  0.00000000000E+00 0. -1.
         13    1    5    5    0    0  0.57425738860E+01 -0.34549687692E+02  0.37660556213E+03  0.37823062740E+03  0.00000000000E+00 0. -1.
        -14    1    5    5    0    0  0.64464264800E+02  0.32020018950E+02  0.91556157127E+03  0.91838658191E+03  0.00000000000E+00 0.  1.
          5    1    4    4  501    0  0.49805449994E+02  0.30799148577E+02 -0.37873688502E+02  0.69864576739E+02  0.41800000000E+01 0.  1.
         -5    1    4    4    0  501 -0.39410189309E+02  0.79228272196E+02 -0.22170477717E+03  0.23874832514E+03  0.41800000000E+01 0.  1.
</event>
<event>
11    1  0.8328696E-009  0.1900759E+03  0.7561462E-02  0.1061772E+00
         22   -1    0    0    0    0  0.00000000000E+00  0.00000000000E+00  0.30879035812E+04  0.30879035812E+04  0.00000000000E+00 0.  1.
         22   -1    0    0    0    0 -0.00000000000E+00 -0.00000000000E+00 -0.91235973372E+02  0.91235973372E+02  0.00000000000E+00 0.  1.
         24    2    1    2    0    0 -0.72738538429E+02  0.63830331506E+02 -0.22595001491E+02  0.12816659335E+03  0.80937848779E+02 0.  0.
         25    2    1    2    0    0 -0.27749127657E+02 -0.16555433135E+03  0.84575400650E+03  0.87127686914E+03  0.12508114356E+03 0.  0.
        -24    2    1    2    0    0  0.10048766609E+03  0.10172399984E+03  0.21735086028E+04  0.21796960921E+04  0.80559693021E+02 0.  0.
        -13    1    3    3    0    0 -0.20338230123E+02  0.43133280142E+02 -0.46828771119E+02  0.66836047645E+02  0.00000000000E+00 0.  1.
         14    1    3    3    0    0 -0.52400308306E+02  0.20697051364E+02  0.24233769628E+02  0.61330545702E+02  0.00000000000E+00 0. -1.
         11    1    5    5    0    0  0.38396018042E+02  0.47952414695E+02  0.14906338989E+04  0.14918991618E+04  0.00000000000E+00 0. -1.
        -12    1    5    5    0    0  0.62091648044E+02  0.53771585149E+02  0.68287470387E+03  0.68779693029E+03  0.00000000000E+00 0.  1.
          5    1    4    4  501    0 -0.51639034225E+02 -0.10116339192E+03  0.71043261577E+03  0.71946688295E+03  0.41800000000E+01 0.  1.
         -5    1    4    4    0  501  0.23889906568E+02 -0.64390939431E+02  0.13532139074E+03  0.15180998619E+03  0.41800000000E+01 0.  1.
</event>
<event>
11    1  0.8328696E-009  0.1772393E+03  0.7561462E-02  0.1071898E+00
         22   -1    0    0    0    0  0.00000000000E+00  0.00000000000E+00  0.24724760483E+03  0.24724760483E+03  0.00000000000E+00 0. -1.
         22   -1    0    0    0    0 -0.00000000000E+00 -0.00000000000E+00 -0.67599803833E+03  0.67599803833E+03  0.00000000000E+00 0.  1.
        -24    2    1    2    0    0  0.14859537617E+02 -0.97357942374E+01 -0.55233224339E+03  0.55842559413E+03  0.80328360776E+02 0.  0.
         25    2    1    2    0    0 -0.13515491038E+03  0.20118886950E+02  0.19197917786E+02  0.18623500227E+03  0.12507316502E+03 0.  0.
         24    2    1    2    0    0  0.12029537277E+03 -0.10383092713E+02  0.10438389210E+03  0.17858504677E+03  0.80111401659E+02 0.  0.
        -13    1    5    5    0    0  0.40514738377E+02 -0.30907869838E+01 -0.71541540185E+01  0.41257470955E+02  0.00000000000E+00 0.  1.
         14    1    5    5    0    0  0.79780634389E+02 -0.72923057291E+01  0.11153804612E+03  0.13732757581E+03  0.00000000000E+00 0. -1.
         11    1    3    3    0    0 -0.28321160647E+02 -0.21697018312E+02 -0.18868542461E+03  0.19202874317E+03  0.00000000000E+00 0. -1.
        -12    1    3    3    0    0  0.43180698264E+02  0.11961224074E+02 -0.36364681878E+03  0.36639685096E+03  0.00000000000E+00 0.  1.
          5    1    4    4  501    0 -0.10430097136E+03 -0.48219748800E+01  0.66879569580E+02  0.12406568138E+03  0.41800000000E+01 0.  1.
         -5    1    4    4    0  501 -0.30853939024E+02  0.24940861830E+02 -0.47681651794E+02  0.62169320890E+02  0.41800000000E+01 0.  1.
</event>
<event>
11    1  0.8328696E-009  0.1630499E+03  0.7561462E-02  0.1084243E+00
         22   -1    0    0    0    0  0.00000000000E+00  0.00000000000E+00  0.12592049773E+04  0.12592049773E+04  0.00000000000E+00 0.  1.
         22   -1    0    0    0    0 -0.00000000000E+00 -0.00000000000E+00 -0.73539217253E+03  0.73539217253E+03  0.00000000000E+00 0. -1.
        -24    2    1    2    0    0  0.56146535626E+01 -0.23368826067E+01 -0.67071847420E+03  0.67556587752E+03  0.80554316315E+02 0.  0.
         25    2    1    2    0    0 -0.10975079748E+03  0.68612117358E+01  0.60299475086E+02  0.17713081376E+03  0.12508790795E+03 0.  0.
         24    2    1    2    0    0  0.10413614391E+03 -0.45243291291E+01  0.11342318039E+04  0.11419004585E+04  0.81179223155E+02 0.  0.
        -11    1    5    5    0    0  0.11337965869E+03 -0.10815716127E+02  0.86884967845E+03  0.87628288267E+03  0.00000000000E+00 0.  1.
         12    1    5    5    0    0 -0.92435147790E+01  0.62913869983E+01  0.26538212542E+03  0.26561757586E+03  0.00000000000E+00 0. -1.
         13    1    3    3    0    0 -0.32553242744E+02 -0.79214501251E+01 -0.46881214969E+03  0.47000776024E+03  0.00000000000E+00 0. -1.
        -14    1    3    3    0    0  0.38167896307E+02  0.55845675184E+01 -0.20190632451E+03  0.20555811728E+03  0.00000000000E+00 0.  1.
          5    1    4    4  501    0  0.14337215910E+01 -0.22863099523E+02 -0.24736834951E+02  0.33972934534E+02  0.41800000000E+01 0. -1.
         -5    1    4    4    0  501 -0.11118451907E+03  0.29724311259E+02  0.85036310037E+02  0.14315787923E+03  0.41800000000E+01 0. -1.
</event>
<event>
11    1  0.8328696E-009  0.2712465E+03  0.7561462E-02  0.1013153E+00
         22   -1    0    0    0    0  0.00000000000E+00  0.00000000000E+00  0.30896982404E+03  0.30896982404E+03  0.00000000000E+00 0. -1.
         22   -1    0    0    0    0 -0.00000000000E+00 -0.00000000000E+00 -0.17037057207E+03  0.17037057207E+03  0.00000000000E+00 0.  1.
         24    2    1    2    0    0 -0.65378759542E+02  0.12601886229E+03 -0.21238848144E+02  0.16450254192E+03  0.80342154400E+02 0.  0.
         25    2    1    2    0    0  0.25331457767E+01 -0.24735674243E+02  0.76683296359E+02  0.14881313614E+03  0.12508697430E+03 0.  0.
        -24    2    1    2    0    0  0.62845613766E+02 -0.10128318805E+03  0.83154803759E+02  0.16602471806E+03  0.80259767426E+02 0.  0.
        -13    1    3    3    0    0 -0.78182999027E+02  0.12805070096E+03 -0.17759524995E+02  0.15107933042E+03  0.00000000000E+00 0.  1.
         14    1    3    3    0    0  0.12804239485E+02 -0.20318386690E+01 -0.34793231484E+01  0.13423211491E+02  0.00000000000E+00 0. -1.
         13    1    5    5    0    0 -0.16530315287E+02 -0.98761393869E+01  0.25451033126E+02  0.31914644599E+02  0.00000000000E+00 0. -1.
        -14    1    5    5    0    0  0.79375929053E+02 -0.91407048662E+02  0.57703770632E+02  0.13411007346E+03  0.00000000000E+00 0.  1.
          5    1    4    4  501    0 -0.35468243151E+02 -0.36466443243E+02 -0.11202669692E+02  0.52256769545E+02  0.41800000000E+01 0. -1.
         -5    1    4    4    0  501  0.38001388928E+02  0.11730769000E+02  0.87885966051E+02  0.96556366597E+02  0.41800000000E+01 0. -1.
</event>
<event>
11    1  0.8328696E-009  0.1384983E+03  0.7561462E-02  0.1109247E+00
         22   -1    0    0    0    0  0.00000000000E+00  0.00000000000E+00  0.49028670947E+03  0.49028670947E+03  0.00000000000E+00 0. -1.
         22   -1    0    0    0    0 -0.00000000000E+00 -0.00000000000E+00 -0.95939252039E+03  0.95939252039E+03  0.00000000000E+00 0. -1.
        -24    2    1    2    0    0  0.44243625578E+02 -0.13048968810E+02 -0.71820691850E+03  0.72422100510E+03  0.80914229023E+02 0.  0.
         25    2    1    2    0    0 -0.43814658646E+02  0.72231330544E+02 -0.20822121605E+03  0.25716996198E+03  0.12507287919E+03 0.  0.
         24    2    1    2    0    0 -0.42896693221E+00 -0.59182361734E+02  0.45732232362E+03  0.46828826278E+03  0.81531916574E+02 0.  0.
        -13    1    5    5    0    0  0.10427147259E+02  0.15077187879E+02  0.18198997740E+03  0.18291090418E+03  0.00000000000E+00 0.  1.
         14    1    5    5    0    0 -0.10856114191E+02 -0.74259549613E+02  0.27533234623E+03  0.28537735860E+03  0.00000000000E+00 0. -1.
         13    1    3    3    0    0 -0.12237158752E+02 -0.31412050521E+02 -0.25036990874E+03  0.25262928605E+03  0.00000000000E+00 0. -1.
        -14    1    3    3    0    0  0.56480784331E+02  0.18363081711E+02 -0.46783700976E+03  0.47159171905E+03  0.00000000000E+00 0.  1.
          5    1    4    4  501    0 -0.84636651945E+02  0.36000204945E+02 -0.10024317203E+03  0.13610857265E+03  0.41800000000E+01 0.  1.
         -5    1    4    4    0  501  0.40821993299E+02  0.36231125599E+02 -0.10797804401E+03  0.12106138934E+03  0.41800000000E+01 0.  1.
</event>
<event>
11    1  0.8328696E-009  0.1506062E+03  0.7561462E-02  0.1096261E+00
         22   -1    0    0    0    0  0.00000000000E+00  0.00000000000E+00  0.12111423129E+04  0.12111423129E+04  0.00000000000E+00 0.  1.
         22   -1    0    0    0    0 -0.00000000000E+00 -0.00000000000E+00 -0.17462618148E+03  0.17462618148E+03  0.00000000000E+00 0.  1.
        -24    2    1    2    0    0 -0.37934178449E+02  0.75563175564E+02 -0.12090948885E+03  0.16808474323E+03  0.80526896235E+02 0.  0.
         25    2    1    2    0    0  0.87749917543E+02 -0.40442124866E+02  0.19960643066E+03  0.25460299382E+03  0.12507735130E+03 0.  0.
         24    2    1    2    0    0 -0.49815739094E+02 -0.35121050698E+02  0.95781918960E+03  0.96308075730E+03  0.79949040453E+02 0.  0.
        -11    1    5    5    0    0 -0.29120892466E+02 -0.59386232825E+02  0.73834170218E+03  0.74129833414E+03  0.00000000000E+00 0.  1.
         12    1    5    5    0    0 -0.20694846628E+02  0.24265182127E+02  0.21947748742E+03  0.22178242316E+03  0.00000000000E+00 0. -1.
         11    1    3    3    0    0 -0.27970829007E+02 -0.67544614528E+00 -0.41522309277E+01  0.28285411867E+02  0.00000000000E+00 0. -1.
        -12    1    3    3    0    0 -0.99633494419E+01  0.76238621709E+02 -0.11675725792E+03  0.13979933137E+03  0.00000000000E+00 0.  1.
          5    1    4    4  501    0  0.90021120131E+02 -0.74391516522E+02  0.11791401104E+03  0.16600929552E+03  0.41800000000E+01 0.  1.
         -5    1    4    4    0  501 -0.22712025881E+01  0.33949391656E+02  0.81692419617E+02  0.88593698297E+02  0.41800000000E+01 0.  1.
</event>
<event>
11    1  0.8328696E-009  0.1766794E+03  0.7561462E-02  0.1072361E+00
         22   -1    0    0    0    0  0.00000000000E+00  0.00000000000E+00  0.14399116938E+04  0.14399116938E+04  0.00000000000E+00 0. -1.
         22   -1    0    0    0    0 -0.00000000000E+00 -0.00000000000E+00 -0.15804340434E+04  0.15804340434E+04  0.00000000000E+00 0.  1.
        -24    2    1    2    0    0 -0.46832312585E+02 -0.31628917017E+02 -0.14769978222E+04  0.14802690009E+04  0.80499034662E+02 0.  0.
         25    2    1    2    0    0  0.16737854247E+03  0.62555483381E+01  0.14071571946E+02  0.20952413750E+03  0.12509055396E+03 0.  0.
         24    2    1    2    0    0 -0.12054622989E+03  0.25373368679E+02  0.13224039005E+04  0.13305525988E+04  0.80267929799E+02 0.  0.
        -11    1    5    5    0    0 -0.58643266428E+02  0.27441589626E+02  0.33447366365E+03  0.34068270460E+03  0.00000000000E+00 0.  1.
         12    1    5    5    0    0 -0.61902963461E+02 -0.20682209476E+01  0.98793023689E+03  0.98986989417E+03  0.00000000000E+00 0. -1.
         11    1    3    3    0    0 -0.42582208800E+02 -0.55699959940E+02 -0.88771834092E+03  0.89048278077E+03  0.00000000000E+00 0. -1.
        -12    1    3    3    0    0 -0.42501037851E+01  0.24071042924E+02 -0.58927948123E+03  0.58978622016E+03  0.00000000000E+00 0.  1.
          5    1    4    4  501    0  0.89556978882E+02 -0.36779705625E+02 -0.40582394332E+02  0.10505999401E+03  0.41800000000E+01 0. -1.
         -5    1    4    4    0  501  0.77821563593E+02  0.43035253963E+02  0.54653966278E+02  0.10446414348E+03  0.41800000000E+01 0. -1.
</event>
<event>
11    1  0.8328696E-009  0.1509814E+03  0.7561462E-02  0.1095880E+00
         22   -1    0    0    0    0  0.00000000000E+00  0.00000000000E+00  0.19726550997E+03  0.19726550997E+03  0.00000000000E+00 0. -1.
         22   -1    0    0    0    0 -0.00000000000E+00 -0.00000000000E+00 -0.65917502778E+03  0.65917502778E+03  0.00000000000E+00 0.  1.
         24    2    1    2    0    0  0.19770179237E+02  0.75764517245E+02 -0.47692257538E+03  0.48956289087E+03  0.78009993908E+02 0.  0.
         25    2    1    2    0    0 -0.28638972129E+02 -0.13837564882E+03 -0.98290529319E+02  0.21278062422E+03  0.12508619020E+03 0.  0.
        -24    2    1    2    0    0  0.88687928918E+01  0.62611131575E+02  0.11330358688E+03  0.15409702265E+03  0.83122682259E+02 0.  0.
        -13    1    3    3    0    0  0.19959636393E+02  0.79626512929E+01 -0.28873653714E+03  0.28953510803E+03  0.00000000000E+00 0.  1.
         14    1    3    3    0    0 -0.18945715601E+00  0.67801865952E+02 -0.18818603823E+03  0.20002778284E+03  0.00000000000E+00 0. -1.
         13    1    5    5    0    0  0.36276125481E+02  0.61559092161E+02  0.56763456027E+02  0.91255515164E+02  0.00000000000E+00 0. -1.
        -14    1    5    5    0    0 -0.27407332590E+02  0.10520394148E+01  0.56540130855E+02  0.62841507491E+02  0.00000000000E+00 0.  1.
          5    1    4    4  501    0 -0.97972660671E+01 -0.71481743433E+02  0.20472391725E+02  0.75114694232E+02  0.41800000000E+01 0.  1.
         -5    1    4    4    0  501 -0.18841706062E+02 -0.66893905387E+02 -0.11876292104E+03  0.13766592999E+03  0.41800000000E+01 0.  1.
</event>
<event>
11    1  0.8328696E-009  0.2904914E+03  0.7561462E-02  0.1004298E+00
         22   -1    0    0    0    0  0.00000000000E+00  0.00000000000E+00  0.22080357128E+04  0.22080357128E+04  0.00000000000E+00 0.  1.
         22   -1    0    0    0    0 -0.00000000000E+00 -0.00000000000E+00 -0.52070081898E+03  0.52070081898E+03  0.00000000000E+00 0. -1.
         24    2    1    2    0    0  0.24131098968E+03  0.11376208760E+03 -0.26157533154E+03  0.38220326618E+03  0.80528729591E+02 0.  0.
         25    2    1    2    0    0 -0.24393330508E+03 -0.77115916169E+02 -0.95388307402E+02  0.30032776383E+03  0.12509002631E+03 0.  0.
        -24    2    1    2    0    0  0.26223154017E+01 -0.36646171431E+02  0.20442985328E+04  0.20462055018E+04  0.80315913812E+02 0.  0.
        -13    1    3    3    0    0  0.10439823927E+03  0.93109516735E+02 -0.12226305938E+03  0.18578651770E+03  0.00000000000E+00 0.  1.
         14    1    3    3    0    0  0.13691275041E+03  0.20652570865E+02 -0.13931227217E+03  0.19641674848E+03  0.00000000000E+00 0. -1.
         13    1    5    5    0    0  0.10119536845E+02 -0.61281688587E+02  0.13459905027E+04  0.13474228304E+04  0.00000000000E+00 0. -1.
        -14    1    5    5    0    0 -0.74972214433E+01  0.24635517157E+02  0.69830803005E+03  0.69878267142E+03  0.00000000000E+00 0.  1.
          5    1    4    4  501    0 -0.16824055822E+03  0.94511138483E+01 -0.69862804872E+02  0.18246230539E+03  0.41800000000E+01 0.  1.
         -5    1    4    4    0  501 -0.75692746867E+02 -0.86567030017E+02 -0.25525502529E+02  0.11786545844E+03  0.41800000000E+01 0.  1.
</event>
<event>
11    1  0.8328696E-009  0.1435624E+03  0.7561462E-02  0.1103644E+00
         22   -1    0    0    0    0  0.00000000000E+00  0.00000000000E+00  0.50246455839E+03  0.50246455839E+03  0.00000000000E+00 0. -1.
         22   -1    0    0    0    0 -0.00000000000E+00 -0.00000000000E+00 -0.51801551072E+03  0.51801551072E+03  0.00000000000E+00 0.  1.
        -24    2    1    2    0    0  0.52436652913E+02 -0.75542696404E+01 -0.45375728531E+03  0.46450318596E+03  0.84028960710E+02 0.  0.
         25    2    1    2    0    0 -0.10768466978E+03 -0.27333680638E+02  0.83952929308E+02  0.18718705164E+03  0.12509108586E+03 0.  0.
         24    2    1    2    0    0  0.55248016864E+02  0.34887950278E+02  0.35425340367E+03  0.36878983150E+03  0.78999704834E+02 0.  0.
        -11    1    5    5    0    0 -0.17905419147E+02  0.14385156817E+02  0.13009542102E+03  0.13210736293E+03  0.00000000000E+00 0.  1.
         12    1    5    5    0    0  0.73153436011E+02  0.20502793461E+02  0.22415798266E+03  0.23668246857E+03  0.00000000000E+00 0. -1.
         13    1    3    3    0    0  0.14675052101E+02  0.50131114989E+00 -0.73340485200E+01  0.16413309682E+02  0.00000000000E+00 0. -1.
        -14    1    3    3    0    0  0.37761600812E+02 -0.80555807903E+01 -0.44642323679E+03  0.44808987628E+03  0.00000000000E+00 0.  1.
          5    1    4    4  501    0 -0.81184149854E+02  0.25105538901E+02  0.94706027881E+02  0.12731008753E+03  0.41800000000E+01 0. -1.
         -5    1    4    4    0  501 -0.26500519923E+02 -0.52439219539E+02 -0.10753098573E+02  0.59876964109E+02  0.41800000000E+01 0. -1.
</event>
<event>
11    1  0.8328696E-009  0.1303288E+03  0.7561462E-02  0.1118866E+00
         22   -1    0    0    0    0  0.00000000000E+00  0.00000000000E+00  0.51857641884E+03  0.51857641884E+03  0.00000000000E+00 0. -1.
         22   -1    0    0    0    0 -0.00000000000E+00 -0.00000000000E+00 -0.73594272124E+03  0.73594272124E+03  0.00000000000E+00 0. -1.
        -24    2    1    2    0    0  0.14083192489E+02 -0.21148839726E+02 -0.68243010615E+03  0.68737169521E+03  0.78252078897E+02 0.  0.
         25    2    1    2    0    0  0.13372195712E+02 -0.63240825116E+01  0.39058691299E+02  0.13187780390E+03  0.12508942465E+03 0.  0.
         24    2    1    2    0    0 -0.27455388200E+02  0.27472922237E+02  0.42600511246E+03  0.43526964097E+03  0.80440939248E+02 0.  0.
        -11    1    5    5    0    0 -0.27668157513E+02  0.36964397441E+02  0.11230817278E+03  0.12142907103E+03  0.00000000000E+00 0.  1.
         12    1    5    5    0    0  0.21276931242E+00 -0.94914752037E+01  0.31369693968E+03  0.31384056994E+03  0.00000000000E+00 0. -1.
         13    1    3    3    0    0  0.19830436237E+02  0.26696810552E+02 -0.32774097319E+03  0.32942390837E+03  0.00000000000E+00 0. -1.
        -14    1    3    3    0    0 -0.57472437480E+01 -0.47845650277E+02 -0.35468913296E+03  0.35794778684E+03  0.00000000000E+00 0.  1.
          5    1    4    4  501    0  0.50193072048E+02 -0.40548038962E+02 -0.50667142987E+01  0.64858553322E+02  0.41800000000E+01 0.  1.
         -5    1    4    4    0  501 -0.36820876336E+02  0.34223956450E+02  0.44125405598E+02  0.67019250581E+02  0.41800000000E+01 0.  1.
</event>
<event>
11    1  0.8328696E-009  0.1307668E+03  0.7561462E-02  0.1118330E+00
         22   -1    0    0    0    0  0.00000000000E+00  0.00000000000E+00  0.41610495057E+03  0.41610495057E+03  0.00000000000E+00 0.  1.
         22   -1    0    0    0    0 -0.00000000000E+00 -0.00000000000E+00 -0.29042846078E+03  0.29042846078E+03  0.00000000000E+00 0.  1.
         24    2    1    2    0    0 -0.77134419745E+01 -0.34379506785E+02 -0.18034070368E+03  0.20016457230E+03  0.79382862930E+02 0.  0.
         25    2    1    2    0    0  0.10888088649E+02  0.50873901367E+02 -0.47437666293E+02  0.14354441040E+03  0.12509181132E+03 0.  0.
        -24    2    1    2    0    0 -0.31746466746E+01 -0.16494394582E+02  0.35345485976E+03  0.36282442864E+03  0.80181573292E+02 0.  0.
        -11    1    3    3    0    0 -0.97068562318E+01 -0.30960835372E+02 -0.18840661327E+03  0.19118014622E+03  0.00000000000E+00 0.  1.
         12    1    3    3    0    0  0.19934142573E+01 -0.34186714139E+01  0.80659095860E+01  0.89844260855E+01  0.00000000000E+00 0. -1.
         13    1    5    5    0    0  0.11298445448E+02  0.69454596294E+01  0.64857761766E+01  0.14763453919E+02  0.00000000000E+00 0. -1.
        -14    1    5    5    0    0 -0.14473092122E+02 -0.23439854211E+02  0.34696908359E+03  0.34806097472E+03  0.00000000000E+00 0.  1.
          5    1    4    4  501    0  0.31231233381E+01 -0.24817123796E+02 -0.61075028668E+02  0.66130742168E+02  0.41800000000E+01 0. -1.
         -5    1    4    4    0  501  0.77649653110E+01  0.75691025163E+02  0.13637362375E+02  0.77413668232E+02  0.41800000000E+01 0. -1.
</event>
<event>
11    1  0.8328696E-009  0.1802352E+03  0.7561462E-02  0.1069453E+00
         22   -1    0    0    0    0  0.00000000000E+00  0.00000000000E+00  0.14153563602E+04  0.14153563602E+04  0.00000000000E+00 0.  1.
         22   -1    0    0    0    0 -0.00000000000E+00 -0.00000000000E+00 -0.54087263503E+03  0.54087263503E+03  0.00000000000E+00 0.  1.
        -24    2    1    2    0    0  0.71370126872E+01  0.12970705522E+03 -0.51063462990E+03  0.53352086851E+03  0.83796985349E+02 0.  0.
         25    2    1    2    0    0  0.17333247478E+02 -0.12506531062E+03  0.44907688060E+03  0.48296850437E+03  0.12508700227E+03 0.  0.
         24    2    1    2    0    0 -0.24470260165E+02 -0.46417445928E+01  0.93604147448E+03  0.93973962235E+03  0.79476892502E+02 0.  0.
        -11    1    5    5    0    0  0.13513294617E+02  0.98411846150E+01  0.70165355488E+03  0.70185266910E+03  0.00000000000E+00 0.  1.
         12    1    5    5    0    0 -0.37983554782E+02 -0.14482929208E+02  0.23438791960E+03  0.23788695325E+03  0.00000000000E+00 0. -1.
         13    1    3    3    0    0 -0.64905510096E+01  0.12771863187E+01  0.19490037173E+00  0.66178881417E+01  0.00000000000E+00 0. -1.
        -14    1    3    3    0    0  0.13627563697E+02  0.12842986890E+03 -0.51082953028E+03  0.52690298037E+03  0.00000000000E+00 0.  1.
          5    1    4    4  501    0  0.68435837884E+02 -0.87690547401E+02  0.24166370136E+03  0.26606749701E+03  0.41800000000E+01 0. -1.
         -5    1    4    4    0  501 -0.51102590405E+02 -0.37374763222E+02  0.20741317924E+03  0.21690100736E+03  0.41800000000E+01 0. -1.
</event>
<event>
11    1  0.8328696E-009  0.1422079E+03  0.7561462E-02  0.1105118E+00
         22   -1    0    0    0    0  0.00000000000E+00  0.00000000000E+00  0.11363906059E+04  0.11363906059E+04  0.00000000000E+00 0. -1.
         22   -1    0    0    0    0 -0.00000000000E+00 -0.00000000000E+00 -0.65869492648E+03  0.65869492648E+03  0.00000000000E+00 0. -1.
         24    2    1    2    0    0 -0.40926340892E+02 -0.36387145012E+02 -0.43805444226E+03  0.44878260181E+03  0.80716414681E+02 0.  0.
         25    2    1    2    0    0  0.10803898662E+03  0.34603030152E+02 -0.17925127149E+03  0.24627959634E+03  0.12511126614E+03 0.  0.
        -24    2    1    2    0    0 -0.67112645729E+02  0.17841148602E+01  0.10950013932E+04  0.11000233342E+04  0.80721710407E+02 0.  0.
        -13    1    3    3    0    0 -0.18419274800E+02 -0.45788710799E+02 -0.11943372766E+03  0.12922960583E+03  0.00000000000E+00 0.  1.
         14    1    3    3    0    0 -0.22507066091E+02  0.94015657877E+01 -0.31862071460E+03  0.31955299598E+03  0.00000000000E+00 0. -1.
         13    1    5    5    0    0 -0.70947788281E+02  0.15432196376E+02  0.10565487301E+04  0.10590405849E+04  0.00000000000E+00 0. -1.
        -14    1    5    5    0    0  0.38351425520E+01 -0.13648081515E+02  0.38452663082E+02  0.40982749365E+02  0.00000000000E+00 0.  1.
          5    1    4    4  501    0  0.29373994238E+02  0.74555823469E+02 -0.77827139083E+02  0.11178523305E+03  0.41800000000E+01 0. -1.
         -5    1    4    4    0  501  0.78664992382E+02 -0.39952793318E+02 -0.10142413241E+03  0.13449436328E+03  0.41800000000E+01 0. -1.
</event>
<event>
11    1  0.8328696E-009  0.2058231E+03  0.7561462E-02  0.1050481E+00
         22   -1    0    0    0    0  0.00000000000E+00  0.00000000000E+00  0.72267604706E+02  0.72267604706E+02  0.00000000000E+00 0. -1.
         22   -1    0    0    0    0 -0.00000000000E+00 -0.00000000000E+00 -0.12226997311E+04  0.12226997311E+04  0.00000000000E+00 0. -1.
        -24    2    1    2    0    0 -0.10964183008E+03  0.10422102097E+03 -0.51288177657E+03  0.54123926678E+03  0.83719024439E+02 0.  0.
         25    2    1    2    0    0  0.12008863187E+03 -0.13356604252E+03 -0.62983865781E+03  0.66678628268E+03  0.12508415044E+03 0.  0.
         24    2    1    2    0    0 -0.10446801781E+02  0.29345021551E+02 -0.77116919888E+01  0.86941786312E+02  0.80803081974E+02 0.  0.
        -11    1    5    5    0    0  0.13318326927E+02 -0.21704696941E+02 -0.15926485870E+02  0.30035390019E+02  0.00000000000E+00 0.  1.
         12    1    5    5    0    0 -0.23765128708E+02  0.51049718492E+02  0.82147938811E+01  0.56906396293E+02  0.00000000000E+00 0. -1.
         11    1    3    3    0    0 -0.11014779944E+03  0.98951852730E+02 -0.51475251515E+03  0.53562501690E+03  0.00000000000E+00 0. -1.
        -12    1    3    3    0    0  0.50596935666E+00  0.52691682366E+01  0.18707385768E+01  0.56142498803E+01  0.00000000000E+00 0.  1.
          5    1    4    4  501    0  0.12783992153E+03 -0.57473592451E+02 -0.36205823337E+03  0.38826523939E+03  0.41800000000E+01 0. -1.
         -5    1    4    4    0  501 -0.77512896599E+01 -0.76092450067E+02 -0.26778042443E+03  0.27852104329E+03  0.41800000000E+01 0. -1.
</event>
<event>
11    1  0.8328696E-009  0.1545699E+03  0.7561462E-02  0.1092299E+00
         22   -1    0    0    0    0  0.00000000000E+00  0.00000000000E+00  0.14291897710E+04  0.14291897710E+04  0.00000000000E+00 0. -1.
         22   -1    0    0    0    0 -0.00000000000E+00 -0.00000000000E+00 -0.21840435557E+03  0.21840435557E+03  0.00000000000E+00 0. -1.
         24    2    1    2    0    0 -0.58978642495E+02  0.67603049888E+02 -0.17342563195E+03  0.20927800634E+03  0.75313886452E+02 0.  0.
         25    2    1    2    0    0  0.61293318175E+02 -0.88136124721E+02  0.24053537532E+03  0.29160101242E+03  0.12509610838E+03 0.  0.
        -24    2    1    2    0    0 -0.23146756794E+01  0.20533074833E+02  0.11436756720E+04  0.11467151078E+04  0.80836444313E+02 0.  0.
        -13    1    3    3    0    0 -0.34646178782E+02 -0.97921814509E+01 -0.52678555094E+02  0.63806541111E+02  0.00000000000E+00 0.  1.
         14    1    3    3    0    0 -0.24332463713E+02  0.77395231339E+02 -0.12074707686E+03  0.14547146523E+03  0.00000000000E+00 0. -1.
         11    1    5    5    0    0  0.16443192855E+02  0.19223904209E+02  0.10806063865E+04  0.10809024469E+04  0.00000000000E+00 0. -1.
        -12    1    5    5    0    0 -0.18757868534E+02  0.13091706235E+01  0.63069285489E+02  0.65812660877E+02  0.00000000000E+00 0.  1.
          5    1    4    4  501    0  0.27669805662E+02 -0.70392802067E+02  0.24174429436E+03  0.25333483966E+03  0.41800000000E+01 0.  1.
         -5    1    4    4    0  501  0.33623512513E+02 -0.17743322655E+02 -0.12089190455E+01  0.38266172761E+02  0.41800000000E+01 0.  1.
</event>
<event>
11    1  0.8328696E-009  0.1416033E+03  0.7561462E-02  0.1105781E+00
         22   -1    0    0    0    0  0.00000000000E+00  0.00000000000E+00  0.37162923545E+03  0.37162923545E+03  0.00000000000E+00 0. -1.
         22   -1    0    0    0    0 -0.00000000000E+00 -0.00000000000E+00 -0.25972709474E+04  0.25972709474E+04  0.00000000000E+00 0. -1.
        -24    2    1    2    0    0 -0.35299980471E+02  0.55540737385E+02 -0.25364361327E+04  0.25396654436E+04  0.10982462434E+03 0.  0.
         25    2    1    2    0    0  0.69954964025E+02 -0.96627719640E+02  0.10628954142E+03  0.20291854804E+03  0.12509139591E+03 0.  0.
         24    2    1    2    0    0 -0.34654983554E+02  0.41086982255E+02  0.20450487936E+03  0.22631619115E+03  0.80670097919E+02 0.  0.
        -11    1    5    5    0    0 -0.24710197386E+02 -0.54016353531E+01  0.11940984292E+02  0.27970674378E+02  0.00000000000E+00 0.  1.
         12    1    5    5    0    0 -0.99447861682E+01  0.46488617608E+02  0.19256389507E+03  0.19834551677E+03  0.00000000000E+00 0. -1.
         13    1    3    3    0    0  0.14351299519E+02  0.73580663853E+02 -0.14108394602E+04  0.14128298044E+04  0.00000000000E+00 0. -1.
        -14    1    3    3    0    0 -0.49651279989E+02 -0.18039926468E+02 -0.11255966726E+04  0.11268356392E+04  0.00000000000E+00 0.  1.
          5    1    4    4  501    0 -0.93776992580E+01 -0.64809401103E+02  0.96621609192E+02  0.11679643607E+03  0.41800000000E+01 0. -1.
         -5    1    4    4    0  501  0.79332663283E+02 -0.31818318537E+02  0.96679322236E+01  0.86122111978E+02  0.41800000000E+01 0. -1.
</event>
<event>
11    1  0.8328696E-009  0.1383695E+03  0.7561462E-02  0.1109393E+00
         22   -1    0    0    0    0  0.00000000000E+00  0.00000000000E+00  0.48548829664E+02  0.48548829664E+02  0.00000000000E+00 0.  1.
         22   -1    0    0    0    0 -0.00000000000E+00 -0.00000000000E+00 -0.18145139312E+04  0.18145139312E+04  0.00000000000E+00 0.  1.
        -24    2    1    2    0    0 -0.47132227447E+01 -0.19962507469E+02 -0.13101482535E+04  0.13129435245E+04  0.83135649179E+02 0.  0.
         25    2    1    2    0    0  0.52258474820E+02  0.51542190803E+02 -0.42207202811E+03  0.44629478888E+03  0.12508675409E+03 0.  0.
         24    2    1    2    0    0 -0.47545252075E+02 -0.31579683334E+02 -0.33744819977E+02  0.10382444754E+03  0.79893526886E+02 0.  0.
        -11    1    5    5    0    0 -0.46876575240E+02 -0.24138102300E+02  0.14755465343E+02  0.54752032350E+02  0.00000000000E+00 0.  1.
         12    1    5    5    0    0 -0.66867683501E+00 -0.74415810340E+01 -0.48500285320E+02  0.49072415195E+02  0.00000000000E+00 0. -1.
         11    1    3    3    0    0 -0.27565142580E+02  0.44461205944E+01 -0.16788538847E+03  0.17019138854E+03  0.00000000000E+00 0. -1.
        -12    1    3    3    0    0  0.22851919835E+02 -0.24408628064E+02 -0.11422628650E+04  0.11427521359E+04  0.00000000000E+00 0.  1.
          5    1    4    4  501    0 -0.28627797015E+02  0.17293077193E+01 -0.25892558855E+02  0.38864357337E+02  0.41800000000E+01 0. -1.
         -5    1    4    4    0  501  0.80886271835E+02  0.49812883084E+02 -0.39617946925E+03  0.40743043155E+03  0.41800000000E+01 0. -1.
</event>
<event>
11    1  0.8328696E-009  0.2768536E+03  0.7561462E-02  0.1010493E+00
         22   -1    0    0    0    0  0.00000000000E+00  0.00000000000E+00  0.11033099749E+04  0.11033099749E+04  0.00000000000E+00 0. -1.
         22   -1    0    0    0    0 -0.00000000000E+00 -0.00000000000E+00 -0.70722625484E+03  0.70722625484E+03  0.00000000000E+00 0.  1.
        -24    2    1    2    0    0  0.71019331347E+02 -0.22807840729E+03 -0.57069151779E+03  0.62394936837E+03  0.80996916685E+02 0.  0.
         25    2    1    2    0    0 -0.60945757734E+02  0.34864424765E+03  0.24000643314E+03  0.44555277876E+03  0.12508794470E+03 0.  0.
         24    2    1    2    0    0 -0.10073573612E+02 -0.12056584036E+03  0.72676880470E+03  0.74103408260E+03  0.79378947756E+02 0.  0.
        -11    1    5    5    0    0  0.29837071395E+02 -0.35765332221E+02  0.16284434160E+03  0.16937440601E+03  0.00000000000E+00 0.  1.
         12    1    5    5    0    0 -0.39910645008E+02 -0.84800508136E+02  0.56392446310E+03  0.57165967660E+03  0.00000000000E+00 0. -1.
         13    1    3    3    0    0 -0.15885239899E+02 -0.44443845902E+02 -0.80344033134E+02  0.93181328309E+02  0.00000000000E+00 0. -1.
        -14    1    3    3    0    0  0.86904571246E+02 -0.18363456139E+03 -0.49034748465E+03  0.53076804006E+03  0.00000000000E+00 0.  1.
          5    1    4    4  501    0 -0.96918282707E+02  0.29164859549E+03  0.18773984478E+03  0.36016076756E+03  0.41800000000E+01 0.  1.
         -5    1    4    4    0  501  0.35972524973E+02  0.56995652165E+02  0.52266588358E+02  0.85392011203E+02  0.41800000000E+01 0.  1.
</event>
<event>
11    1  0.8328696E-009  0.1589166E+03  0.7561462E-02  0.1088101E+00
         22   -1    0    0    0    0  0.00000000000E+00  0.00000000000E+00  0.12797880942E+04  0.12797880942E+04  0.00000000000E+00 0.  1.
         22   -1    0    0    0    0 -0.00000000000E+00 -0.00000000000E+00 -0.62869719476E+02  0.62869719476E+02  0.00000000000E+00 0. -1.
         24    2    1    2    0    0 -0.97232113442E+02 -0.51208229002E+01  0.90790863712E+02  0.15562174709E+03  0.80590573403E+02 0.  0.
         25    2    1    2    0    0  0.88931481164E+02  0.69193779011E+02  0.23011641235E+03  0.28512691075E+03  0.12508878690E+03 0.  0.
        -24    2    1    2    0    0  0.83006322781E+01 -0.64072956110E+02  0.89601109863E+03  0.90190915580E+03  0.80187232484E+02 0.  0.
        -11    1    3    3    0    0 -0.45374773960E+01 -0.33143517282E+01 -0.14368919043E+02  0.15428527569E+02  0.00000000000E+00 0.  1.
         12    1    3    3    0    0 -0.92694636046E+02 -0.18064711719E+01  0.10515978275E+03  0.14019321952E+03  0.00000000000E+00 0. -1.
         11    1    5    5    0    0 -0.19046876814E+02 -0.30498719729E+01  0.55777432577E+02  0.59018702293E+02  0.00000000000E+00 0. -1.
        -12    1    5    5    0    0  0.27347509092E+02 -0.61023084137E+02  0.84023366605E+03  0.84289045351E+03  0.00000000000E+00 0.  1.
          5    1    4    4  501    0  0.15919095191E+02  0.73040279557E+02  0.18383038759E+03  0.19849278030E+03  0.41800000000E+01 0. -1.
         -5    1    4    4    0  501  0.73012385973E+02 -0.38465005468E+01  0.46286024766E+02  0.86634130460E+02  0.41800000000E+01 0. -1.
</event>
<event>
11    1  0.9831165E-009  0.1604228E+03  0.7561462E-02  0.1086680E+00
         22   -1    0    0    0    0  0.00000000000E+00  0.00000000000E+00  0.87927460166E+03  0.87927460166E+03  0.00000000000E+00 0.  1.
         22   -1    0    0    0    0 -0.00000000000E+00 -0.00000000000E+00 -0.96131586686E+03  0.96131586686E+03  0.00000000000E+00 0. -1.
        -24    2    1    2    0    0 -0.45264841440E+02 -0.19713588132E+02 -0.75057557623E+03  0.75647577404E+03  0.80339091577E+02 0.  0.
         25    2    1    2    0    0  0.12871907712E+03 -0.35007078223E+02 -0.16166819856E+03  0.24408656570E+03  0.12509016265E+03 0.  0.
         24    2    1    2    0    0 -0.83454235683E+02  0.54720666356E+02  0.83020250959E+03  0.84002812879E+03  0.80324899231E+02 0.  0.
        -13    1    5    5    0    0 -0.55353004039E+02  0.21117413429E+02  0.70304705525E+03  0.70553884521E+03  0.00000000000E+00 0.  1.
         14    1    5    5    0    0 -0.28101231644E+02  0.33603252926E+02  0.12715545434E+03  0.13448928357E+03  0.00000000000E+00 0. -1.
         11    1    3    3    0    0 -0.46708532075E+02  0.22114957326E+02 -0.46186687138E+03  0.46474914221E+03  0.00000000000E+00 0. -1.
        -12    1    3    3    0    0  0.14436906354E+01 -0.41828545458E+02 -0.28870870485E+03  0.29172663183E+03  0.00000000000E+00 0.  1.
          5    1    4    4  501    0 -0.23955503135E+02  0.25741576335E+01 -0.31789693284E+02  0.40106725334E+02  0.41800000000E+01 0. -1.
         -5    1    4    4    0  501  0.15267458026E+03 -0.37581235857E+02 -0.12987850527E+03  0.20397984037E+03  0.41800000000E+01 0. -1.
</event>
<event>
11    1  0.8328696E-009  0.1606517E+03  0.7561462E-02  0.1086466E+00
         22   -1    0    0    0    0  0.00000000000E+00  0.00000000000E+00  0.39407633357E+03  0.39407633357E+03  0.00000000000E+00 0. -1.
         22   -1    0    0    0    0 -0.00000000000E+00 -0.00000000000E+00 -0.10370433523E+04  0.10370433523E+04  0.00000000000E+00 0.  1.
         24    2    1    2    0    0 -0.50080887820E+02 -0.45124384076E+02 -0.82539432642E+03  0.83201330337E+03  0.80162569425E+02 0.  0.
         25    2    1    2    0    0  0.12754532683E+03  0.10226304156E+03 -0.13970180154E+03  0.24877832252E+03  0.12509404598E+03 0.  0.
        -24    2    1    2    0    0 -0.77464439006E+02 -0.57138657485E+02  0.32212910918E+03  0.35032806003E+03  0.98473454148E+02 0.  0.
        -13    1    3    3    0    0 -0.62638783923E+02 -0.73048462099E+01 -0.42714719361E+03  0.43177737671E+03  0.00000000000E+00 0.  1.
         14    1    3    3    0    0  0.12557896103E+02 -0.37819537866E+02 -0.39824713280E+03  0.40023592665E+03  0.00000000000E+00 0. -1.
         13    1    5    5    0    0 -0.86399151699E+02 -0.62328307022E+02  0.32284728013E+03  0.33997058337E+03  0.00000000000E+00 0. -1.
        -14    1    5    5    0    0  0.89347126926E+01  0.51896495369E+01 -0.71817094782E+00  0.10357476658E+02  0.00000000000E+00 0.  1.
          5    1    4    4  501    0  0.54146012362E+02  0.11783296568E+03 -0.99832403528E+02  0.16370821497E+03  0.41800000000E+01 0.  1.
         -5    1    4    4    0  501  0.73399314464E+02 -0.15569924117E+02 -0.39869398009E+02  0.85070107549E+02  0.41800000000E+01 0.  1.
</event>
<event>
11    1  0.8328696E-009  0.1837344E+03  0.7561462E-02  0.1066662E+00
         22   -1    0    0    0    0  0.00000000000E+00  0.00000000000E+00  0.27211418155E+03  0.27211418155E+03  0.00000000000E+00 0. -1.
         22   -1    0    0    0    0 -0.00000000000E+00 -0.00000000000E+00 -0.98189566289E+03  0.98189566289E+03  0.00000000000E+00 0. -1.
         24    2    1    2    0    0  0.12428031579E+03  0.65628682209E+02 -0.87384295003E+03  0.88862609933E+03  0.79385907183E+02 0.  0.
         25    2    1    2    0    0 -0.82750532370E+02 -0.19574709432E+02 -0.24202858717E+02  0.15318165171E+03  0.12509204688E+03 0.  0.
        -24    2    1    2    0    0 -0.41529783420E+02 -0.46053972777E+02  0.18826432741E+03  0.21220209342E+03  0.75766616369E+02 0.  0.
        -13    1    3    3    0    0  0.10388602377E+03  0.84272496638E+02 -0.71974600859E+03  0.73207136025E+03  0.00000000000E+00 0.  1.
         14    1    3    3    0    0  0.20394292022E+02 -0.18643814429E+02 -0.15409694144E+03  0.15655473907E+03  0.00000000000E+00 0. -1.
         11    1    5    5    0    0 -0.86426007956E+01  0.30603510720E-01  0.13234255889E+03  0.13262446373E+03  0.00000000000E+00 0. -1.
        -12    1    5    5    0    0 -0.32887182624E+02 -0.46084576288E+02  0.55921768514E+02  0.79577629685E+02  0.00000000000E+00 0.  1.
          5    1    4    4  501    0 -0.73524318318E+02 -0.68565332467E+02 -0.22609678174E+02  0.10312953092E+03  0.41800000000E+01 0. -1.
         -5    1    4    4    0  501 -0.92262140521E+01  0.48990623035E+02 -0.15931805428E+01  0.50052120788E+02  0.41800000000E+01 0. -1.
</event>
<event>
11    1  0.8328696E-009  0.1852449E+03  0.7561462E-02  0.1065478E+00
         22   -1    0    0    0    0  0.00000000000E+00  0.00000000000E+00  0.11140524493E+04  0.11140524493E+04  0.00000000000E+00 0.  1.
         22   -1    0    0    0    0 -0.00000000000E+00 -0.00000000000E+00 -0.22653679671E+03  0.22653679671E+03  0.00000000000E+00 0. -1.
        -24    2    1    2    0    0 -0.10485307007E+01  0.66364510582E+02 -0.16957363647E+03  0.19941981078E+03  0.81287730092E+02 0.  0.
         25    2    1    2    0    0 -0.77292036137E+02  0.57753667350E+02  0.14691564684E+03  0.21573509132E+03  0.12509147613E+03 0.  0.
         24    2    1    2    0    0  0.78340566837E+02 -0.12411817793E+03  0.91017364219E+03  0.92543434387E+03  0.80436927863E+02 0.  0.
        -11    1    5    5    0    0  0.54100964980E+02 -0.71699157776E+02  0.74622541943E+03  0.75161164190E+03  0.00000000000E+00 0.  1.
         12    1    5    5    0    0  0.24239601857E+02 -0.52419020156E+02  0.16394822276E+03  0.17382270196E+03  0.00000000000E+00 0. -1.
         11    1    3    3    0    0 -0.37169420779E+02  0.37964488190E+02 -0.12305130668E+03  0.13403168387E+03  0.00000000000E+00 0. -1.
        -12    1    3    3    0    0  0.36120890078E+02  0.28400022392E+02 -0.46522329794E+02  0.65388126914E+02  0.00000000000E+00 0.  1.
          5    1    4    4  501    0 -0.14285662083E+02  0.44587133280E+02 -0.82243394571E+01  0.47720066584E+02  0.41800000000E+01 0.  1.
         -5    1    4    4    0  501 -0.63006374054E+02  0.13166534070E+02  0.15513998630E+03  0.16801502474E+03  0.41800000000E+01 0.  1.
</event>
<event>
11    1  0.8328696E-009  0.1492989E+03  0.7561462E-02  0.1097597E+00
         22   -1    0    0    0    0  0.00000000000E+00  0.00000000000E+00  0.73253696917E+02  0.73253696917E+02  0.00000000000E+00 0. -1.
         22   -1    0    0    0    0 -0.00000000000E+00 -0.00000000000E+00 -0.27457962993E+04  0.27457962993E+04  0.00000000000E+00 0.  1.
        -24    2    1    2    0    0 -0.62409134003E+02 -0.54283898598E+02 -0.22684551817E+04  0.22710987803E+04  0.71826991470E+02 0.  0.
         25    2    1    2    0    0  0.63665852192E+02  0.34396834011E+02 -0.43547660554E+03  0.45882937374E+03  0.12509211531E+03 0.  0.
         24    2    1    2    0    0 -0.12567181889E+01  0.19887064586E+02  0.31389184890E+02  0.89121842172E+02  0.80995969934E+02 0.  0.
        -11    1    5    5    0    0 -0.12838288272E+01 -0.31700626025E+02  0.14046900861E+02  0.34697166032E+02  0.00000000000E+00 0.  1.
         12    1    5    5    0    0  0.27110638254E-01  0.51587690611E+02  0.17342284029E+02  0.54424676140E+02  0.00000000000E+00 0. -1.
         13    1    3    3    0    0 -0.63221340345E+01 -0.32206632045E+02 -0.31325762556E+03  0.31497234244E+03  0.00000000000E+00 0. -1.
        -14    1    3    3    0    0 -0.56086999969E+02 -0.22077266552E+02 -0.19551975561E+04  0.19561264378E+04  0.00000000000E+00 0.  1.
          5    1    4    4  501    0 -0.37462208864E+02  0.14374127643E+02 -0.99500719902E+02  0.10736805065E+03  0.41800000000E+01 0.  1.
         -5    1    4    4    0  501  0.10112806106E+03  0.20022706368E+02 -0.33597588564E+03  0.35146132310E+03  0.41800000000E+01 0.  1.
</event>
<event>
11    1  0.8328696E-009  0.1317663E+03  0.7561462E-02  0.1117118E+00
         22   -1    0    0    0    0  0.00000000000E+00  0.00000000000E+00  0.14212109874E+04  0.14212109874E+04  0.00000000000E+00 0. -1.
         22   -1    0    0    0    0 -0.00000000000E+00 -0.00000000000E+00 -0.23457240184E+03  0.23457240184E+03  0.00000000000E+00 0.  1.
        -24    2    1    2    0    0 -0.30700946802E+01 -0.41693736963E+02 -0.21049154467E+03  0.23420077333E+03  0.93784426585E+02 0.  0.
         25    2    1    2    0    0  0.51569911491E+02  0.20751109139E+02  0.47247609655E+03  0.49190591496E+03  0.12509077929E+03 0.  0.
         24    2    1    2    0    0 -0.48499816811E+02  0.20942627825E+02  0.92465403370E+03  0.92967670097E+03  0.80764227254E+02 0.  0.
        -13    1    5    5    0    0  0.96204908755E+01 -0.25025242020E+00  0.14381732996E+02  0.17304644316E+02  0.00000000000E+00 0.  1.
         14    1    5    5    0    0 -0.58120307686E+02  0.21192880245E+02  0.91027230070E+03  0.91237205665E+03  0.00000000000E+00 0. -1.
         11    1    3    3    0    0 -0.89633298328E+01  0.23211501170E+02 -0.17280400878E+02  0.30294014636E+02  0.00000000000E+00 0. -1.
        -12    1    3    3    0    0  0.58932351526E+01 -0.64905238134E+02 -0.19321114379E+03  0.20390675870E+03  0.00000000000E+00 0.  1.
          5    1    4    4  501    0  0.42140463223E+02  0.24592229520E+02  0.47735954024E+03  0.47986477205E+03  0.41800000000E+01 0.  1.
         -5    1    4    4    0  501  0.94294482680E+01 -0.38411203812E+01 -0.48834436905E+01  0.12041142915E+02  0.41800000000E+01 0.  1.
</event>
<event>
11    1  0.8328696E-009  0.1341430E+03  0.7561462E-02  0.1114281E+00
         22   -1    0    0    0    0  0.00000000000E+00  0.00000000000E+00  0.50857584921E+03  0.50857584921E+03  0.00000000000E+00 0. -1.
         22   -1    0    0    0    0 -0.00000000000E+00 -0.00000000000E+00 -0.50957769274E+03  0.50957769274E+03  0.00000000000E+00 0.  1.
         24    2    1    2    0    0 -0.39374666248E+02  0.19839494284E+02 -0.38137862143E+03  0.38719592791E+03  0.50269909825E+02 0.  0.
         25    2    1    2    0    0  0.83430692852E+02 -0.25723276677E+01 -0.73825311950E+02  0.16753395232E+03  0.12510056401E+03 0.  0.
        -24    2    1    2    0    0 -0.44056026604E+02 -0.17267166616E+02  0.45420208985E+03  0.46342366172E+03  0.78885127165E+02 0.  0.
        -13    1    3    3    0    0 -0.24443427426E+02  0.33381373363E+02 -0.31822579709E+03  0.32090412145E+03  0.00000000000E+00 0.  1.
         14    1    3    3    0    0 -0.14931238822E+02 -0.13541879079E+02 -0.63152824339E+02  0.66291806460E+02  0.00000000000E+00 0. -1.
         11    1    5    5    0    0 -0.33007549121E+02  0.27539819237E+02  0.27675618142E+03  0.28007485410E+03  0.00000000000E+00 0. -1.
        -12    1    5    5    0    0 -0.11048477483E+02 -0.44806985853E+02  0.17744590843E+03  0.18334880762E+03  0.00000000000E+00 0.  1.
          5    1    4    4  501    0  0.44414101110E+02  0.52042565734E+02 -0.73196873618E+02  0.10028108362E+03  0.41800000000E+01 0.  1.
         -5    1    4    4    0  501  0.39016591743E+02 -0.54614893401E+02 -0.62843833241E+00  0.67252868691E+02  0.41800000000E+01 0.  1.
</event>
<event>
11    1  0.8328696E-009  0.1572494E+03  0.7561462E-02  0.1089693E+00
         22   -1    0    0    0    0  0.00000000000E+00  0.00000000000E+00  0.17920192639E+03  0.17920192639E+03  0.00000000000E+00 0.  1.
         22   -1    0    0    0    0 -0.00000000000E+00 -0.00000000000E+00 -0.26682849161E+04  0.26682849161E+04  0.00000000000E+00 0. -1.
         24    2    1    2    0    0 -0.55539947249E+02  0.39441580884E+01 -0.25465575201E+04  0.25485740564E+04  0.84701096355E+02 0.  0.
         25    2    1    2    0    0 -0.57648903839E+02 -0.16660523150E+02 -0.19227391241E+02  0.14003772231E+03  0.12505959359E+03 0.  0.
        -24    2    1    2    0    0  0.11318885109E+03  0.12716365061E+02  0.76701921662E+02  0.15887506374E+03  0.79904187248E+02 0.  0.
        -11    1    3    3    0    0  0.14113989154E+02 -0.16667460525E+02 -0.27907613425E+03  0.27992945118E+03  0.00000000000E+00 0.  1.
         12    1    3    3    0    0 -0.69653936403E+02  0.20611618614E+02 -0.22674813859E+04  0.22686446053E+04  0.00000000000E+00 0. -1.
         11    1    5    5    0    0  0.99628487825E+02  0.19426610174E+02  0.24355390487E+02  0.10438588896E+03  0.00000000000E+00 0. -1.
        -12    1    5    5    0    0  0.13560363263E+02 -0.67102451128E+01  0.52346531175E+02  0.54489174772E+02  0.00000000000E+00 0.  1.
          5    1    4    4  501    0 -0.94592662985E+00 -0.28237895260E+02 -0.61793725289E+02  0.68075035006E+02  0.41800000000E+01 0.  1.
         -5    1    4    4    0  501 -0.56702977209E+02  0.11577372111E+02  0.42566334048E+02  0.71962687302E+02  0.41800000000E+01 0.  1.
</event>
<event>
11    1  0.8328696E-009  0.2387094E+03  0.7561462E-02  0.1030092E+00
         22   -1    0    0    0    0  0.00000000000E+00  0.00000000000E+00  0.57358802641E+03  0.57358802641E+03  0.00000000000E+00 0.  1.
         22   -1    0    0    0    0 -0.00000000000E+00 -0.00000000000E+00 -0.29571273494E+03  0.29571273494E+03  0.00000000000E+00 0.  1.
         24    2    1    2    0    0 -0.98344572496E+02  0.16336135583E+03 -0.14963908919E+03  0.25601432144E+03  0.82418979929E+02 0.  0.
         25    2    1    2    0    0  0.12792158912E+03 -0.25332182059E+03  0.26464987211E+03  0.40770336822E+03  0.12508638577E+03 0.  0.
        -24    2    1    2    0    0 -0.29577016620E+02  0.89960464761E+02  0.16286450854E+03  0.20558307169E+03  0.82291348811E+02 0.  0.
        -11    1    3    3    0    0  0.18976735579E+01  0.21560632502E+02 -0.53071728870E+02  0.57315534056E+02  0.00000000000E+00 0.  1.
         12    1    3    3    0    0 -0.10024224605E+03  0.14180072333E+03 -0.96567360319E+02  0.19869878739E+03  0.00000000000E+00 0. -1.
         11    1    5    5    0    0 -0.43947285635E+02  0.56434990661E+02  0.50800594653E+02  0.87732391411E+02  0.00000000000E+00 0. -1.
        -12    1    5    5    0    0  0.14370269015E+02  0.33525474100E+02  0.11206391389E+03  0.11785068028E+03  0.00000000000E+00 0.  1.
          5    1    4    4  501    0  0.20559154973E+02 -0.10048698870E+03  0.16921184060E+03  0.19791521707E+03  0.41800000000E+01 0.  1.
         -5    1    4    4    0  501  0.10736243414E+03 -0.15283483189E+03  0.95438031515E+02  0.20978815115E+03  0.41800000000E+01 0.  1.
</event>
<event>
11    1  0.8328696E-009  0.1753012E+03  0.7561462E-02  0.1073508E+00
         22   -1    0    0    0    0  0.00000000000E+00  0.00000000000E+00  0.41197775825E+03  0.41197775825E+03  0.00000000000E+00 0.  1.
         22   -1    0    0    0    0 -0.00000000000E+00 -0.00000000000E+00 -0.64908980596E+03  0.64908980596E+03  0.00000000000E+00 0.  1.
        -24    2    1    2    0    0 -0.20261359022E+02  0.12179065601E+03 -0.55475917452E+03  0.57579273846E+03  0.92390742962E+02 0.  0.
         25    2    1    2    0    0  0.65851176018E+02 -0.10625762456E+03  0.26170901747E+02  0.17877114132E+03  0.12508854747E+03 0.  0.
         24    2    1    2    0    0 -0.45589816995E+02 -0.15533031448E+02  0.29147622507E+03  0.30650368443E+03  0.81648100469E+02 0.  0.
        -11    1    5    5    0    0 -0.47670731892E+02  0.15458013880E+02  0.24835273865E+03  0.25335850424E+03  0.00000000000E+00 0.  1.
         12    1    5    5    0    0  0.20809148967E+01 -0.30991045329E+02  0.43123486415E+02  0.53145180195E+02  0.00000000000E+00 0. -1.
         11    1    3    3    0    0  0.29648996748E+02  0.42283148664E+02 -0.29732629838E+03  0.30177782453E+03  0.00000000000E+00 0. -1.
        -12    1    3    3    0    0 -0.49910355770E+02  0.79507507344E+02 -0.25743287614E+03  0.27401491393E+03  0.00000000000E+00 0.  1.
          5    1    4    4  501    0 -0.15191166274E+02  0.19646900694E+02  0.13162712519E+02  0.28416573342E+02  0.41800000000E+01 0.  1.
         -5    1    4    4    0  501  0.81042342291E+02 -0.12590452525E+03  0.13008189228E+02  0.15035456797E+03  0.41800000000E+01 0.  1.
</event>
<event>
11    1  0.8328696E-009  0.1278939E+03  0.7561462E-02  0.1121884E+00
         22   -1    0    0    0    0  0.00000000000E+00  0.00000000000E+00  0.10431354780E+03  0.10431354780E+03  0.00000000000E+00 0.  1.
         22   -1    0    0    0    0 -0.00000000000E+00 -0.00000000000E+00 -0.13273138901E+04  0.13273138901E+04  0.00000000000E+00 0. -1.
        -24    2    1    2    0    0 -0.26225398848E+02 -0.25944393487E+01 -0.11437294305E+04  0.11470730859E+04  0.83457483925E+02 0.  0.
         25    2    1    2    0    0  0.28692835363E+02  0.22655648760E+02 -0.13410465826E+03  0.18699638249E+03  0.12508809086E+03 0.  0.
         24    2    1    2    0    0 -0.24674365146E+01 -0.20061209411E+02  0.54833746403E+02  0.97557969537E+02  0.78117074380E+02 0.  0.
        -13    1    5    5    0    0  0.12822804748E+02 -0.33373747647E+02  0.65520498467E+02  0.74640251024E+02  0.00000000000E+00 0.  1.
         14    1    5    5    0    0 -0.15290241263E+02  0.13312538236E+02 -0.10686752064E+02  0.22917718513E+02  0.00000000000E+00 0. -1.
         11    1    3    3    0    0 -0.43000107110E+02 -0.16777562665E+02 -0.10409271457E+04  0.10419500077E+04  0.00000000000E+00 0. -1.
        -12    1    3    3    0    0  0.16774708262E+02  0.14183123316E+02 -0.10280228475E+03  0.10512307822E+03  0.00000000000E+00 0.  1.
          5    1    4    4  501    0 -0.24991533255E+01 -0.44242439873E+01 -0.14413417144E+03  0.14428427315E+03  0.41800000000E+01 0. -1.
         -5    1    4    4    0  501  0.31191988688E+02  0.27079892747E+02  0.10029513180E+02  0.42712109338E+02  0.41800000000E+01 0. -1.
</event>
<event>
11    1  0.8328696E-009  0.1476455E+03  0.7561462E-02  0.1099309E+00
         22   -1    0    0    0    0  0.00000000000E+00  0.00000000000E+00  0.22543264368E+03  0.22543264368E+03  0.00000000000E+00 0. -1.
         22   -1    0    0    0    0 -0.00000000000E+00 -0.00000000000E+00 -0.51863755887E+03  0.51863755887E+03  0.00000000000E+00 0.  1.
         24    2    1    2    0    0 -0.23401230014E+02 -0.67557919820E+02 -0.34303982199E+03  0.35976981670E+03  0.81524913004E+02 0.  0.
         25    2    1    2    0    0  0.63888831812E+02  0.10387678592E+03 -0.10338295786E+03  0.20299856205E+03  0.12509280849E+03 0.  0.
        -24    2    1    2    0    0 -0.40487601797E+02 -0.36318866097E+02  0.15321786466E+03  0.18130182380E+03  0.80226749454E+02 0.  0.
        -11    1    3    3    0    0 -0.12428135481E+02 -0.98586195987E+01 -0.24478679929E+03  0.24530028137E+03  0.00000000000E+00 0.  1.
         12    1    3    3    0    0 -0.10973094534E+02 -0.57699300221E+02 -0.98253022703E+02  0.11446953534E+03  0.00000000000E+00 0. -1.
         13    1    5    5    0    0  0.27312541736E+00 -0.46490364927E+00  0.11479017737E+03  0.11479144373E+03  0.00000000000E+00 0. -1.
        -14    1    5    5    0    0 -0.40760727215E+02 -0.35853962447E+02  0.38427687286E+02  0.66510380065E+02  0.00000000000E+00 0.  1.
          5    1    4    4  501    0  0.70254247659E+02  0.10325751757E+03 -0.12700436290E+03  0.17817226171E+03  0.41800000000E+01 0.  1.
         -5    1    4    4    0  501 -0.63654158475E+01  0.61926834286E+00  0.23621405040E+02  0.24826300334E+02  0.41800000000E+01 0.  1.
</event>
<event>
11    1  0.8328696E-009  0.2718641E+03  0.7561462E-02  0.1012856E+00
         22   -1    0    0    0    0  0.00000000000E+00  0.00000000000E+00  0.34530516406E+03  0.34530516406E+03  0.00000000000E+00 0.  1.
         22   -1    0    0    0    0 -0.00000000000E+00 -0.00000000000E+00 -0.87161676163E+03  0.87161676163E+03  0.00000000000E+00 0.  1.
         24    2    1    2    0    0 -0.11472418985E+03 -0.21048064557E+03 -0.74460527471E+03  0.78631531456E+03  0.79943835942E+02 0.  0.
         25    2    1    2    0    0  0.12210536524E+03  0.22967381733E+03  0.14679606406E+03  0.32381591460E+03  0.12509148467E+03 0.  0.
        -24    2    1    2    0    0 -0.73811753907E+01 -0.19193171764E+02  0.71497613072E+02  0.10679069653E+03  0.76612561623E+02 0.  0.
        -13    1    3    3    0    0 -0.94963872649E+02 -0.18857908460E+03 -0.54373469992E+03  0.58329034979E+03  0.00000000000E+00 0.  1.
         14    1    3    3    0    0 -0.19760317198E+02 -0.21901560968E+02 -0.20087057478E+03  0.20302496478E+03  0.00000000000E+00 0. -1.
         11    1    5    5    0    0  0.29206754071E+02 -0.10553530538E+02  0.59860605279E+02  0.67436663281E+02  0.00000000000E+00 0. -1.
        -12    1    5    5    0    0 -0.36587929461E+02 -0.86396412256E+01  0.11637007793E+02  0.39354033251E+02  0.00000000000E+00 0.  1.
          5    1    4    4  501    0  0.11266651903E+03  0.18012949921E+03  0.55823059234E+02  0.21971360298E+03  0.41800000000E+01 0. -1.
         -5    1    4    4    0  501  0.94388462104E+01  0.49544318125E+02  0.90973004827E+02  0.10410231161E+03  0.41800000000E+01 0. -1.
</event>
<event>
11    1  0.8328696E-009  0.1491368E+03  0.7561462E-02  0.1097764E+00
         22   -1    0    0    0    0  0.00000000000E+00  0.00000000000E+00  0.17513818592E+04  0.17513818592E+04  0.00000000000E+00 0. -1.
         22   -1    0    0    0    0 -0.00000000000E+00 -0.00000000000E+00 -0.92300610502E+03  0.92300610502E+03  0.00000000000E+00 0.  1.
        -24    2    1    2    0    0 -0.18562230478E+02 -0.20239197946E+01 -0.85685972167E+03  0.86087342711E+03  0.80906255857E+02 0.  0.
         25    2    1    2    0    0  0.98461153928E+02 -0.91142742503E+01  0.39907929169E+02  0.16436823430E+03  0.12508638938E+03 0.  0.
         24    2    1    2    0    0 -0.79898923449E+02  0.11138194045E+02  0.16453275467E+04  0.16491463028E+04  0.77928780746E+02 0.  0.
        -11    1    5    5    0    0 -0.13868491731E+02  0.33302553710E+02  0.85325279340E+03  0.85401506110E+03  0.00000000000E+00 0.  1.
         12    1    5    5    0    0 -0.66030431719E+02 -0.22164359665E+02  0.79207475332E+03  0.79513124174E+03  0.00000000000E+00 0. -1.
         11    1    3    3    0    0 -0.24500410346E+01 -0.40813980341E+02 -0.44786883030E+03  0.44973133407E+03  0.00000000000E+00 0. -1.
        -12    1    3    3    0    0 -0.16112189444E+02  0.38790060546E+02 -0.40899089137E+03  0.41114209304E+03  0.00000000000E+00 0.  1.
          5    1    4    4  501    0  0.12066417265E+03 -0.10595350080E+02  0.58956814461E+02  0.13477938409E+03  0.41800000000E+01 0.  1.
         -5    1    4    4    0  501 -0.22203018721E+02  0.14810758294E+01 -0.19048885291E+02  0.29588850211E+02  0.41800000000E+01 0.  1.
</event>
<event>
11    1  0.8328696E-009  0.1654248E+03  0.7561462E-02  0.1082083E+00
         22   -1    0    0    0    0  0.00000000000E+00  0.00000000000E+00  0.37204606118E+03  0.37204606118E+03  0.00000000000E+00 0.  1.
         22   -1    0    0    0    0 -0.00000000000E+00 -0.00000000000E+00 -0.50526665440E+03  0.50526665440E+03  0.00000000000E+00 0. -1.
        -24    2    1    2    0    0 -0.21146207472E+02 -0.29625982770E+02 -0.40381015848E+03  0.41332344136E+03  0.80304185053E+02 0.  0.
         25    2    1    2    0    0  0.12382331953E+03  0.47227672799E+02  0.19818451463E+02  0.18331398793E+03  0.12509428290E+03 0.  0.
         24    2    1    2    0    0 -0.10267711206E+03 -0.17601690029E+02  0.25077111380E+03  0.28067528629E+03  0.70993351682E+02 0.  0.
        -11    1    5    5    0    0 -0.78267717946E+02  0.83311138901E+01  0.21983688215E+03  0.23350267211E+03  0.00000000000E+00 0.  1.
         12    1    5    5    0    0 -0.24409394117E+02 -0.25932803919E+02  0.30934231651E+02  0.47172614175E+02  0.00000000000E+00 0. -1.
         13    1    3    3    0    0 -0.67930552661E+01 -0.34812482606E+02 -0.39305706864E+03  0.39465416982E+03  0.00000000000E+00 0. -1.
        -14    1    3    3    0    0 -0.14353152206E+02  0.51864998361E+01 -0.10753089845E+02  0.18669271545E+02  0.00000000000E+00 0.  1.
          5    1    4    4  501    0  0.19499638032E+02  0.38886326620E+02  0.57305275325E+02  0.72067671404E+02  0.41800000000E+01 0.  1.
         -5    1    4    4    0  501  0.10432368150E+03  0.83413461780E+01 -0.37486823862E+02  0.11124631653E+03  0.41800000000E+01 0.  1.
</event>
<event>
11    1  0.8328696E-009  0.1446227E+03  0.7561462E-02  0.1102504E+00
         22   -1    0    0    0    0  0.00000000000E+00  0.00000000000E+00  0.73140043059E+03  0.73140043059E+03  0.00000000000E+00 0. -1.
         22   -1    0    0    0    0 -0.00000000000E+00 -0.00000000000E+00 -0.17188236445E+03  0.17188236445E+03  0.00000000000E+00 0.  1.
         24    2    1    2    0    0  0.43573988292E+02 -0.16327339279E+02 -0.73980114642E+02  0.11789011819E+03  0.79118570142E+02 0.  0.
         25    2    1    2    0    0 -0.32567570342E+02 -0.56650404126E+02 -0.23325389740E+01  0.14114773532E+03  0.12508927821E+03 0.  0.
        -24    2    1    2    0    0 -0.11006417950E+02  0.72977743405E+02  0.63583071976E+03  0.64424494152E+03  0.72965390563E+02 0.  0.
        -13    1    3    3    0    0  0.66033753331E+02 -0.19337027905E+02 -0.59776777259E+02  0.91146257886E+02  0.00000000000E+00 0.  1.
         14    1    3    3    0    0 -0.22459765039E+02  0.30096886253E+01 -0.14203337383E+02  0.26743860306E+02  0.00000000000E+00 0. -1.
         13    1    5    5    0    0 -0.33701987275E+02  0.68740362147E+02  0.39800390666E+03  0.40530009999E+03  0.00000000000E+00 0. -1.
        -14    1    5    5    0    0  0.22695569325E+02  0.42373812583E+01  0.23782681310E+03  0.23894484153E+03  0.00000000000E+00 0.  1.
          5    1    4    4  501    0  0.14303621413E+02 -0.78923974991E+02  0.22579585042E+02  0.83431993111E+02  0.41800000000E+01 0. -1.
         -5    1    4    4    0  501 -0.46871191756E+02  0.22273570865E+02 -0.24912124016E+02  0.57715742208E+02  0.41800000000E+01 0. -1.
</event>
<event>
11    1  0.8328696E-009  0.1614059E+03  0.7561462E-02  0.1085762E+00
         22   -1    0    0    0    0  0.00000000000E+00  0.00000000000E+00  0.90845961120E+03  0.90845961120E+03  0.00000000000E+00 0.  1.
         22   -1    0    0    0    0 -0.00000000000E+00 -0.00000000000E+00 -0.27933864173E+03  0.27933864173E+03  0.00000000000E+00 0.  1.
         24    2    1    2    0    0 -0.90777823204E+02 -0.51327170743E+02 -0.16886023077E+03  0.21414254993E+03  0.80424887388E+02 0.  0.
         25    2    1    2    0    0  0.85689333925E+02  0.40883758621E+02 -0.13972125538E+02  0.15765998463E+03  0.12508919535E+03 0.  0.
        -24    2    1    2    0    0  0.50884892790E+01  0.10443412121E+02  0.81195332578E+03  0.81599571838E+03  0.80286060939E+02 0.  0.
        -11    1    3    3    0    0 -0.96149422353E+02 -0.53796712125E+02 -0.17423854936E+03  0.20615011457E+03  0.00000000000E+00 0.  1.
         12    1    3    3    0    0  0.53715991490E+01  0.24695413828E+01  0.53783185906E+01  0.79924353560E+01  0.00000000000E+00 0. -1.
         11    1    5    5    0    0 -0.34915988624E+02 -0.92324704831E+01  0.32236084839E+03  0.32437768319E+03  0.00000000000E+00 0. -1.
        -12    1    5    5    0    0  0.40004477903E+02  0.19675882604E+02  0.48959247739E+03  0.49161803519E+03  0.00000000000E+00 0.  1.
          5    1    4    4  501    0  0.29795132916E+01  0.66216277977E+02  0.11467297859E+02  0.67397657888E+02  0.41800000000E+01 0.  1.
         -5    1    4    4    0  501  0.82709820634E+02 -0.25332519355E+02 -0.25439423397E+02  0.90262326742E+02  0.41800000000E+01 0.  1.
</event>
<event>
11    1  0.8328696E-009  0.2003290E+03  0.7561462E-02  0.1054291E+00
         22   -1    0    0    0    0  0.00000000000E+00  0.00000000000E+00  0.32237278391E+03  0.32237278391E+03  0.00000000000E+00 0.  1.
         22   -1    0    0    0    0 -0.00000000000E+00 -0.00000000000E+00 -0.16137410235E+04  0.16137410235E+04  0.00000000000E+00 0. -1.
        -24    2    1    2    0    0 -0.34823929608E+02  0.15444033695E+03 -0.13769073919E+04  0.13883419174E+04  0.80961658396E+02 0.  0.
         25    2    1    2    0    0  0.15525366655E+02 -0.14338585274E+03 -0.18384792213E+03  0.26504272932E+03  0.12508816938E+03 0.  0.
         24    2    1    2    0    0  0.19298562953E+02 -0.11054484210E+02  0.26938707441E+03  0.28272916068E+03  0.82895996824E+02 0.  0.
        -11    1    5    5    0    0 -0.13017826818E+02  0.17326048099E+02  0.19946164062E+03  0.20063549496E+03  0.00000000000E+00 0.  1.
         12    1    5    5    0    0  0.32316389770E+02 -0.28380532309E+02  0.69925433787E+02  0.82093665726E+02  0.00000000000E+00 0. -1.
         11    1    3    3    0    0 -0.39050267345E+02  0.15055814229E+03 -0.13720075769E+04  0.13807959547E+04  0.00000000000E+00 0. -1.
        -12    1    3    3    0    0  0.42263377366E+01  0.38821946612E+01 -0.48998150085E+01  0.75459627065E+01  0.00000000000E+00 0.  1.
          5    1    4    4  501    0  0.35855025934E+01 -0.13019440785E+03 -0.66534077917E+02  0.14631368900E+03  0.41800000000E+01 0. -1.
         -5    1    4    4    0  501  0.11939864062E+02 -0.13191444890E+02 -0.11731384421E+03  0.11872904032E+03  0.41800000000E+01 0. -1.
</event>
<event>
11    1  0.8328696E-009  0.1364703E+03  0.7561462E-02  0.1111565E+00
         22   -1    0    0    0    0  0.00000000000E+00  0.00000000000E+00  0.73141650202E+03  0.73141650202E+03  0.00000000000E+00 0. -1.
         22   -1    0    0    0    0 -0.00000000000E+00 -0.00000000000E+00 -0.35069889559E+03  0.35069889559E+03  0.00000000000E+00 0. -1.
         24    2    1    2    0    0  0.55323033604E+02  0.39348389072E+01 -0.28988448221E+03  0.30593346578E+03  0.80536646649E+02 0.  0.
         25    2    1    2    0    0 -0.44789574943E+02  0.24282116971E+01  0.37859753529E+02  0.13818066009E+03  0.12509409119E+03 0.  0.
        -24    2    1    2    0    0 -0.10533458661E+02 -0.63630506043E+01  0.63274233512E+03  0.63800127174E+03  0.80816569590E+02 0.  0.
        -11    1    3    3    0    0  0.19509497733E+02 -0.31909731454E+02 -0.61370981996E+02  0.71869666024E+02  0.00000000000E+00 0.  1.
         12    1    3    3    0    0  0.35813535871E+02  0.35844570361E+02 -0.22851350022E+03  0.23406379976E+03  0.00000000000E+00 0. -1.
         13    1    5    5    0    0 -0.27076176666E+01 -0.34689165184E+02  0.52994037371E+03  0.53108141472E+03  0.00000000000E+00 0. -1.
        -14    1    5    5    0    0 -0.78258409941E+01  0.28326114580E+02  0.10280196141E+03  0.10691985702E+03  0.00000000000E+00 0.  1.
          5    1    4    4  501    0 -0.24706846829E+02  0.62639048890E+02  0.30857544061E+02  0.74187189942E+02  0.41800000000E+01 0. -1.
         -5    1    4    4    0  501 -0.20082728114E+02 -0.60210837193E+02  0.70022094680E+01  0.63993470147E+02  0.41800000000E+01 0. -1.
</event>
<event>
11    1  0.8328696E-009  0.1287520E+03  0.7561462E-02  0.1120812E+00
         22   -1    0    0    0    0  0.00000000000E+00  0.00000000000E+00  0.23784179374E+03  0.23784179374E+03  0.00000000000E+00 0.  1.
         22   -1    0    0    0    0 -0.00000000000E+00 -0.00000000000E+00 -0.17580473819E+03  0.17580473819E+03  0.00000000000E+00 0. -1.
         24    2    1    2    0    0  0.18420599813E+02 -0.24983373254E+02 -0.88095945440E+02  0.12483195572E+03  0.82816871042E+02 0.  0.
         25    2    1    2    0    0 -0.24250109183E+02  0.17446857672E+02  0.13376984235E+02  0.12928384307E+03  0.12507161042E+03 0.  0.
        -24    2    1    2    0    0  0.58295093700E+01  0.75365155818E+01  0.13675601676E+03  0.15953073314E+03  0.81590835568E+02 0.  0.
        -13    1    3    3    0    0  0.44260171673E+02 -0.22206011844E+02 -0.22723734480E+02  0.54483372393E+02  0.00000000000E+00 0.  1.
         14    1    3    3    0    0 -0.25839571860E+02 -0.27773614097E+01 -0.65372210960E+02  0.70348583327E+02  0.00000000000E+00 0. -1.
         13    1    5    5    0    0 -0.26886824273E+02  0.30704110361E+02  0.55140518256E+02  0.68601169568E+02  0.00000000000E+00 0. -1.
        -14    1    5    5    0    0  0.32716333643E+02 -0.23167594779E+02  0.81615498505E+02  0.90929563570E+02  0.00000000000E+00 0.  1.
          5    1    4    4  501    0  0.14382205790E+02 -0.46525693906E+02  0.22635780548E+02  0.53864078920E+02  0.41800000000E+01 0.  1.
         -5    1    4    4    0  501 -0.38632314973E+02  0.63972551578E+02 -0.92587963128E+01  0.75419764152E+02  0.41800000000E+01 0.  1.
</event>
<event>
11    1  0.8328696E-009  0.1677786E+03  0.7561462E-02  0.1079981E+00
         22   -1    0    0    0    0  0.00000000000E+00  0.00000000000E+00  0.25375631846E+03  0.25375631846E+03  0.00000000000E+00 0. -1.
         22   -1    0    0    0    0 -0.00000000000E+00 -0.00000000000E+00 -0.14012808557E+04  0.14012808557E+04  0.00000000000E+00 0.  1.
        -24    2    1    2    0    0  0.27114146526E+02  0.10912231923E+03 -0.13379140166E+04  0.13449703126E+04  0.79299233190E+02 0.  0.
         25    2    1    2    0    0 -0.46967536436E+02 -0.76725127830E+02  0.10529662215E+03  0.18662136951E+03  0.12508981654E+03 0.  0.
         24    2    1    2    0    0  0.19853389911E+02 -0.32397191405E+02  0.85092857219E+02  0.12344549207E+03  0.80958384751E+02 0.  0.
        -11    1    5    5    0    0  0.28186870245E+02 -0.29264164004E+02  0.28595581672E+01  0.40731658718E+02  0.00000000000E+00 0.  1.
         12    1    5    5    0    0 -0.83334803344E+01 -0.31330274016E+01  0.82233299052E+02  0.82713833354E+02  0.00000000000E+00 0. -1.
         13    1    3    3    0    0  0.25928892463E+01 -0.41636841646E+00 -0.28702648016E+00  0.26417459193E+01  0.00000000000E+00 0. -1.
        -14    1    3    3    0    0  0.24521257280E+02  0.10953868765E+03 -0.13376269901E+04  0.13423285667E+04  0.00000000000E+00 0.  1.
          5    1    4    4  501    0 -0.67457633483E+01 -0.58870546687E+01  0.10458478651E+03  0.10505052454E+03  0.41800000000E+01 0. -1.
         -5    1    4    4    0  501 -0.40221773088E+02 -0.70838073161E+02  0.71183563466E+00  0.81570844972E+02  0.41800000000E+01 0. -1.
</event>
<event>
11    1  0.8328696E-009  0.2265837E+03  0.7561462E-02  0.1037170E+00
         22   -1    0    0    0    0  0.00000000000E+00  0.00000000000E+00  0.59368346717E+03  0.59368346717E+03  0.00000000000E+00 0. -1.
         22   -1    0    0    0    0 -0.00000000000E+00 -0.00000000000E+00 -0.19423423203E+03  0.19423423203E+03  0.00000000000E+00 0. -1.
        -24    2    1    2    0    0  0.60700318792E+02  0.57964032487E+01 -0.99365357428E+00  0.10264195405E+03  0.82560622527E+02 0.  0.
         25    2    1    2    0    0  0.10685565613E+03 -0.10975005281E+03 -0.34894988941E+02  0.20082081381E+03  0.12509250044E+03 0.  0.
         24    2    1    2    0    0 -0.16755597492E+03  0.10395364957E+03  0.43533787766E+03  0.48445493134E+03  0.79348262652E+02 0.  0.
        -11    1    5    5    0    0 -0.72027685554E+02  0.74280983841E+02  0.29096443022E+03  0.30881378159E+03  0.00000000000E+00 0.  1.
         12    1    5    5    0    0 -0.95528289362E+02  0.29672665726E+02  0.14437344744E+03  0.17564114975E+03  0.00000000000E+00 0. -1.
         11    1    3    3    0    0  0.63117801327E+02 -0.89803869611E+01 -0.29648950799E+02  0.70310486257E+02  0.00000000000E+00 0. -1.
        -12    1    3    3    0    0 -0.24174825350E+01  0.14776790210E+02  0.28655297224E+02  0.32331467794E+02  0.00000000000E+00 0.  1.
          5    1    4    4  501    0 -0.14605682468E+01 -0.80399212315E+02  0.73087103884E+01  0.80852063969E+02  0.41800000000E+01 0.  1.
         -5    1    4    4    0  501  0.10831622437E+03 -0.29350840500E+02 -0.42203699329E+02  0.11996874984E+03  0.41800000000E+01 0.  1.
</event>
<event>
11    1  0.8328696E-009  0.1355544E+03  0.7561462E-02  0.1112627E+00
         22   -1    0    0    0    0  0.00000000000E+00  0.00000000000E+00  0.14283105737E+03  0.14283105737E+03  0.00000000000E+00 0. -1.
         22   -1    0    0    0    0 -0.00000000000E+00 -0.00000000000E+00 -0.76827411887E+03  0.76827411887E+03  0.00000000000E+00 0. -1.
         24    2    1    2    0    0  0.15980848009E+02  0.32077440098E+02 -0.63981951906E+03  0.64578751159E+03  0.79925862465E+02 0.  0.
         25    2    1    2    0    0 -0.39250334431E+02  0.19324518242E+02 -0.56955316354E+02  0.14423980187E+03  0.12508871501E+03 0.  0.
        -24    2    1    2    0    0  0.23269486422E+02 -0.51401958340E+02  0.71331773918E+02  0.12107786278E+03  0.79924943320E+02 0.  0.
        -11    1    3    3    0    0 -0.20982418826E+02  0.13135146656E+02 -0.66376668358E+02  0.70842473699E+02  0.00000000000E+00 0.  1.
         12    1    3    3    0    0  0.36963266835E+02  0.18942293442E+02 -0.57344285070E+03  0.57494503789E+03  0.00000000000E+00 0. -1.
         11    1    5    5    0    0  0.43788845536E+02 -0.18550212833E+02  0.66916162441E+02  0.82093520970E+02  0.00000000000E+00 0. -1.
        -12    1    5    5    0    0 -0.20519359115E+02 -0.32851745507E+02  0.44156114774E+01  0.38984341806E+02  0.00000000000E+00 0.  1.
          5    1    4    4  501    0 -0.75336753484E+02 -0.20815618574E+02 -0.30778792198E+02  0.84105427002E+02  0.41800000000E+01 0.  1.
         -5    1    4    4    0  501  0.36086419053E+02  0.40140136816E+02 -0.26176524157E+02  0.60134374867E+02  0.41800000000E+01 0.  1.
</event>
<event>
11    1  0.8328696E-009  0.3779043E+03  0.7561462E-02  0.9717300E-01
         22   -1    0    0    0    0  0.00000000000E+00  0.00000000000E+00  0.46569720426E+03  0.46569720426E+03  0.00000000000E+00 0.  1.
         22   -1    0    0    0    0 -0.00000000000E+00 -0.00000000000E+00 -0.77701777470E+03  0.77701777470E+03  0.00000000000E+00 0.  1.
        -24    2    1    2    0    0 -0.26040986699E+01 -0.34053202923E+03 -0.42853284362E+03  0.55306758567E+03  0.79211817234E+02 0.  0.
         25    2    1    2    0    0 -0.15832516660E+03  0.40522686066E+03 -0.21967622961E+02  0.45321693100E+03  0.12508934049E+03 0.  0.
         24    2    1    2    0    0  0.16092926527E+03 -0.64694831429E+02  0.13917989614E+03  0.23643046229E+03  0.80278704380E+02 0.  0.
        -13    1    5    5    0    0  0.22700326252E+02 -0.38288925686E+02  0.60782719665E+02  0.75338473916E+02  0.00000000000E+00 0.  1.
         14    1    5    5    0    0  0.13822893902E+03 -0.26405905744E+02  0.78397176475E+02  0.16109198838E+03  0.00000000000E+00 0. -1.
         11    1    3    3    0    0  0.91785514691E+01 -0.39123454418E+01 -0.28052282119E+02  0.29773860784E+02  0.00000000000E+00 0. -1.
        -12    1    3    3    0    0 -0.11782650139E+02 -0.33661968379E+03 -0.40048056150E+03  0.52329372488E+03  0.00000000000E+00 0.  1.
          5    1    4    4  501    0 -0.13795819667E+03  0.27835694534E+03 -0.65420897924E+02  0.31750971534E+03  0.41800000000E+01 0.  1.
         -5    1    4    4    0  501 -0.20366969927E+02  0.12686991532E+03  0.43453274963E+02  0.13570721566E+03  0.41800000000E+01 0.  1.
</event>
<event>
11    1  0.8328696E-009  0.1369064E+03  0.7561462E-02  0.1111063E+00
         22   -1    0    0    0    0  0.00000000000E+00  0.00000000000E+00  0.47125139461E+03  0.47125139461E+03  0.00000000000E+00 0.  1.
         22   -1    0    0    0    0 -0.00000000000E+00 -0.00000000000E+00 -0.33242480761E+03  0.33242480761E+03  0.00000000000E+00 0. -1.
         24    2    1    2    0    0 -0.78494481094E+01  0.17743510116E+02 -0.25140744651E+03  0.26412904142E+03  0.78625697911E+02 0.  0.
         25    2    1    2    0    0  0.28364756248E+01 -0.71748218325E+02  0.72310161369E+01  0.14442369819E+03  0.12510021814E+03 0.  0.
        -24    2    1    2    0    0  0.50129724846E+01  0.54004708209E+02  0.38300301738E+03  0.39512346261E+03  0.80558059688E+02 0.  0.
        -13    1    3    3    0    0  0.25657259129E+02 -0.16288783629E+02 -0.65861424048E+02  0.72535140420E+02  0.00000000000E+00 0.  1.
         14    1    3    3    0    0 -0.33506707238E+02  0.34032293745E+02 -0.18554602247E+03  0.19159390100E+03  0.00000000000E+00 0. -1.
         13    1    5    5    0    0 -0.18242670763E+01 -0.21288323629E+02  0.93676061859E+02  0.96081867377E+02  0.00000000000E+00 0. -1.
        -14    1    5    5    0    0  0.68372395609E+01  0.75293031838E+02  0.28932695552E+03  0.29904159523E+03  0.00000000000E+00 0.  1.
          5    1    4    4  501    0  0.14568934314E+02  0.28392948536E+02  0.26496135436E+02  0.41688499214E+02  0.41800000000E+01 0.  1.
         -5    1    4    4    0  501 -0.11732458689E+02 -0.10014116686E+03 -0.19265119299E+02  0.10273519898E+03  0.41800000000E+01 0.  1.
</event>
<event>
11    1  0.8328696E-009  0.1257432E+03  0.7561462E-02  0.1124613E+00
         22   -1    0    0    0    0  0.00000000000E+00  0.00000000000E+00  0.29287176305E+03  0.29287176305E+03  0.00000000000E+00 0.  1.
         22   -1    0    0    0    0 -0.00000000000E+00 -0.00000000000E+00 -0.52526054434E+03  0.52526054434E+03  0.00000000000E+00 0. -1.
         24    2    1    2    0    0  0.76975693574E+01  0.57489482555E+01 -0.46095119024E+03  0.46771433283E+03  0.78666348402E+02 0.  0.
         25    2    1    2    0    0 -0.78028847942E+01  0.77847425016E+01  0.22081398300E+02  0.12750035464E+03  0.12508902852E+03 0.  0.
        -24    2    1    2    0    0  0.10531543679E+00 -0.13533690757E+02  0.20648101065E+03  0.22291761992E+03  0.82913724055E+02 0.  0.
        -13    1    3    3    0    0 -0.93931668565E+01 -0.14503110516E+02 -0.22049762408E+02  0.28013636331E+02  0.00000000000E+00 0.  1.
         14    1    3    3    0    0  0.17090736214E+02  0.20252058772E+02 -0.43890142783E+03  0.43970069650E+03  0.00000000000E+00 0. -1.
         13    1    5    5    0    0  0.23865202638E+02  0.24826472886E+02  0.55294927219E+02  0.65141619791E+02  0.00000000000E+00 0. -1.
        -14    1    5    5    0    0 -0.23759887202E+02 -0.38360163643E+02  0.15118608343E+03  0.15777600013E+03  0.00000000000E+00 0.  1.
          5    1    4    4  501    0 -0.19215173368E+01 -0.18354709453E+02  0.69961088479E+02  0.72474919035E+02  0.41800000000E+01 0.  1.
         -5    1    4    4    0  501 -0.58813674574E+01  0.26139451955E+02 -0.47879690179E+02  0.55025435603E+02  0.41800000000E+01 0.  1.
</event>
<event>
11    1  0.8328696E-009  0.1315679E+03  0.7561462E-02  0.1117357E+00
         22   -1    0    0    0    0  0.00000000000E+00  0.00000000000E+00  0.66950269541E+03  0.66950269541E+03  0.00000000000E+00 0.  1.
         22   -1    0    0    0    0 -0.00000000000E+00 -0.00000000000E+00 -0.23382287180E+03  0.23382287180E+03  0.00000000000E+00 0.  1.
        -24    2    1    2    0    0 -0.35844490181E+02 -0.23560943290E+02 -0.17891896953E+03  0.20122461347E+03  0.81482525015E+02 0.  0.
         25    2    1    2    0    0  0.18043743715E+02  0.12425325230E+02  0.58599711041E+02  0.13986242281E+03  0.12509039046E+03 0.  0.
         24    2    1    2    0    0  0.17800746466E+02  0.11135618061E+02  0.55599908210E+03  0.56223853093E+03  0.80847497180E+02 0.  0.
        -11    1    5    5    0    0  0.92492425806E+01  0.23483098973E+02  0.53885525619E+03  0.53944600429E+03  0.00000000000E+00 0.  1.
         12    1    5    5    0    0  0.85515038853E+01 -0.12347480912E+02  0.17143825914E+02  0.22792526638E+02  0.00000000000E+00 0. -1.
         11    1    3    3    0    0  0.62685544212E+01 -0.19253124327E+02 -0.32256142114E+01  0.20503223110E+02  0.00000000000E+00 0. -1.
        -12    1    3    3    0    0 -0.42113044602E+02 -0.43078189637E+01 -0.17569335532E+03  0.18072139036E+03  0.00000000000E+00 0.  1.
          5    1    4    4  501    0  0.64861570631E+02  0.23873099257E+02  0.59769459975E+02  0.91470262701E+02  0.41800000000E+01 0. -1.
         -5    1    4    4    0  501 -0.46817826916E+02 -0.11447774028E+02 -0.11697489339E+01  0.48392160108E+02  0.41800000000E+01 0. -1.
</event>
<event>
11    1  0.8328696E-009  0.1306230E+03  0.7561462E-02  0.1118506E+00
         22   -1    0    0    0    0  0.00000000000E+00  0.00000000000E+00  0.18964186546E+03  0.18964186546E+03  0.00000000000E+00 0.  1.
         22   -1    0    0    0    0 -0.00000000000E+00 -0.00000000000E+00 -0.84366929456E+03  0.84366929456E+03  0.00000000000E+00 0. -1.
        -24    2    1    2    0    0  0.40666337777E+02 -0.41495967542E+00 -0.72216115039E+03  0.72952116646E+03  0.95028848066E+02 0.  0.
         25    2    1    2    0    0 -0.67572761250E+01  0.88263632659E+00 -0.68408112301E+02  0.14273638960E+03  0.12509023647E+03 0.  0.
         24    2    1    2    0    0 -0.33909061652E+02 -0.46767665117E+00  0.13654183359E+03  0.16105360396E+03  0.78387166323E+02 0.  0.
        -11    1    5    5    0    0 -0.27868519075E+02  0.29533143812E+02  0.11909409886E+03  0.12582633000E+03  0.00000000000E+00 0.  1.
         12    1    5    5    0    0 -0.60405425768E+01 -0.30000820463E+02  0.17447734732E+02  0.35227273956E+02  0.00000000000E+00 0. -1.
         13    1    3    3    0    0  0.56250307182E+02  0.20631091690E+02 -0.26844624154E+03  0.27505112906E+03  0.00000000000E+00 0. -1.
        -14    1    3    3    0    0 -0.15583969405E+02 -0.21046051366E+02 -0.45371490885E+03  0.45447003740E+03  0.00000000000E+00 0.  1.
          5    1    4    4  501    0  0.54938077896E+02 -0.14408858285E+02 -0.13241105204E+02  0.58468853820E+02  0.41800000000E+01 0. -1.
         -5    1    4    4    0  501 -0.61695354021E+02  0.15291494612E+02 -0.55167007096E+02  0.84267535784E+02  0.41800000000E+01 0. -1.
</event>
<event>
11    1  0.8328696E-009  0.4030050E+03  0.7561462E-02  0.9640933E-01
         22   -1    0    0    0    0  0.00000000000E+00  0.00000000000E+00  0.87861280655E+03  0.87861280655E+03  0.00000000000E+00 0. -1.
         22   -1    0    0    0    0 -0.00000000000E+00 -0.00000000000E+00 -0.25801376032E+03  0.25801376032E+03  0.00000000000E+00 0. -1.
        -24    2    1    2    0    0  0.64523391524E+02 -0.57440082076E+02  0.46878248492E+02  0.12962916894E+03  0.84519347941E+02 0.  0.
         25    2    1    2    0    0 -0.50534488992E+02 -0.34634584304E+03  0.11175894688E+03  0.38813244665E+03  0.12509019292E+03 0.  0.
         24    2    1    2    0    0 -0.13988902532E+02  0.40378592512E+03  0.46196185086E+03  0.61886495127E+03  0.79663753039E+02 0.  0.
        -11    1    5    5    0    0 -0.14473837565E+02  0.79667137773E+02  0.14174572314E+03  0.16324274821E+03  0.00000000000E+00 0.  1.
         12    1    5    5    0    0  0.48493503288E+00  0.32411878735E+03  0.32021612771E+03  0.45562220306E+03  0.00000000000E+00 0. -1.
         11    1    3    3    0    0  0.78484955328E+02 -0.66915404441E+02  0.34697105676E+02  0.10881842081E+03  0.00000000000E+00 0. -1.
        -12    1    3    3    0    0 -0.13961563803E+02  0.94753223647E+01  0.12181142816E+02  0.20810748138E+02  0.00000000000E+00 0.  1.
          5    1    4    4  501    0  0.19362080046E+02 -0.24592232906E+03  0.53047836906E+02  0.25235734084E+03  0.41800000000E+01 0.  1.
         -5    1    4    4    0  501 -0.69896569039E+02 -0.10042351398E+03  0.58711109974E+02  0.13577510581E+03  0.41800000000E+01 0.  1.
</event>
<event>
11    1  0.8328696E-009  0.3311953E+03  0.7561462E-02  0.9877898E-01
         22   -1    0    0    0    0  0.00000000000E+00  0.00000000000E+00  0.19618202268E+04  0.19618202268E+04  0.00000000000E+00 0. -1.
         22   -1    0    0    0    0 -0.00000000000E+00 -0.00000000000E+00 -0.62797094752E+03  0.62797094752E+03  0.00000000000E+00 0. -1.
        -24    2    1    2    0    0 -0.30363808654E+03  0.38229225215E+02 -0.55913491802E+03  0.64349329682E+03  0.88284796267E+02 0.  0.
         25    2    1    2    0    0  0.32445744407E+03 -0.29775094257E+02  0.12491651606E+04  0.12970043711E+04  0.12509017155E+03 0.  0.
         24    2    1    2    0    0 -0.20819357530E+02 -0.84541309577E+01  0.64381903669E+03  0.64929350635E+03  0.81081362900E+02 0.  0.
        -11    1    5    5    0    0  0.23489235212E+02 -0.13708698711E+02  0.99538488477E+02  0.10318712749E+03  0.00000000000E+00 0.  1.
         12    1    5    5    0    0 -0.44308592741E+02  0.52545677529E+01  0.54428054821E+03  0.54610637886E+03  0.00000000000E+00 0. -1.
         11    1    3    3    0    0 -0.30288221137E+03  0.29722761241E+02 -0.55695262096E+03  0.63467889400E+03  0.00000000000E+00 0. -1.
        -12    1    3    3    0    0 -0.75587516478E+00  0.85064639746E+01 -0.21822970619E+01  0.88144028205E+01  0.00000000000E+00 0.  1.
          5    1    4    4  501    0  0.19180989899E+03 -0.11910481276E+02  0.94976260002E+03  0.96901979634E+03  0.41800000000E+01 0.  1.
         -5    1    4    4    0  501  0.13264754508E+03 -0.17864612981E+02  0.29940256057E+03  0.32798457477E+03  0.41800000000E+01 0.  1.
</event>
<event>
11    1  0.8328696E-009  0.1585841E+03  0.7561462E-02  0.1088417E+00
         22   -1    0    0    0    0  0.00000000000E+00  0.00000000000E+00  0.15809279859E+04  0.15809279859E+04  0.00000000000E+00 0.  1.
         22   -1    0    0    0    0 -0.00000000000E+00 -0.00000000000E+00 -0.55419328019E+03  0.55419328019E+03  0.00000000000E+00 0.  1.
         24    2    1    2    0    0 -0.19330383286E+02 -0.93300116915E+02 -0.47250693344E+03  0.48877645247E+03  0.81000264210E+02 0.  0.
         25    2    1    2    0    0  0.15109509039E+02  0.12684713042E+03  0.38434439527E+02  0.18287474642E+03  0.12508986761E+03 0.  0.
        -24    2    1    2    0    0  0.42208742468E+01 -0.33547013503E+02  0.14608071997E+04  0.14634700672E+04  0.81509172548E+02 0.  0.
        -11    1    3    3    0    0 -0.47616967335E+02 -0.63062559377E+02 -0.24183594197E+03  0.25441871944E+03  0.00000000000E+00 0.  1.
         12    1    3    3    0    0  0.28286584049E+02 -0.30237557538E+02 -0.23067099147E+03  0.23435773303E+03  0.00000000000E+00 0. -1.
         13    1    5    5    0    0  0.12083585273E+02 -0.12714159456E+01  0.31279933663E+02  0.33556873834E+02  0.00000000000E+00 0. -1.
        -14    1    5    5    0    0 -0.78627110266E+01 -0.32275597558E+02  0.14295272660E+04  0.14299131934E+04  0.00000000000E+00 0.  1.
          5    1    4    4  501    0 -0.17759681305E+02 -0.10365428982E+02  0.36033209050E+02  0.41697877074E+02  0.41800000000E+01 0. -1.
         -5    1    4    4    0  501  0.32869190344E+02  0.13721255940E+03  0.24012304772E+01  0.14117686935E+03  0.41800000000E+01 0. -1.
</event>
<event>
11    1  0.8328696E-009  0.1688375E+03  0.7561462E-02  0.1079048E+00
         22   -1    0    0    0    0  0.00000000000E+00  0.00000000000E+00  0.52911929927E+03  0.52911929927E+03  0.00000000000E+00 0. -1.
         22   -1    0    0    0    0 -0.00000000000E+00 -0.00000000000E+00 -0.49436004966E+03  0.49436004966E+03  0.00000000000E+00 0. -1.
         24    2    1    2    0    0 -0.48856523829E+02 -0.51471272173E+02 -0.43733548233E+03  0.45052073668E+03  0.81672261460E+02 0.  0.
         25    2    1    2    0    0  0.14538291868E+03  0.41741324427E+02  0.25602350031E+03  0.32260408422E+03  0.12508729448E+03 0.  0.
        -24    2    1    2    0    0 -0.96526394852E+02  0.97299477458E+01  0.21607123163E+03  0.25035452802E+03  0.81108543168E+02 0.  0.
        -11    1    3    3    0    0 -0.28378192692E+02 -0.30814769760E+02 -0.66822172885E+02  0.78867449844E+02  0.00000000000E+00 0.  1.
         12    1    3    3    0    0 -0.20478331136E+02 -0.20656502412E+02 -0.37051330945E+03  0.37165328684E+03  0.00000000000E+00 0. -1.
         11    1    5    5    0    0 -0.59180142460E+02 -0.33370400963E+02  0.98197080815E+02  0.11940912697E+03  0.00000000000E+00 0. -1.
        -12    1    5    5    0    0 -0.37346252392E+02  0.43100348709E+02  0.11787415082E+03  0.13094540106E+03  0.00000000000E+00 0.  1.
          5    1    4    4  501    0  0.61978540477E+02 -0.36737116702E+02  0.53249655955E+02  0.89688089971E+02  0.41800000000E+01 0.  1.
         -5    1    4    4    0  501  0.83404378204E+02  0.78478441129E+02  0.20277384435E+03  0.23291599425E+03  0.41800000000E+01 0.  1.
</event>
<event>
11    1  0.8328696E-009  0.3245767E+03  0.7561462E-02  0.9902949E-01
         22   -1    0    0    0    0  0.00000000000E+00  0.00000000000E+00  0.21241480477E+03  0.21241480477E+03  0.00000000000E+00 0.  1.
         22   -1    0    0    0    0 -0.00000000000E+00 -0.00000000000E+00 -0.22108751317E+04  0.22108751317E+04  0.00000000000E+00 0. -1.
        -24    2    1    2    0    0  0.11229402522E+03  0.32863533215E+02 -0.16654659220E+04  0.16714842701E+04  0.79956037829E+02 0.  0.
         25    2    1    2    0    0 -0.26597776476E+03 -0.25128884907E+03 -0.25144074544E+03  0.46125912434E+03  0.12508906548E+03 0.  0.
         24    2    1    2    0    0  0.15368373954E+03  0.21842531586E+03 -0.81553659441E+02  0.29054654197E+03  0.80237044299E+02 0.  0.
        -13    1    5    5    0    0  0.13462522441E+03  0.21399491064E+03 -0.91155352309E+02  0.26875094620E+03  0.00000000000E+00 0.  1.
         14    1    5    5    0    0  0.19058515129E+02  0.44304052195E+01  0.96016928686E+01  0.21795595777E+02  0.00000000000E+00 0. -1.
         11    1    3    3    0    0  0.78106820968E+02 -0.18082976175E+02 -0.98576623985E+03  0.98902110652E+03  0.00000000000E+00 0. -1.
        -12    1    3    3    0    0  0.34187204247E+02  0.50946509389E+02 -0.67969968218E+03  0.68246316362E+03  0.00000000000E+00 0.  1.
          5    1    4    4  501    0 -0.15493524923E+03 -0.15267238389E+03 -0.73923411882E+02  0.22977365271E+03  0.41800000000E+01 0.  1.
         -5    1    4    4    0  501 -0.11104251553E+03 -0.98616465184E+02 -0.17751733356E+03  0.23148547163E+03  0.41800000000E+01 0.  1.
</event>
<event>
11    1  0.8328696E-009  0.1891551E+03  0.7561462E-02  0.1062469E+00
         22   -1    0    0    0    0  0.00000000000E+00  0.00000000000E+00  0.53589344824E+03  0.53589344824E+03  0.00000000000E+00 0. -1.
         22   -1    0    0    0    0 -0.00000000000E+00 -0.00000000000E+00 -0.58025820666E+03  0.58025820666E+03  0.00000000000E+00 0.  1.
        -24    2    1    2    0    0  0.24414658102E+02 -0.22831839045E+02 -0.42726984285E+03  0.43585012668E+03  0.79299722024E+02 0.  0.
         25    2    1    2    0    0  0.79306466649E+02  0.11990403285E+03 -0.66985023192E+02  0.20199560625E+03  0.12509491942E+03 0.  0.
         24    2    1    2    0    0 -0.10372112475E+03 -0.97072193809E+02  0.44989010762E+03  0.47830592197E+03  0.78704278945E+02 0.  0.
        -13    1    5    5    0    0  0.59817599136E+01  0.73373485397E+00  0.80880208947E+02  0.81104426623E+02  0.00000000000E+00 0.  1.
         14    1    5    5    0    0 -0.10970288466E+03 -0.97805928663E+02  0.36900989868E+03  0.39720149535E+03  0.00000000000E+00 0. -1.
         13    1    3    3    0    0 -0.21319984606E+01 -0.24751432378E+02 -0.36368393903E+02  0.44043602229E+02  0.00000000000E+00 0. -1.
        -14    1    3    3    0    0  0.26546656562E+02  0.19195933332E+01 -0.39090144895E+03  0.39180652445E+03  0.00000000000E+00 0.  1.
          5    1    4    4  501    0  0.51109126716E+02 -0.14373554606E+02 -0.16883979206E+02  0.55868444220E+02  0.41800000000E+01 0. -1.
         -5    1    4    4    0  501  0.28197339933E+02  0.13427758746E+03 -0.50101043986E+02  0.14612716203E+03  0.41800000000E+01 0. -1.
</event>
<event>
11    1  0.8328696E-009  0.1319422E+03  0.7561462E-02  0.1116905E+00
         22   -1    0    0    0    0  0.00000000000E+00  0.00000000000E+00  0.39319716567E+03  0.39319716567E+03  0.00000000000E+00 0.  1.
         22   -1    0    0    0    0 -0.00000000000E+00 -0.00000000000E+00 -0.39848204848E+03  0.39848204848E+03  0.00000000000E+00 0.  1.
         24    2    1    2    0    0  0.82958857611E+01  0.40121429691E+02 -0.30994260822E+03  0.32253660581E+03  0.79289916505E+02 0.  0.
         25    2    1    2    0    0 -0.21232349357E+02 -0.47912238563E+02 -0.17475263114E+02  0.13674676007E+03  0.12509155169E+03 0.  0.
        -24    2    1    2    0    0  0.12936463596E+02  0.77908088723E+01  0.32213298852E+03  0.33239584827E+03  0.80556122426E+02 0.  0.
        -11    1    3    3    0    0  0.18413708279E+02  0.61701468892E+02 -0.20287859869E+03  0.21285173648E+03  0.00000000000E+00 0.  1.
         12    1    3    3    0    0 -0.10117822518E+02 -0.21580039201E+02 -0.10706400953E+03  0.10968486934E+03  0.00000000000E+00 0. -1.
         11    1    5    5    0    0 -0.32253077539E+02 -0.36253462650E+01  0.17735137250E+03  0.18029673728E+03  0.00000000000E+00 0. -1.
        -12    1    5    5    0    0  0.45189541135E+02  0.11416155137E+02  0.14478161602E+03  0.15209911099E+03  0.00000000000E+00 0.  1.
          5    1    4    4  501    0 -0.12161517103E+02 -0.82580734494E+02 -0.41588713804E+02  0.93351881201E+02  0.41800000000E+01 0. -1.
         -5    1    4    4    0  501 -0.90708322535E+01  0.34668495931E+02  0.24113450690E+02  0.43394878869E+02  0.41800000000E+01 0. -1.
</event>
<event>
11    1  0.8328696E-009  0.1768798E+03  0.7561462E-02  0.1072195E+00
         22   -1    0    0    0    0  0.00000000000E+00  0.00000000000E+00  0.14091396295E+04  0.14091396295E+04  0.00000000000E+00 0. -1.
         22   -1    0    0    0    0 -0.00000000000E+00 -0.00000000000E+00 -0.21310809246E+04  0.21310809246E+04  0.00000000000E+00 0. -1.
        -24    2    1    2    0    0 -0.12587099780E+03 -0.45251351485E+01 -0.20090860129E+04  0.20149948611E+04  0.88958968742E+02 0.  0.
         25    2    1    2    0    0  0.10532121667E+03 -0.78758195629E+02 -0.45733692632E+02  0.18717720158E+03  0.12509325358E+03 0.  0.
         24    2    1    2    0    0  0.20549781131E+02  0.83283330778E+02  0.13328784105E+04  0.13380484914E+04  0.80315014565E+02 0.  0.
        -13    1    5    5    0    0 -0.25244582833E+02  0.35232744988E+01  0.27341040754E+03  0.27459598208E+03  0.00000000000E+00 0.  1.
         14    1    5    5    0    0  0.45794363964E+02  0.79760056279E+02  0.10594680030E+04  0.10634525093E+04  0.00000000000E+00 0. -1.
         13    1    3    3    0    0 -0.11194004727E+03  0.30397462427E+02 -0.15901812038E+04  0.15944061091E+04  0.00000000000E+00 0. -1.
        -14    1    3    3    0    0 -0.13930950536E+02 -0.34922597576E+02 -0.41890480911E+03  0.42058875199E+03  0.00000000000E+00 0.  1.
          5    1    4    4  501    0  0.22195733788E+02  0.33502890397E+02 -0.19978351005E+02  0.45074395972E+02  0.41800000000E+01 0.  1.
         -5    1    4    4    0  501  0.83125482885E+02 -0.11226108603E+03 -0.25755341627E+02  0.14210280561E+03  0.41800000000E+01 0.  1.
</event>
<event>
11    1  0.8328696E-009  0.1818416E+03  0.7561462E-02  0.1068163E+00
         22   -1    0    0    0    0  0.00000000000E+00  0.00000000000E+00  0.24670325345E+03  0.24670325345E+03  0.00000000000E+00 0.  1.
         22   -1    0    0    0    0 -0.00000000000E+00 -0.00000000000E+00 -0.50113064705E+03  0.50113064705E+03  0.00000000000E+00 0. -1.
        -24    2    1    2    0    0  0.65366508626E+01 -0.13370799316E+03 -0.38976900214E+03  0.42028090678E+03  0.82435491949E+02 0.  0.
         25    2    1    2    0    0 -0.47763446914E+02  0.11677824866E+03  0.17243838208E+02  0.17850321160E+03  0.12509012901E+03 0.  0.
         24    2    1    2    0    0  0.41226796052E+02  0.16929744496E+02  0.11809777033E+03  0.14904978212E+03  0.79262155099E+02 0.  0.
        -13    1    5    5    0    0  0.14705001898E+02 -0.27835734907E+02  0.75514060152E+02  0.81813437156E+02  0.00000000000E+00 0.  1.
         14    1    5    5    0    0  0.26521794153E+02  0.44765479403E+02  0.42583710179E+02  0.67236344963E+02  0.00000000000E+00 0. -1.
         11    1    3    3    0    0  0.36732175667E+02 -0.10090413854E+03 -0.31948277322E+03  0.33704619904E+03  0.00000000000E+00 0. -1.
        -12    1    3    3    0    0 -0.30195524805E+02 -0.32803854620E+02 -0.70286228922E+02  0.83234707738E+02  0.00000000000E+00 0.  1.
          5    1    4    4  501    0 -0.36954094345E+02  0.14274443583E+03  0.23549027981E+02  0.14937740180E+03  0.41800000000E+01 0. -1.
         -5    1    4    4    0  501 -0.10809352569E+02 -0.25966187165E+02 -0.63051897728E+01  0.29125809807E+02  0.41800000000E+01 0. -1.
</event>
<event>
11    1  0.8328696E-009  0.2444944E+03  0.7561462E-02  0.1026874E+00
         22   -1    0    0    0    0  0.00000000000E+00  0.00000000000E+00  0.43877776201E+02  0.43877776201E+02  0.00000000000E+00 0. -1.
         22   -1    0    0    0    0 -0.00000000000E+00 -0.00000000000E+00 -0.18295934565E+04  0.18295934565E+04  0.00000000000E+00 0.  1.
         24    2    1    2    0    0 -0.10311584201E+03 -0.18155396597E+03 -0.72844810713E+03  0.76198986278E+03  0.79982415395E+02 0.  0.
         25    2    1    2    0    0  0.89408888840E+02  0.19183517438E+03 -0.90687936108E+03  0.93961362395E+03  0.12509557640E+03 0.  0.
        -24    2    1    2    0    0  0.13706953172E+02 -0.10281208412E+02 -0.15038821211E+03  0.17186774599E+03  0.81414519318E+02 0.  0.
        -13    1    3    3    0    0 -0.74369133190E+02 -0.17467662826E+03 -0.56932268080E+03  0.60014248917E+03  0.00000000000E+00 0.  1.
         14    1    3    3    0    0 -0.28746708821E+02 -0.68773377113E+01 -0.15912542633E+03  0.16184737362E+03  0.00000000000E+00 0. -1.
         13    1    5    5    0    0  0.29031942422E+01 -0.36477383380E+02 -0.27551972624E+02  0.45805449791E+02  0.00000000000E+00 0. -1.
        -14    1    5    5    0    0  0.10803758929E+02  0.26196174968E+02 -0.12283623949E+03  0.12606229620E+03  0.00000000000E+00 0.  1.
          5    1    4    4  501    0  0.94379260519E+02  0.66807941827E+02 -0.34256670562E+03  0.36158009639E+03  0.41800000000E+01 0.  1.
         -5    1    4    4    0  501 -0.49703716794E+01  0.12502723255E+03 -0.56431265546E+03  0.57803352756E+03  0.41800000000E+01 0.  1.
</event>
<event>
11    1  0.8803494E-009  0.1531015E+03  0.7561462E-02  0.1093751E+00
         22   -1    0    0    0    0  0.00000000000E+00  0.00000000000E+00  0.12549277477E+04  0.12549277477E+04  0.00000000000E+00 0.  1.
         22   -1    0    0    0    0 -0.00000000000E+00 -0.00000000000E+00 -0.18704845954E+04  0.18704845954E+04  0.00000000000E+00 0.  1.
         24    2    1    2    0    0  0.33946633543E+02  0.68484444945E+02 -0.11361948183E+04  0.11415910997E+04  0.80306167020E+02 0.  0.
         25    2    1    2    0    0  0.22331851960E+01 -0.14879563645E+03 -0.71576250991E+03  0.74169318170E+03  0.12509067365E+03 0.  0.
        -24    2    1    2    0    0 -0.36179818739E+02  0.80311191503E+02  0.12364004805E+04  0.12421280618E+04  0.80231582698E+02 0.  0.
        -11    1    3    3    0    0  0.23608068612E+02  0.71650513481E+02 -0.53433470042E+03  0.53963386574E+03  0.00000000000E+00 0.  1.
         12    1    3    3    0    0  0.10338564932E+02 -0.31660685353E+01 -0.60186011792E+03  0.60195723391E+03  0.00000000000E+00 0. -1.
         11    1    5    5    0    0 -0.44857466765E+02  0.64338585911E+02  0.55812533417E+03  0.56360938123E+03  0.00000000000E+00 0. -1.
        -12    1    5    5    0    0  0.86776480251E+01  0.15972605592E+02  0.67827514636E+03  0.67851868056E+03  0.00000000000E+00 0.  1.
          5    1    4    4  501    0  0.19388213428E+02 -0.11802701504E+03 -0.28021634832E+03  0.30470469863E+03  0.41800000000E+01 0. -1.
         -5    1    4    4    0  501 -0.17155028231E+02 -0.30768621408E+02 -0.43554616159E+03  0.43698848307E+03  0.41800000000E+01 0. -1.
</event>
<event>
11    1  0.8328696E-009  0.1337668E+03  0.7561462E-02  0.1114726E+00
         22   -1    0    0    0    0  0.00000000000E+00  0.00000000000E+00  0.24225933646E+03  0.24225933646E+03  0.00000000000E+00 0.  1.
         22   -1    0    0    0    0 -0.00000000000E+00 -0.00000000000E+00 -0.26201210849E+04  0.26201210849E+04  0.00000000000E+00 0.  1.
        -24    2    1    2    0    0  0.14597509210E+02 -0.24383187151E+02 -0.21862831654E+04  0.21881309692E+04  0.85296144252E+02 0.  0.
         25    2    1    2    0    0 -0.37850176316E+02 -0.17254390780E+02 -0.41321090717E+03  0.43373018579E+03  0.12509304700E+03 0.  0.
         24    2    1    2    0    0  0.23252667107E+02  0.41637577931E+02  0.22163232407E+03  0.24051926637E+03  0.80338384354E+02 0.  0.
        -11    1    5    5    0    0  0.32233994708E+02  0.36693289604E+02  0.22459761409E+03  0.22984672321E+03  0.00000000000E+00 0.  1.
         12    1    5    5    0    0 -0.89813276014E+01  0.49442883271E+01 -0.29652900224E+01  0.10672543158E+02  0.00000000000E+00 0. -1.
         13    1    3    3    0    0  0.56785327056E+01  0.29149689996E+02 -0.43798718836E+03  0.43899285566E+03  0.00000000000E+00 0. -1.
        -14    1    3    3    0    0  0.89189765040E+01 -0.53532877147E+02 -0.17482959770E+04  0.17491381136E+04  0.00000000000E+00 0.  1.
          5    1    4    4  501    0 -0.73887190444E+02 -0.16922649261E+00 -0.35755057652E+03  0.36512906309E+03  0.41800000000E+01 0.  1.
         -5    1    4    4    0  501  0.36037014128E+02 -0.17085164288E+02 -0.55660330654E+02  0.68601122691E+02  0.41800000000E+01 0.  1.
</event>
<event>
11    1  0.8328696E-009  0.1342635E+03  0.7561462E-02  0.1114139E+00
         22   -1    0    0    0    0  0.00000000000E+00  0.00000000000E+00  0.11851494597E+04  0.11851494597E+04  0.00000000000E+00 0. -1.
         22   -1    0    0    0    0 -0.00000000000E+00 -0.00000000000E+00 -0.11385462798E+04  0.11385462798E+04  0.00000000000E+00 0.  1.
        -24    2    1    2    0    0 -0.42381739794E+02  0.23786697688E+02 -0.10849768765E+04  0.10889082636E+04  0.78640734513E+02 0.  0.
         25    2    1    2    0    0  0.28218625741E+02 -0.69091353500E+02  0.57016041900E+02  0.15642061685E+03  0.12508666746E+03 0.  0.
         24    2    1    2    0    0  0.14163114052E+02  0.45304655812E+02  0.10745640145E+04  0.10783668591E+04  0.77033472303E+02 0.  0.
        -13    1    5    5    0    0  0.17222181367E+02 -0.28743051062E+01  0.55987533869E+02  0.58646987217E+02  0.00000000000E+00 0.  1.
         14    1    5    5    0    0 -0.30590673141E+01  0.48178960918E+02  0.10185764806E+04  0.10197198719E+04  0.00000000000E+00 0. -1.
         13    1    3    3    0    0 -0.47360544741E+02  0.50636748530E+01 -0.30550662865E+03  0.30919728677E+03  0.00000000000E+00 0. -1.
        -14    1    3    3    0    0  0.49788049469E+01  0.18723022835E+02 -0.77947024784E+03  0.77971097680E+03  0.00000000000E+00 0.  1.
          5    1    4    4  501    0  0.72368694221E+02 -0.31922322190E+02  0.58611805634E+02  0.98534657440E+02  0.41800000000E+01 0. -1.
         -5    1    4    4    0  501 -0.44150068480E+02 -0.37169031310E+02 -0.15957637338E+01  0.57885959413E+02  0.41800000000E+01 0. -1.
</event>
<event>
11    1  0.8328696E-009  0.2233399E+03  0.7561462E-02  0.1039145E+00
         22   -1    0    0    0    0  0.00000000000E+00  0.00000000000E+00  0.28695411057E+04  0.28695411057E+04  0.00000000000E+00 0.  1.
         22   -1    0    0    0    0 -0.00000000000E+00 -0.00000000000E+00 -0.18292842049E+03  0.18292842049E+03  0.00000000000E+00 0.  1.
         24    2    1    2    0    0  0.10804424395E+03 -0.14435617818E+03 -0.92715511022E+02  0.21851886734E+03  0.81498862372E+02 0.  0.
         25    2    1    2    0    0 -0.17279084210E+03  0.16772505257E+03  0.68296411876E+03  0.73489813500E+03  0.12508762110E+03 0.  0.
        -24    2    1    2    0    0  0.64746598145E+02 -0.23368874387E+02  0.20963640774E+04  0.20990525238E+04  0.80875993396E+02 0.  0.
        -11    1    3    3    0    0  0.80291388129E+02 -0.12708615212E+03 -0.10525272361E+03  0.18350948993E+03  0.00000000000E+00 0.  1.
         12    1    3    3    0    0  0.27752855825E+02 -0.17270026063E+02  0.12537212591E+02  0.35009377404E+02  0.00000000000E+00 0. -1.
         11    1    5    5    0    0  0.72296610454E+01 -0.42294705825E+02  0.64479702870E+03  0.64622311810E+03  0.00000000000E+00 0. -1.
        -12    1    5    5    0    0  0.57516937100E+02  0.18925831438E+02  0.14515670487E+04  0.14528294057E+04  0.00000000000E+00 0.  1.
          5    1    4    4  501    0 -0.11465956053E+03  0.94402655877E+02  0.24101771195E+03  0.28313545545E+03  0.41800000000E+01 0.  1.
         -5    1    4    4    0  501 -0.58131281572E+02  0.73322396689E+02  0.44194640680E+03  0.45176267955E+03  0.41800000000E+01 0.  1.
</event>
<event>
11    1  0.8328696E-009  0.1344182E+03  0.7561462E-02  0.1113956E+00
         22   -1    0    0    0    0  0.00000000000E+00  0.00000000000E+00  0.10074015203E+04  0.10074015203E+04  0.00000000000E+00 0. -1.
         22   -1    0    0    0    0 -0.00000000000E+00 -0.00000000000E+00 -0.20803853421E+04  0.20803853421E+04  0.00000000000E+00 0. -1.
         24    2    1    2    0    0 -0.78422483661E+01  0.48153732883E+02 -0.19719387452E+04  0.19740860370E+04  0.78057567756E+02 0.  0.
         25    2    1    2    0    0  0.49057711887E+00 -0.74580122869E+02 -0.55310947426E+02  0.15575149897E+03  0.12504716363E+03 0.  0.
        -24    2    1    2    0    0  0.73516712473E+01  0.26426389986E+02  0.95426587079E+03  0.95794932653E+03  0.79316826035E+02 0.  0.
        -11    1    3    3    0    0 -0.11744588945E+02 -0.20317532903E+02 -0.50106593466E+03  0.50161519952E+03  0.00000000000E+00 0.  1.
         12    1    3    3    0    0  0.39023405784E+01  0.68471265786E+02 -0.14708728105E+04  0.14724708375E+04  0.00000000000E+00 0. -1.
         11    1    5    5    0    0 -0.63254584934E+01  0.48121436666E+02  0.80766862534E+03  0.80912563452E+03  0.00000000000E+00 0. -1.
        -12    1    5    5    0    0  0.13677129741E+02 -0.21695046680E+02  0.14659724545E+03  0.14882369201E+03  0.00000000000E+00 0.  1.
          5    1    4    4  501    0 -0.28431580240E+02 -0.23879421136E+02  0.32973839002E+02  0.49833000785E+02  0.41800000000E+01 0.  1.
         -5    1    4    4    0  501  0.28922157359E+02 -0.50700701733E+02 -0.88284786428E+02  0.10591849818E+03  0.41800000000E+01 0.  1.
</event>
<event>
11    1  0.8328696E-009  0.1280620E+03  0.7561462E-02  0.1121673E+00
         22   -1    0    0    0    0  0.00000000000E+00  0.00000000000E+00  0.68641755631E+03  0.68641755631E+03  0.00000000000E+00 0. -1.
         22   -1    0    0    0    0 -0.00000000000E+00 -0.00000000000E+00 -0.49690283522E+03  0.49690283522E+03  0.00000000000E+00 0.  1.
        -24    2    1    2    0    0  0.26220486502E+02 -0.18913445221E+02 -0.38837236312E+03  0.40274532825E+03  0.10161434282E+03 0.  0.
         25    2    1    2    0    0  0.32137632766E+01  0.47345650802E+01 -0.58696696977E+02  0.13829615834E+03  0.12509108999E+03 0.  0.
         24    2    1    2    0    0 -0.29434249779E+02  0.14178880141E+02  0.63658378118E+03  0.64227890495E+03  0.78840760843E+02 0.  0.
        -13    1    5    5    0    0  0.11067566112E+02  0.23383771825E+02  0.78530844765E+02  0.82682436974E+02  0.00000000000E+00 0.  1.
         14    1    5    5    0    0 -0.40501815891E+02 -0.92048916841E+01  0.55805293642E+03  0.55959646797E+03  0.00000000000E+00 0. -1.
         11    1    3    3    0    0  0.21964998088E+02  0.17020434518E+02 -0.24403744934E+02  0.36982416078E+02  0.00000000000E+00 0. -1.
        -12    1    3    3    0    0  0.42554884147E+01 -0.35933879739E+02 -0.36396861818E+03  0.36576291217E+03  0.00000000000E+00 0.  1.
          5    1    4    4  501    0 -0.43590099600E+02 -0.40262971184E+02 -0.20887457842E+02  0.63047299124E+02  0.41800000000E+01 0. -1.
         -5    1    4    4    0  501  0.46803862877E+02  0.44997536264E+02 -0.37809239135E+02  0.75248859220E+02  0.41800000000E+01 0. -1.
</event>
<event>
11    1  0.8328696E-009  0.1570700E+03  0.7561462E-02  0.1089866E+00
         22   -1    0    0    0    0  0.00000000000E+00  0.00000000000E+00  0.29823599010E+03  0.29823599010E+03  0.00000000000E+00 0. -1.
         22   -1    0    0    0    0 -0.00000000000E+00 -0.00000000000E+00 -0.12298299396E+04  0.12298299396E+04  0.00000000000E+00 0. -1.
         24    2    1    2    0    0 -0.21550912657E+02 -0.91574725923E+02 -0.11345198872E+04  0.11414283043E+04  0.82902515840E+02 0.  0.
         25    2    1    2    0    0  0.63043572251E+02  0.10855532727E+03  0.15336235085E+02  0.17788504518E+03  0.12509651518E+03 0.  0.
        -24    2    1    2    0    0 -0.41492659594E+02 -0.16980601345E+02  0.18758970264E+03  0.20875258021E+03  0.79860888972E+02 0.  0.
        -13    1    3    3    0    0 -0.61630907717E+01 -0.44452074550E+02 -0.17613412606E+03  0.18176138474E+03  0.00000000000E+00 0.  1.
         14    1    3    3    0    0 -0.15387821885E+02 -0.47122651373E+02 -0.95838576115E+03  0.95966691957E+03  0.00000000000E+00 0. -1.
         11    1    5    5    0    0 -0.51375333259E+02  0.12552446422E+02  0.15455261339E+03  0.16335084660E+03  0.00000000000E+00 0. -1.
        -12    1    5    5    0    0  0.98826736648E+01 -0.29533047767E+02  0.33037089246E+02  0.45401733613E+02  0.00000000000E+00 0.  1.
          5    1    4    4  501    0  0.99893413834E+02  0.77887320246E+02  0.23991160321E+02  0.12898905751E+03  0.41800000000E+01 0.  1.
         -5    1    4    4    0  501 -0.36849841583E+02  0.30668007021E+02 -0.86549252367E+01  0.48895987670E+02  0.41800000000E+01 0.  1.
</event>
<event>
11    1  0.8328696E-009  0.1573020E+03  0.7561462E-02  0.1089643E+00
         22   -1    0    0    0    0  0.00000000000E+00  0.00000000000E+00  0.59680552933E+03  0.59680552933E+03  0.00000000000E+00 0. -1.
         22   -1    0    0    0    0 -0.00000000000E+00 -0.00000000000E+00 -0.38009928747E+03  0.38009928747E+03  0.00000000000E+00 0.  1.
        -24    2    1    2    0    0  0.88144735984E+02  0.32084875253E+02 -0.32289686753E+03  0.34652867577E+03  0.83790228363E+02 0.  0.
         25    2    1    2    0    0 -0.11087898102E+03 -0.46639056537E+02  0.14417171559E+03  0.22561106969E+03  0.12508205773E+03 0.  0.
         24    2    1    2    0    0  0.22734245039E+02  0.14554181284E+02  0.39543139380E+03  0.40476507134E+03  0.82098146659E+02 0.  0.
        -11    1    5    5    0    0  0.12229884452E+02  0.93713826819E+00  0.39211069232E+01  0.12877242770E+02  0.00000000000E+00 0.  1.
         12    1    5    5    0    0  0.10504360587E+02  0.13617043016E+02  0.39151028688E+03  0.39188782857E+03  0.00000000000E+00 0. -1.
         13    1    3    3    0    0  0.54034094554E+02 -0.19645974762E+02 -0.10181301113E+03  0.11692534770E+03  0.00000000000E+00 0. -1.
        -14    1    3    3    0    0  0.34110641429E+02  0.51730850015E+02 -0.22108385640E+03  0.22960332807E+03  0.00000000000E+00 0.  1.
          5    1    4    4  501    0 -0.97795449333E+02 -0.25426393316E+02  0.16455212571E+03  0.19314586680E+03  0.41800000000E+01 0. -1.
         -5    1    4    4    0  501 -0.13083531690E+02 -0.21212663221E+02 -0.20380410117E+02  0.32465202895E+02  0.41800000000E+01 0. -1.
</event>
<event>
11    1  0.8328696E-009  0.1456924E+03  0.7561462E-02  0.1101363E+00
         22   -1    0    0    0    0  0.00000000000E+00  0.00000000000E+00  0.60579111228E+03  0.60579111228E+03  0.00000000000E+00 0.  1.
         22   -1    0    0    0    0 -0.00000000000E+00 -0.00000000000E+00 -0.11312063939E+03  0.11312063939E+03  0.00000000000E+00 0.  1.
        -24    2    1    2    0    0  0.52390019866E+02  0.47065826396E+02 -0.43054601065E+02  0.11856311367E+03  0.85109382887E+02 0.  0.
         25    2    1    2    0    0 -0.74727590735E+02 -0.70894237971E+02  0.22229828754E+03  0.27508262299E+03  0.12507483773E+03 0.  0.
         24    2    1    2    0    0  0.22337570869E+02  0.23828411575E+02  0.31342678642E+03  0.32526601500E+03  0.80590755043E+02 0.  0.
        -13    1    5    5    0    0  0.17644413716E+02  0.53190863935E+02  0.22894326364E+03  0.23570237867E+03  0.00000000000E+00 0.  1.
         14    1    5    5    0    0  0.46931571528E+01 -0.29362452360E+02  0.84483522774E+02  0.89563636332E+02  0.00000000000E+00 0. -1.
         11    1    3    3    0    0  0.31168239926E+02 -0.87461711400E+01  0.14643882621E+02  0.35530240471E+02  0.00000000000E+00 0. -1.
        -12    1    3    3    0    0  0.21221779940E+02  0.55811997536E+02 -0.57698483687E+02  0.83032873204E+02  0.00000000000E+00 0.  1.
          5    1    4    4  501    0 -0.95201824898E+02 -0.68519113400E+02  0.22510398035E+03  0.25386518221E+03  0.41800000000E+01 0. -1.
         -5    1    4    4    0  501  0.20474234164E+02 -0.23751245708E+01 -0.28056928133E+01  0.21217440785E+02  0.41800000000E+01 0. -1.
</event>
<event>
11    1  0.8328696E-009  0.1424712E+03  0.7561462E-02  0.1104830E+00
         22   -1    0    0    0    0  0.00000000000E+00  0.00000000000E+00  0.84820812926E+03  0.84820812926E+03  0.00000000000E+00 0.  1.
         22   -1    0    0    0    0 -0.00000000000E+00 -0.00000000000E+00 -0.28687113928E+03  0.28687113928E+03  0.00000000000E+00 0. -1.
         24    2    1    2    0    0  0.37927679669E+02 -0.55903505050E+02 -0.25130549328E+03  0.27230223281E+03  0.80189427466E+02 0.  0.
         25    2    1    2    0    0 -0.78202951252E+01  0.99214261776E+02  0.28880689453E+03  0.33009305471E+03  0.12508947070E+03 0.  0.
        -24    2    1    2    0    0 -0.30107384543E+02 -0.43310756726E+02  0.52383558873E+03  0.53268398101E+03  0.81032236541E+02 0.  0.
        -11    1    3    3    0    0  0.18193243406E+02 -0.12586531148E+02 -0.67098544044E+01  0.23117893894E+02  0.00000000000E+00 0.  1.
         12    1    3    3    0    0  0.19734436262E+02 -0.43316973902E+02 -0.24459563888E+03  0.24918433892E+03  0.00000000000E+00 0. -1.
         13    1    5    5    0    0 -0.48410416918E+02 -0.56172833654E+02  0.41498910500E+03  0.42156246628E+03  0.00000000000E+00 0. -1.
        -14    1    5    5    0    0  0.18303032375E+02  0.12862076928E+02  0.10884648373E+03  0.11112151474E+03  0.00000000000E+00 0.  1.
          5    1    4    4  501    0  0.41814620262E+02  0.17484612035E+02  0.30938203394E+02  0.55034706822E+02  0.41800000000E+01 0. -1.
         -5    1    4    4    0  501 -0.49634915388E+02  0.81729649742E+02  0.25786869114E+03  0.27505834789E+03  0.41800000000E+01 0. -1.
</event>
<event>
11    1  0.8328696E-009  0.1510379E+03  0.7561462E-02  0.1095823E+00
         22   -1    0    0    0    0  0.00000000000E+00  0.00000000000E+00  0.35621192768E+03  0.35621192768E+03  0.00000000000E+00 0.  1.
         22   -1    0    0    0    0 -0.00000000000E+00 -0.00000000000E+00 -0.14372218868E+04  0.14372218868E+04  0.00000000000E+00 0. -1.
        -24    2    1    2    0    0 -0.59289541922E+02 -0.47994192296E+02 -0.88003183114E+03  0.88688846198E+03  0.79350033924E+02 0.  0.
         25    2    1    2    0    0  0.70258464225E+02  0.99787632206E+02 -0.53301212181E+03  0.56093124943E+03  0.12509245081E+03 0.  0.
         24    2    1    2    0    0 -0.10968922303E+02 -0.51793439909E+02  0.33203399389E+03  0.34561410303E+03  0.79997858988E+02 0.  0.
        -11    1    5    5    0    0 -0.45080150698E+02 -0.20926321330E+02  0.16056426155E+03  0.16808037660E+03  0.00000000000E+00 0.  1.
         12    1    5    5    0    0  0.34111228395E+02 -0.30867118580E+02  0.17146973233E+03  0.17753372643E+03  0.00000000000E+00 0. -1.
         11    1    3    3    0    0 -0.78805437836E+02 -0.42966949245E+02 -0.69947554847E+03  0.70521096040E+03  0.00000000000E+00 0. -1.
        -12    1    3    3    0    0  0.19515895914E+02 -0.50272430516E+01 -0.18055628268E+03  0.18167750158E+03  0.00000000000E+00 0.  1.
          5    1    4    4  501    0 -0.14809559872E+02 -0.61732063309E+01 -0.76415805415E+01  0.18256442511E+02  0.41800000000E+01 0. -1.
         -5    1    4    4    0  501  0.85068024097E+02  0.10596083854E+03 -0.52537054127E+03  0.54267480691E+03  0.41800000000E+01 0. -1.
</event>
<event>
11    1  0.8328696E-009  0.1709750E+03  0.7561462E-02  0.1077186E+00
         22   -1    0    0    0    0  0.00000000000E+00  0.00000000000E+00  0.74599416778E+03  0.74599416778E+03  0.00000000000E+00 0. -1.
         22   -1    0    0    0    0 -0.00000000000E+00 -0.00000000000E+00 -0.36830824073E+04  0.36830824073E+04  0.00000000000E+00 0. -1.
         24    2    1    2    0    0  0.11085866100E+02  0.11563512669E+03 -0.36068196215E+04  0.36095818368E+04  0.80242604071E+02 0.  0.
         25    2    1    2    0    0 -0.42898079318E+02 -0.15395364359E+03  0.74822212818E+02  0.21630597771E+03  0.12509173785E+03 0.  0.
        -24    2    1    2    0    0  0.31812213218E+02  0.38318516901E+02  0.59490916919E+03  0.60318876056E+03  0.86252163073E+02 0.  0.
        -13    1    3    3    0    0 -0.28699572380E+02  0.52595621173E+02 -0.10780657467E+04  0.10797294657E+04  0.00000000000E+00 0.  1.
         14    1    3    3    0    0  0.39785438480E+02  0.63039505519E+02 -0.25287538748E+04  0.25298523711E+04  0.00000000000E+00 0. -1.
         13    1    5    5    0    0  0.38180850379E+02  0.33073458469E+02  0.59242185737E+03  0.59457151638E+03  0.00000000000E+00 0. -1.
        -14    1    5    5    0    0 -0.63686371607E+01  0.52450584316E+01  0.24873118108E+01  0.86172441813E+01  0.00000000000E+00 0.  1.
          5    1    4    4  501    0 -0.43896036007E+02 -0.15246126577E+03  0.10205868120E+03  0.18869220001E+03  0.41800000000E+01 0. -1.
         -5    1    4    4    0  501  0.99795668918E+00 -0.14923778272E+01 -0.27236468380E+02  0.27613777702E+02  0.41800000000E+01 0. -1.
</event>
<event>
11    1  0.8328696E-009  0.1444921E+03  0.7561462E-02  0.1102643E+00
         22   -1    0    0    0    0  0.00000000000E+00  0.00000000000E+00  0.95889920548E+02  0.95889920548E+02  0.00000000000E+00 0. -1.
         22   -1    0    0    0    0 -0.00000000000E+00 -0.00000000000E+00 -0.52433662142E+03  0.52433662142E+03  0.00000000000E+00 0.  1.
         24    2    1    2    0    0  0.54539755842E+02 -0.39258199994E+02 -0.32995319861E+03  0.34591924986E+03  0.79216304609E+02 0.  0.
         25    2    1    2    0    0 -0.68484599668E+02  0.79928704888E+02 -0.92204604435E+02  0.18769476281E+03  0.12509555009E+03 0.  0.
        -24    2    1    2    0    0  0.13944843826E+02 -0.40670504894E+02 -0.62888978251E+01  0.86612529296E+02  0.74924170716E+02 0.  0.
        -13    1    3    3    0    0  0.69168736767E+02 -0.24055589686E+02 -0.30281678621E+03  0.31154613070E+03  0.00000000000E+00 0.  1.
         14    1    3    3    0    0 -0.14628980924E+02 -0.15202610308E+02 -0.27136412401E+02  0.34373119164E+02  0.00000000000E+00 0. -1.
         11    1    5    5    0    0 -0.49261295414E+01 -0.13712517077E+02  0.32577037709E+02  0.35687018126E+02  0.00000000000E+00 0. -1.
        -12    1    5    5    0    0  0.18870973367E+02 -0.26957987817E+02 -0.38865935534E+02  0.50925511170E+02  0.00000000000E+00 0.  1.
          5    1    4    4  501    0  0.28588756419E+02  0.42244392498E+02 -0.43059968831E+01  0.51360682436E+02  0.41800000000E+01 0.  1.
         -5    1    4    4    0  501 -0.97073356088E+02  0.37684312390E+02 -0.87898607552E+02  0.13633408038E+03  0.41800000000E+01 0.  1.
</event>
<event>
11    1  0.8328696E-009  0.1634386E+03  0.7561462E-02  0.1083887E+00
         22   -1    0    0    0    0  0.00000000000E+00  0.00000000000E+00  0.79097854802E+03  0.79097854802E+03  0.00000000000E+00 0. -1.
         22   -1    0    0    0    0 -0.00000000000E+00 -0.00000000000E+00 -0.25689446824E+03  0.25689446824E+03  0.00000000000E+00 0. -1.
        -24    2    1    2    0    0 -0.34985694691E+02 -0.41507150489E+02 -0.97577722406E+02  0.13549435720E+03  0.76749374899E+02 0.  0.
         25    2    1    2    0    0  0.79729355902E+02  0.13416022279E+03 -0.59714145495E+02  0.20873029957E+03  0.12508726240E+03 0.  0.
         24    2    1    2    0    0 -0.44743661211E+02 -0.92653072298E+02  0.69137594768E+03  0.70364835950E+03  0.80831465254E+02 0.  0.
        -11    1    5    5    0    0  0.12592650661E+02  0.46140444305E+01  0.15147557810E+03  0.15206812624E+03  0.00000000000E+00 0.  1.
         12    1    5    5    0    0 -0.57336311873E+02 -0.97267116729E+02  0.53990036958E+03  0.55158023327E+03  0.00000000000E+00 0. -1.
         13    1    3    3    0    0 -0.54394589585E+02 -0.15669203657E+02 -0.39481107455E+02  0.69014876405E+02  0.00000000000E+00 0. -1.
        -14    1    3    3    0    0  0.19408894894E+02 -0.25837946831E+02 -0.58096614951E+02  0.66479480791E+02  0.00000000000E+00 0.  1.
          5    1    4    4  501    0 -0.29280983095E+02  0.30369047993E+02  0.88043755219E+01  0.43297164749E+02  0.41800000000E+01 0. -1.
         -5    1    4    4    0  501  0.10901033900E+03  0.10379117479E+03 -0.68518521017E+02  0.16543313482E+03  0.41800000000E+01 0. -1.
</event>
<event>
11    1  0.8328696E-009  0.1418862E+03  0.7561462E-02  0.1105470E+00
         22   -1    0    0    0    0  0.00000000000E+00  0.00000000000E+00  0.96091507733E+03  0.96091507733E+03  0.00000000000E+00 0.  1.
         22   -1    0    0    0    0 -0.00000000000E+00 -0.00000000000E+00 -0.32792233092E+03  0.32792233092E+03  0.00000000000E+00 0.  1.
        -24    2    1    2    0    0 -0.64178728833E+02 -0.33673596770E+02 -0.26067370376E+03  0.28264967860E+03  0.81775550299E+02 0.  0.
         25    2    1    2    0    0  0.13644358915E+02  0.32193618778E+02  0.24930955586E+02  0.13225888789E+03  0.12509301843E+03 0.  0.
         24    2    1    2    0    0  0.50534369918E+02  0.14799779922E+01  0.86873549459E+03  0.87392884176E+03  0.80587517787E+02 0.  0.
        -13    1    5    5    0    0 -0.46279528785E+00 -0.15467308858E+02  0.58171735489E+03  0.58192313307E+03  0.00000000000E+00 0.  1.
         14    1    5    5    0    0  0.50997165206E+02  0.16947286851E+02  0.28701813969E+03  0.29200570868E+03  0.00000000000E+00 0. -1.
         13    1    3    3    0    0  0.66638451055E+01  0.89994246404E+01 -0.23924966696E+01  0.11450786688E+02  0.00000000000E+00 0. -1.
        -14    1    3    3    0    0 -0.70842573938E+02 -0.42673021410E+02 -0.25828120709E+03  0.27119889192E+03  0.00000000000E+00 0.  1.
          5    1    4    4  501    0  0.39108661438E+02  0.42630972313E+02 -0.33894189224E+02  0.67180173139E+02  0.41800000000E+01 0.  1.
         -5    1    4    4    0  501 -0.25464302523E+02 -0.10437353535E+02  0.58825144810E+02  0.65078714752E+02  0.41800000000E+01 0.  1.
</event>
<event>
11    1  0.8328696E-009  0.1639588E+03  0.7561462E-02  0.1083412E+00
         22   -1    0    0    0    0  0.00000000000E+00  0.00000000000E+00  0.24038201882E+03  0.24038201882E+03  0.00000000000E+00 0. -1.
         22   -1    0    0    0    0 -0.00000000000E+00 -0.00000000000E+00 -0.59321122707E+03  0.59321122707E+03  0.00000000000E+00 0.  1.
         24    2    1    2    0    0 -0.16947413479E+02  0.12766301457E+02 -0.41221132443E+03  0.42019714877E+03  0.78722770339E+02 0.  0.
         25    2    1    2    0    0  0.97251208325E+01 -0.11692530361E+03 -0.10554217147E+03  0.20138863192E+03  0.12510845898E+03 0.  0.
        -24    2    1    2    0    0  0.72222926470E+01  0.10415900215E+03  0.16492428765E+03  0.21200746519E+03  0.82739865843E+02 0.  0.
        -13    1    3    3    0    0 -0.43654951303E+02  0.26869113056E+02 -0.26761524749E+03  0.27248050333E+03  0.00000000000E+00 0.  1.
         14    1    3    3    0    0  0.26707537824E+02 -0.14102811599E+02 -0.14459607695E+03  0.14771664544E+03  0.00000000000E+00 0. -1.
         13    1    5    5    0    0 -0.31474061801E+02  0.79207852375E+02  0.12360776151E+03  0.15014452754E+03  0.00000000000E+00 0. -1.
        -14    1    5    5    0    0  0.38696354448E+02  0.24951149777E+02  0.41316526139E+02  0.61862937652E+02  0.00000000000E+00 0.  1.
          5    1    4    4  501    0  0.27077856546E+02 -0.38366389688E+01  0.17959062258E+02  0.32983790426E+02  0.41800000000E+01 0. -1.
         -5    1    4    4    0  501 -0.17352735713E+02 -0.11308866464E+03 -0.12350123373E+03  0.16840484150E+03  0.41800000000E+01 0. -1.
</event>
<event>
11    1  0.8328696E-009  0.1459263E+03  0.7561462E-02  0.1101115E+00
         22   -1    0    0    0    0  0.00000000000E+00  0.00000000000E+00  0.80605888043E+03  0.80605888043E+03  0.00000000000E+00 0. -1.
         22   -1    0    0    0    0 -0.00000000000E+00 -0.00000000000E+00 -0.38678871396E+03  0.38678871396E+03  0.00000000000E+00 0.  1.
        -24    2    1    2    0    0 -0.69917287299E+02  0.25433259709E+02 -0.34263492405E+03  0.36022536039E+03  0.82633778352E+02 0.  0.
         25    2    1    2    0    0  0.72623113752E+02 -0.72513745871E+02  0.17475090293E+03  0.23814370115E+03  0.12506871844E+03 0.  0.
         24    2    1    2    0    0 -0.27058264529E+01  0.47080486161E+02  0.58715418760E+03  0.59447853285E+03  0.80192221192E+02 0.  0.
        -11    1    5    5    0    0  0.28729504064E+02 -0.19185659094E+01  0.30653621226E+03  0.30788555459E+03  0.00000000000E+00 0.  1.
         12    1    5    5    0    0 -0.31435330517E+02  0.48999052071E+02  0.28061797533E+03  0.28659297826E+03  0.00000000000E+00 0. -1.
         13    1    3    3    0    0  0.90356653861E+01  0.22140099143E+02 -0.33556532286E+02  0.41205195038E+02  0.00000000000E+00 0. -1.
        -14    1    3    3    0    0 -0.78952952685E+02  0.32931605660E+01 -0.30907839177E+03  0.31902016535E+03  0.00000000000E+00 0.  1.
          5    1    4    4  501    0  0.55387867510E+02  0.53312810271E+01  0.12309709307E+02  0.57142276538E+02  0.41800000000E+01 0. -1.
         -5    1    4    4    0  501  0.17235246241E+02 -0.77845026898E+02  0.16244119362E+03  0.18100142461E+03  0.41800000000E+01 0. -1.
</event>
<event>
11    1  0.8328696E-009  0.1588277E+03  0.7561462E-02  0.1088185E+00
         22   -1    0    0    0    0  0.00000000000E+00  0.00000000000E+00  0.36386507052E+03  0.36386507052E+03  0.00000000000E+00 0.  1.
         22   -1    0    0    0    0 -0.00000000000E+00 -0.00000000000E+00 -0.14332724679E+04  0.14332724679E+04  0.00000000000E+00 0. -1.
         24    2    1    2    0    0  0.14222630914E+02 -0.24012101306E+02 -0.13193091938E+04  0.13220492614E+04  0.80365641152E+02 0.  0.
         25    2    1    2    0    0  0.72260820503E+02  0.70015094117E+02 -0.32540837892E+02  0.16380652382E+03  0.12509968638E+03 0.  0.
        -24    2    1    2    0    0 -0.86483451418E+02 -0.46002992811E+02  0.28244263440E+03  0.31128175319E+03  0.86757278798E+02 0.  0.
        -13    1    3    3    0    0 -0.24888423114E+02 -0.34348370857E+02 -0.52509854136E+03  0.52680899985E+03  0.00000000000E+00 0.  1.
         14    1    3    3    0    0  0.39111054028E+02  0.10336269551E+02 -0.79421065248E+03  0.79524026151E+03  0.00000000000E+00 0. -1.
         11    1    5    5    0    0 -0.43686545062E+02 -0.13224637491E+01  0.34346227158E+02  0.55587106867E+02  0.00000000000E+00 0. -1.
        -12    1    5    5    0    0 -0.42796906355E+02 -0.44680529062E+02  0.24809640724E+03  0.25569464632E+03  0.00000000000E+00 0.  1.
          5    1    4    4  501    0 -0.52290867464E+01  0.17626064268E+01  0.38035468956E+02  0.38660308177E+02  0.41800000000E+01 0.  1.
         -5    1    4    4    0  501  0.77489907250E+02  0.68252487690E+02 -0.70576306848E+02  0.12514621564E+03  0.41800000000E+01 0.  1.
</event>
<event>
11    1  0.8328696E-009  0.1617116E+03  0.7561462E-02  0.1085478E+00
         22   -1    0    0    0    0  0.00000000000E+00  0.00000000000E+00  0.13773870951E+04  0.13773870951E+04  0.00000000000E+00 0. -1.
         22   -1    0    0    0    0 -0.00000000000E+00 -0.00000000000E+00 -0.49181557395E+02  0.49181557395E+02  0.00000000000E+00 0. -1.
        -24    2    1    2    0    0  0.11318691575E+03  0.30784880151E+01  0.15688967146E+03  0.20903314654E+03  0.79118470404E+02 0.  0.
         25    2    1    2    0    0 -0.59330515457E+02 -0.10161820276E+03  0.42166875085E+03  0.45530043079E+03  0.12509027795E+03 0.  0.
         24    2    1    2    0    0 -0.53856400288E+02  0.98539714747E+02  0.74964711542E+03  0.76223507519E+03  0.80130674220E+02 0.  0.
        -13    1    5    5    0    0 -0.28189588688E+02  0.25997605600E+02  0.48808206465E+03  0.48958618265E+03  0.00000000000E+00 0.  1.
         14    1    5    5    0    0 -0.25666811601E+02  0.72542109148E+02  0.26156505077E+03  0.27264889254E+03  0.00000000000E+00 0. -1.
         11    1    3    3    0    0  0.11242622544E+03 -0.16383756874E+02  0.15042892355E+03  0.18851245237E+03  0.00000000000E+00 0. -1.
        -12    1    3    3    0    0  0.76069030062E+00  0.19462244889E+02  0.64607479052E+01  0.20520694174E+02  0.00000000000E+00 0.  1.
          5    1    4    4  501    0 -0.15854022275E+02 -0.97151713089E+02  0.38703788011E+03  0.39938151988E+03  0.41800000000E+01 0.  1.
         -5    1    4    4    0  501 -0.43476493182E+02 -0.44664896733E+01  0.34630870738E+02  0.55918910911E+02  0.41800000000E+01 0.  1.
</event>
<event>
11    1  0.8328696E-009  0.1522714E+03  0.7561462E-02  0.1094580E+00
         22   -1    0    0    0    0  0.00000000000E+00  0.00000000000E+00  0.40640652959E+03  0.40640652959E+03  0.00000000000E+00 0. -1.
         22   -1    0    0    0    0 -0.00000000000E+00 -0.00000000000E+00 -0.12876234037E+04  0.12876234037E+04  0.00000000000E+00 0.  1.
        -24    2    1    2    0    0  0.43198368925E+01  0.55726936464E+02 -0.86020895794E+03  0.86562693671E+03  0.78907476181E+02 0.  0.
         25    2    1    2    0    0 -0.34559769054E+02 -0.13588983650E+03 -0.39437316639E+03  0.43685047552E+03  0.12509084017E+03 0.  0.
         24    2    1    2    0    0  0.30239932161E+02  0.80162900037E+02  0.37336525026E+03  0.39155252103E+03  0.81063077823E+02 0.  0.
        -11    1    5    5    0    0 -0.24217624506E+02  0.46355356646E+02  0.13678104376E+03  0.14643895096E+03  0.00000000000E+00 0.  1.
         12    1    5    5    0    0  0.54457556667E+02  0.33807543391E+02  0.23658420649E+03  0.24511357007E+03  0.00000000000E+00 0. -1.
         11    1    3    3    0    0  0.28268837839E+02 -0.73619598682E+01 -0.25589728350E+03  0.25755920746E+03  0.00000000000E+00 0. -1.
        -12    1    3    3    0    0 -0.23949000946E+02  0.63088896332E+02 -0.60431167444E+03  0.60806772924E+03  0.00000000000E+00 0.  1.
          5    1    4    4  501    0 -0.50167806292E+02 -0.94796181024E+02 -0.12893308594E+03  0.16776274251E+03  0.41800000000E+01 0.  1.
         -5    1    4    4    0  501  0.15608037238E+02 -0.41093655477E+02 -0.26544008045E+03  0.26908773301E+03  0.41800000000E+01 0.  1.
</event>
<event>
11    1  0.8328696E-009  0.1346336E+03  0.7561462E-02  0.1113703E+00
         22   -1    0    0    0    0  0.00000000000E+00  0.00000000000E+00  0.95887551214E+02  0.95887551214E+02  0.00000000000E+00 0. -1.
         22   -1    0    0    0    0 -0.00000000000E+00 -0.00000000000E+00 -0.11525877688E+04  0.11525877688E+04  0.00000000000E+00 0.  1.
        -24    2    1    2    0    0  0.17534754071E+00  0.22723834818E+02 -0.99009671136E+03  0.99361441978E+03  0.80384786658E+02 0.  0.
         25    2    1    2    0    0  0.47076475043E+02 -0.32645256403E+02 -0.79140281415E+02  0.15872064774E+03  0.12508857905E+03 0.  0.
         24    2    1    2    0    0 -0.47251822584E+02  0.99214215847E+01  0.12536775220E+02  0.96140252468E+02  0.82186422650E+02 0.  0.
        -13    1    5    5    0    0 -0.24307226434E+02  0.35034435398E+02 -0.21728112540E+02  0.47857745404E+02  0.00000000000E+00 0.  1.
         14    1    5    5    0    0 -0.22944596150E+02 -0.25113013813E+02  0.34264887760E+02  0.48282507065E+02  0.00000000000E+00 0. -1.
         11    1    3    3    0    0  0.17823799037E+02 -0.18909105945E+02 -0.14508646956E+03  0.14739513475E+03  0.00000000000E+00 0. -1.
        -12    1    3    3    0    0 -0.17648451496E+02  0.41632940764E+02 -0.84501024181E+03  0.84621928503E+03  0.00000000000E+00 0.  1.
          5    1    4    4  501    0 -0.34356011480E+02  0.18889612570E+02 -0.12071035035E+02  0.41235121858E+02  0.41800000000E+01 0.  1.
         -5    1    4    4    0  501  0.81432486523E+02 -0.51534868972E+02 -0.67069246380E+02  0.11748552588E+03  0.41800000000E+01 0.  1.
</event>
<event>
11    1  0.8328696E-009  0.1382814E+03  0.7561462E-02  0.1109493E+00
         22   -1    0    0    0    0  0.00000000000E+00  0.00000000000E+00  0.24286855525E+03  0.24286855525E+03  0.00000000000E+00 0. -1.
         22   -1    0    0    0    0 -0.00000000000E+00 -0.00000000000E+00 -0.10463467903E+04  0.10463467903E+04  0.00000000000E+00 0.  1.
        -24    2    1    2    0    0 -0.50511566289E+02 -0.27464755410E+02 -0.96289448383E+03  0.96789881088E+03  0.79728225740E+02 0.  0.
         25    2    1    2    0    0 -0.11967180440E+02  0.48958640532E+02  0.52785309751E+01  0.13496068864E+03  0.12508542160E+03 0.  0.
         24    2    1    2    0    0  0.62478746729E+02 -0.21493885122E+02  0.15413771780E+03  0.18635584605E+03  0.81267979041E+02 0.  0.
        -11    1    5    5    0    0  0.43245134053E+02  0.22913359413E+02  0.43032190402E+02  0.65168497525E+02  0.00000000000E+00 0.  1.
         12    1    5    5    0    0  0.19233612676E+02 -0.44407244535E+02  0.11110552740E+03  0.12118734852E+03  0.00000000000E+00 0. -1.
         13    1    3    3    0    0 -0.16932937739E+01  0.25793809432E+02 -0.22743551060E+03  0.22889975826E+03  0.00000000000E+00 0. -1.
        -14    1    3    3    0    0 -0.48818272515E+02 -0.53258564842E+02 -0.73545897323E+03  0.73899905262E+03  0.00000000000E+00 0.  1.
          5    1    4    4  501    0  0.16840061761E+02 -0.38427886585E+02  0.75067182196E+01  0.42826549779E+02  0.41800000000E+01 0. -1.
         -5    1    4    4    0  501 -0.28807242201E+02  0.87386527117E+02 -0.22281872445E+01  0.92134138859E+02  0.41800000000E+01 0. -1.
</event>
<event>
11    1  0.8328696E-009  0.1926062E+03  0.7561462E-02  0.1059879E+00
         22   -1    0    0    0    0  0.00000000000E+00  0.00000000000E+00  0.25826883350E+04  0.25826883350E+04  0.00000000000E+00 0. -1.
         22   -1    0    0    0    0 -0.00000000000E+00 -0.00000000000E+00 -0.14038741997E+03  0.14038741997E+03  0.00000000000E+00 0. -1.
        -24    2    1    2    0    0  0.60807312293E+02  0.33340415922E+02 -0.61630764639E+02  0.12050175662E+03  0.76897396807E+02 0.  0.
         25    2    1    2    0    0  0.74918854691E+02  0.32154724343E+02  0.74104416494E+02  0.16669394609E+03  0.12509454838E+03 0.  0.
         24    2    1    2    0    0 -0.13572616698E+03 -0.65495140265E+02  0.24298272632E+04  0.24358800523E+04  0.82096859307E+02 0.  0.
        -13    1    5    5    0    0 -0.21711329999E+02 -0.23679376389E+02  0.18488039410E+03  0.18765088552E+03  0.00000000000E+00 0.  1.
         14    1    5    5    0    0 -0.11401483699E+03 -0.41815763876E+02  0.22449468691E+04  0.22482291668E+04  0.00000000000E+00 0. -1.
         13    1    3    3    0    0 -0.11496949681E+02  0.66875101325E+01 -0.37442187648E+02  0.39734368746E+02  0.00000000000E+00 0. -1.
        -14    1    3    3    0    0  0.72304261975E+02  0.26652905790E+02 -0.24188576991E+02  0.80767387872E+02  0.00000000000E+00 0.  1.
          5    1    4    4  501    0  0.10948167314E+03  0.27359886224E+02  0.65368704218E+02  0.13048118645E+03  0.41800000000E+01 0. -1.
         -5    1    4    4    0  501 -0.34562818447E+02  0.47948381184E+01  0.87357122758E+01  0.36212759637E+02  0.41800000000E+01 0. -1.
</event>
<event>
11    1  0.8328696E-009  0.2967224E+03  0.7561462E-02  0.1001588E+00
         22   -1    0    0    0    0  0.00000000000E+00  0.00000000000E+00  0.44986416471E+03  0.44986416471E+03  0.00000000000E+00 0. -1.
         22   -1    0    0    0    0 -0.00000000000E+00 -0.00000000000E+00 -0.97952502680E+03  0.97952502680E+03  0.00000000000E+00 0. -1.
         24    2    1    2    0    0 -0.39091184004E+02 -0.27441826337E+02 -0.71372367638E+03  0.71966555499E+03  0.78967400308E+02 0.  0.
         25    2    1    2    0    0  0.15332165277E+03 -0.21800420895E+03 -0.98245490885E+02  0.31037905465E+03  0.12509842828E+03 0.  0.
        -24    2    1    2    0    0 -0.11423046876E+03  0.24544603528E+03  0.28230830517E+03  0.39934458187E+03  0.80534214272E+02 0.  0.
        -13    1    3    3    0    0  0.18355809441E+02  0.86837460994E+01 -0.90071428242E+02  0.92332038709E+02  0.00000000000E+00 0.  1.
         14    1    3    3    0    0 -0.57446993445E+02 -0.36125572437E+02 -0.62365224814E+03  0.62733351628E+03  0.00000000000E+00 0. -1.
         11    1    5    5    0    0  0.78997355622E+01  0.46798580836E+02  0.65893357375E+02  0.81206203805E+02  0.00000000000E+00 0. -1.
        -12    1    5    5    0    0 -0.12213020433E+03  0.19864745445E+03  0.21641494780E+03  0.31813837806E+03  0.00000000000E+00 0.  1.
          5    1    4    4  501    0  0.12181348626E+03 -0.99088261912E+02 -0.10189369912E+03  0.18723463196E+03  0.41800000000E+01 0.  1.
         -5    1    4    4    0  501  0.31508166505E+02 -0.11891594703E+03  0.36482082354E+01  0.12314442269E+03  0.41800000000E+01 0.  1.
</event>
<event>
11    1  0.8328696E-009  0.1553592E+03  0.7561462E-02  0.1091525E+00
         22   -1    0    0    0    0  0.00000000000E+00  0.00000000000E+00  0.32191886514E+04  0.32191886514E+04  0.00000000000E+00 0.  1.
         22   -1    0    0    0    0 -0.00000000000E+00 -0.00000000000E+00 -0.27899540437E+03  0.27899540437E+03  0.00000000000E+00 0.  1.
        -24    2    1    2    0    0  0.22593933039E+02 -0.44108214564E+01 -0.25667039884E+03  0.27020240654E+03  0.81238572749E+02 0.  0.
         25    2    1    2    0    0  0.70101023917E+02 -0.11670837338E+02  0.34934140896E+03  0.37780973034E+03  0.12510160003E+03 0.  0.
         24    2    1    2    0    0 -0.92694956957E+02  0.16081658795E+02  0.28475222370E+04  0.28501719189E+04  0.79032288867E+02 0.  0.
        -11    1    5    5    0    0 -0.87847563952E+02  0.38331302531E+02  0.25400075156E+04  0.25418152298E+04  0.00000000000E+00 0.  1.
         12    1    5    5    0    0 -0.48473930040E+01 -0.22249643737E+02  0.30751472134E+03  0.30835668908E+03  0.00000000000E+00 0. -1.
         13    1    3    3    0    0  0.42247572742E+02  0.18627493619E+01 -0.65781332596E+02  0.78201732436E+02  0.00000000000E+00 0. -1.
        -14    1    3    3    0    0 -0.19653639703E+02 -0.62735708183E+01 -0.19088906625E+03  0.19200067410E+03  0.00000000000E+00 0.  1.
          5    1    4    4  501    0 -0.35278081641E+02 -0.14239777520E+02  0.99710767944E+02  0.10680367012E+03  0.41800000000E+01 0. -1.
         -5    1    4    4    0  501  0.10537910556E+03  0.25689401822E+01  0.24963064101E+03  0.27100606022E+03  0.41800000000E+01 0. -1.
</event>
<event>
11    1  0.8328696E-009  0.1647017E+03  0.7561462E-02  0.1082737E+00
         22   -1    0    0    0    0  0.00000000000E+00  0.00000000000E+00  0.18410722811E+04  0.18410722811E+04  0.00000000000E+00 0.  1.
         22   -1    0    0    0    0 -0.00000000000E+00 -0.00000000000E+00 -0.65767917447E+03  0.65767917447E+03  0.00000000000E+00 0.  1.
         24    2    1    2    0    0  0.40784517116E+02 -0.15227467969E+01 -0.61800729323E+03  0.62449010945E+03  0.79932388464E+02 0.  0.
         25    2    1    2    0    0 -0.13762249666E+03  0.39843942517E+02  0.23558059357E+03  0.30277518965E+03  0.12508840098E+03 0.  0.
        -24    2    1    2    0    0  0.96837979549E+02 -0.38321195720E+02  0.15658198063E+04  0.15714861565E+04  0.83252422514E+02 0.  0.
        -13    1    3    3    0    0  0.27476844941E+02 -0.39017780576E+02 -0.26657776328E+03  0.27081556101E+03  0.00000000000E+00 0.  1.
         14    1    3    3    0    0  0.13307672174E+02  0.37495033779E+02 -0.35142952995E+03  0.35367454844E+03  0.00000000000E+00 0. -1.
         11    1    5    5    0    0  0.95321651227E+02 -0.20155637871E+02  0.87184877016E+03  0.87727575195E+03  0.00000000000E+00 0. -1.
        -12    1    5    5    0    0  0.15163283220E+01 -0.18165557849E+02  0.69397103615E+03  0.69421040453E+03  0.00000000000E+00 0.  1.
          5    1    4    4  501    0  0.14288167201E+02  0.16775680567E+02  0.11648813486E+01  0.22458952091E+02  0.41800000000E+01 0.  1.
         -5    1    4    4    0  501 -0.15191066387E+03  0.23068261951E+02  0.23441571222E+03  0.28031623756E+03  0.41800000000E+01 0.  1.
</event>
<event>
11    1  0.8328696E-009  0.1514632E+03  0.7561462E-02  0.1095393E+00
         22   -1    0    0    0    0  0.00000000000E+00  0.00000000000E+00  0.45472967683E+03  0.45472967683E+03  0.00000000000E+00 0. -1.
         22   -1    0    0    0    0 -0.00000000000E+00 -0.00000000000E+00 -0.39477417427E+04  0.39477417427E+04  0.00000000000E+00 0. -1.
         24    2    1    2    0    0  0.84649492908E+02 -0.78873020970E+01 -0.38058645158E+04  0.38075915609E+04  0.76948269695E+02 0.  0.
         25    2    1    2    0    0 -0.10710544499E+03  0.12941791435E+02 -0.86065894644E+02  0.18626282198E+03  0.12508970508E+03 0.  0.
        -24    2    1    2    0    0  0.22455952082E+02 -0.50544893376E+01  0.39891834454E+03  0.40861703664E+03  0.85453024361E+02 0.  0.
        -11    1    3    3    0    0 -0.86124021803E+01 -0.11247198874E+02 -0.19182481649E+03  0.19234716836E+03  0.00000000000E+00 0.  1.
         12    1    3    3    0    0  0.93261895088E+02  0.33598967770E+01 -0.36140396993E+04  0.36152443926E+04  0.00000000000E+00 0. -1.
         11    1    5    5    0    0  0.51240441550E+02 -0.18849142091E+02  0.29098957275E+03  0.29606722962E+03  0.00000000000E+00 0. -1.
        -12    1    5    5    0    0 -0.28784489467E+02  0.13794652753E+02  0.10792877179E+03  0.11254980701E+03  0.00000000000E+00 0.  1.
          5    1    4    4  501    0 -0.45397939763E+02  0.68022760170E+02 -0.35706493254E+02  0.89333615713E+02  0.41800000000E+01 0.  1.
         -5    1    4    4    0  501 -0.61707505227E+02 -0.55080968736E+02 -0.50359401390E+02  0.96929206262E+02  0.41800000000E+01 0.  1.
</event>
<event>
11    1  0.8328696E-009  0.1833010E+03  0.7561462E-02  0.1067004E+00
         22   -1    0    0    0    0  0.00000000000E+00  0.00000000000E+00  0.15085728440E+04  0.15085728440E+04  0.00000000000E+00 0. -1.
         22   -1    0    0    0    0 -0.00000000000E+00 -0.00000000000E+00 -0.32988629999E+03  0.32988629999E+03  0.00000000000E+00 0. -1.
        -24    2    1    2    0    0 -0.33117268314E+02 -0.31055602888E+02 -0.30310968007E+03  0.31689693045E+03  0.80541805579E+02 0.  0.
         25    2    1    2    0    0 -0.70498914564E+02  0.11755898201E+03  0.69708446502E+03  0.72136314591E+03  0.12509126947E+03 0.  0.
         24    2    1    2    0    0  0.10361618288E+03 -0.86503379117E+02  0.78471175901E+03  0.80019906758E+03  0.79541530465E+02 0.  0.
        -11    1    5    5    0    0  0.57329140472E+02 -0.34894472020E+02  0.19089032191E+03  0.20234468000E+03  0.00000000000E+00 0.  1.
         12    1    5    5    0    0  0.46287042406E+02 -0.51608907096E+02  0.59382143710E+03  0.59785438758E+03  0.00000000000E+00 0. -1.
         13    1    3    3    0    0 -0.46103741945E+02 -0.21627149549E+02 -0.29413288614E+03  0.29850869892E+03  0.00000000000E+00 0. -1.
        -14    1    3    3    0    0  0.12986473630E+02 -0.94284533398E+01 -0.89767939280E+01  0.18388231534E+02  0.00000000000E+00 0.  1.
          5    1    4    4  501    0 -0.72245652360E+02  0.36571543582E+02  0.52374048859E+03  0.52997970138E+03  0.41800000000E+01 0. -1.
         -5    1    4    4    0  501  0.17467377964E+01  0.80987438423E+02  0.17334397643E+03  0.19138344453E+03  0.41800000000E+01 0. -1.
</event>
<event>
11    1  0.8328696E-009  0.1526983E+03  0.7561462E-02  0.1094153E+00
         22   -1    0    0    0    0  0.00000000000E+00  0.00000000000E+00  0.35173501221E+03  0.35173501221E+03  0.00000000000E+00 0. -1.
         22   -1    0    0    0    0 -0.00000000000E+00 -0.00000000000E+00 -0.66263313113E+03  0.66263313113E+03  0.00000000000E+00 0.  1.
         24    2    1    2    0    0  0.55185699010E+02 -0.64020954737E+02 -0.46719124999E+03  0.48136039864E+03  0.79347497029E+02 0.  0.
         25    2    1    2    0    0 -0.12370380078E+03  0.28478846799E+02 -0.13344626215E+03  0.22264195094E+03  0.12509140015E+03 0.  0.
        -24    2    1    2    0    0  0.68518101775E+02  0.35542107938E+02  0.28973939323E+03  0.31036579376E+03  0.80125141132E+02 0.  0.
        -11    1    3    3    0    0  0.52403634279E+02 -0.85211063168E+01 -0.31278773995E+03  0.31726159616E+03  0.00000000000E+00 0.  1.
         12    1    3    3    0    0  0.27820647304E+01 -0.55499848420E+02 -0.15440351005E+03  0.16409880248E+03  0.00000000000E+00 0. -1.
         11    1    5    5    0    0  0.59392872433E+02  0.14049798740E+02  0.27724597416E+03  0.28388420232E+03  0.00000000000E+00 0. -1.
        -12    1    5    5    0    0  0.91252293425E+01  0.21492309198E+02  0.12493419071E+02  0.26481591442E+02  0.00000000000E+00 0.  1.
          5    1    4    4  501    0 -0.14981651234E+02 -0.10567324497E+02  0.21989882036E+02  0.28933467346E+02  0.41800000000E+01 0.  1.
         -5    1    4    4    0  501 -0.10872214955E+03  0.39046171296E+02 -0.15543614419E+03  0.19370848359E+03  0.41800000000E+01 0.  1.
</event>
<event>
11    1  0.8328696E-009  0.2278802E+03  0.7561462E-02  0.1036390E+00
         22   -1    0    0    0    0  0.00000000000E+00  0.00000000000E+00  0.18645225560E+04  0.18645225560E+04  0.00000000000E+00 0.  1.
         22   -1    0    0    0    0 -0.00000000000E+00 -0.00000000000E+00 -0.22052653113E+04  0.22052653113E+04  0.00000000000E+00 0. -1.
         24    2    1    2    0    0 -0.10702576126E+02 -0.31967076002E+02 -0.19019930430E+04  0.19039783473E+04  0.80122232204E+02 0.  0.
         25    2    1    2    0    0  0.10683745284E+03 -0.13296511293E+03 -0.25867546067E+03  0.33414982546E+03  0.12509655996E+03 0.  0.
        -24    2    1    2    0    0 -0.96134876719E+02  0.16493218893E+03  0.18199257484E+04  0.18316596946E+04  0.80018533331E+02 0.  0.
        -11    1    3    3    0    0  0.53026621870E+01 -0.14345079685E+02 -0.62948242888E+02  0.64779478387E+02  0.00000000000E+00 0.  1.
         12    1    3    3    0    0 -0.16005238313E+02 -0.17621996317E+02 -0.18390448002E+04  0.18391988689E+04  0.00000000000E+00 0. -1.
         11    1    5    5    0    0 -0.25729711668E+02 -0.19487713627E+01  0.24294479234E+03  0.24431125209E+03  0.00000000000E+00 0. -1.
        -12    1    5    5    0    0 -0.70405165051E+02  0.16688096030E+03  0.15769809561E+04  0.15873484425E+04  0.00000000000E+00 0.  1.
          5    1    4    4  501    0  0.10401630488E+03 -0.12690420171E+03 -0.14150554224E+03  0.21671492560E+03  0.41800000000E+01 0. -1.
         -5    1    4    4    0  501  0.28211479620E+01 -0.60609112243E+01 -0.11716991843E+03  0.11743489986E+03  0.41800000000E+01 0. -1.
</event>
<event>
11    1  0.8328696E-009  0.4541499E+03  0.7561462E-02  0.9502247E-01
         22   -1    0    0    0    0  0.00000000000E+00  0.00000000000E+00  0.81758606225E+03  0.81758606225E+03  0.00000000000E+00 0. -1.
         22   -1    0    0    0    0 -0.00000000000E+00 -0.00000000000E+00 -0.66272084528E+03  0.66272084528E+03  0.00000000000E+00 0.  1.
        -24    2    1    2    0    0 -0.28793264302E+03  0.32992338476E+03 -0.41571933831E+03  0.60911055946E+03  0.80240006707E+02 0.  0.
         25    2    1    2    0    0  0.33000425834E+03 -0.28375807926E+03  0.21437155806E+03  0.50102308725E+03  0.12509001154E+03 0.  0.
         24    2    1    2    0    0 -0.42071615318E+02 -0.46165305496E+02  0.35621299723E+03  0.37017326082E+03  0.78989159917E+02 0.  0.
        -13    1    5    5    0    0 -0.49150521547E+02 -0.64264610305E+02  0.27405041280E+03  0.28574349103E+03  0.00000000000E+00 0.  1.
         14    1    5    5    0    0  0.70789062290E+01  0.18099304810E+02  0.82162584421E+02  0.84429769789E+02  0.00000000000E+00 0. -1.
         13    1    3    3    0    0 -0.51125712785E+02  0.52034102444E+02 -0.32652353598E+02  0.79922227950E+02  0.00000000000E+00 0. -1.
        -14    1    3    3    0    0 -0.23680693024E+03  0.27788928231E+03 -0.38306698471E+03  0.52918833151E+03  0.00000000000E+00 0.  1.
          5    1    4    4  501    0  0.12777165218E+03 -0.45050330791E+02  0.97728750280E+02  0.16710328673E+03  0.41800000000E+01 0. -1.
         -5    1    4    4    0  501  0.20223260616E+03 -0.23870774847E+03  0.11664280778E+03  0.33391980052E+03  0.41800000000E+01 0. -1.
</event>
<event>
11    1  0.8328696E-009  0.1343285E+03  0.7561462E-02  0.1114062E+00
         22   -1    0    0    0    0  0.00000000000E+00  0.00000000000E+00  0.54433230338E+03  0.54433230338E+03  0.00000000000E+00 0.  1.
         22   -1    0    0    0    0 -0.00000000000E+00 -0.00000000000E+00 -0.57312744117E+03  0.57312744117E+03  0.00000000000E+00 0. -1.
         24    2    1    2    0    0  0.27637711406E+02  0.44736410959E+01 -0.51005240962E+03  0.51695451495E+03  0.79401847655E+02 0.  0.
         25    2    1    2    0    0 -0.61781732160E+02 -0.36910131811E+02  0.39883188789E+02  0.14973209176E+03  0.12509872220E+03 0.  0.
        -24    2    1    2    0    0  0.34144020754E+02  0.32436490715E+02  0.44137408305E+03  0.45077313784E+03  0.78532799097E+02 0.  0.
        -13    1    3    3    0    0  0.12703131263E+02  0.33974448679E+02 -0.11651026711E+03  0.12202571470E+03  0.00000000000E+00 0.  1.
         14    1    3    3    0    0  0.14934580143E+02 -0.29500807583E+02 -0.39354214251E+03  0.39492880025E+03  0.00000000000E+00 0. -1.
         11    1    5    5    0    0 -0.13972473120E+02  0.36635944195E+02  0.13369629687E+03  0.13932739217E+03  0.00000000000E+00 0. -1.
        -12    1    5    5    0    0  0.48116493875E+02 -0.41994534792E+01  0.30767778618E+03  0.31144574568E+03  0.00000000000E+00 0.  1.
          5    1    4    4  501    0 -0.72614145347E+02 -0.72437454592E+02  0.44858858435E+02  0.11202583859E+03  0.41800000000E+01 0. -1.
         -5    1    4    4    0  501  0.10832413187E+02  0.35527322780E+02 -0.49756696458E+01  0.37706253166E+02  0.41800000000E+01 0. -1.
</event>
<event>
11    1  0.8328696E-009  0.1299562E+03  0.7561462E-02  0.1119323E+00
         22   -1    0    0    0    0  0.00000000000E+00  0.00000000000E+00  0.60465329336E+03  0.60465329336E+03  0.00000000000E+00 0. -1.
         22   -1    0    0    0    0 -0.00000000000E+00 -0.00000000000E+00 -0.32763574581E+03  0.32763574581E+03  0.00000000000E+00 0.  1.
        -24    2    1    2    0    0 -0.32851301127E+02  0.23335005020E+02 -0.27552701165E+03  0.28985317451E+03  0.80473586860E+02 0.  0.
         25    2    1    2    0    0  0.54871088309E+02  0.34360994647E+01  0.76015714557E+02  0.15636115872E+03  0.12509108675E+03 0.  0.
         24    2    1    2    0    0 -0.22019787182E+02 -0.26771104485E+02  0.47652884465E+03  0.48607470594E+03  0.89371790371E+02 0.  0.
        -11    1    5    5    0    0 -0.29491221483E+01  0.32398568177E+02  0.12966154830E+03  0.13368052083E+03  0.00000000000E+00 0.  1.
         12    1    5    5    0    0 -0.19070665034E+02 -0.59169672661E+02  0.34686729634E+03  0.35239418511E+03  0.00000000000E+00 0. -1.
         11    1    3    3    0    0 -0.33244641583E+02 -0.24694020375E+02 -0.14372636365E+03  0.14957362216E+03  0.00000000000E+00 0. -1.
        -12    1    3    3    0    0  0.39334045599E+00  0.48029025395E+02 -0.13180064800E+03  0.14027955236E+03  0.00000000000E+00 0.  1.
          5    1    4    4  501    0  0.47611584461E+02  0.29653021454E+02 -0.17479045596E+02  0.58899525390E+02  0.41800000000E+01 0.  1.
         -5    1    4    4    0  501  0.72595038483E+01 -0.26216921990E+02  0.93494760153E+02  0.97461633327E+02  0.41800000000E+01 0.  1.
</event>
<event>
11    1  0.8328696E-009  0.1474980E+03  0.7561462E-02  0.1099463E+00
         22   -1    0    0    0    0  0.00000000000E+00  0.00000000000E+00  0.13035911862E+04  0.13035911862E+04  0.00000000000E+00 0. -1.
         22   -1    0    0    0    0 -0.00000000000E+00 -0.00000000000E+00 -0.91437719905E+02  0.91437719905E+02  0.00000000000E+00 0.  1.
        -24    2    1    2    0    0 -0.57546561854E+02 -0.47498837489E+02 -0.33138379526E+02  0.11381530402E+03  0.79297067335E+02 0.  0.
         25    2    1    2    0    0  0.10509678034E+03  0.10449372900E+03  0.78008264729E+03  0.80382865903E+03  0.12508918357E+03 0.  0.
         24    2    1    2    0    0 -0.47550218485E+02 -0.56994891506E+02  0.46520919855E+03  0.47738494307E+03  0.77248589096E+02 0.  0.
        -11    1    5    5    0    0  0.80938255589E+00  0.13110705719E+02  0.18863138168E+02  0.22986162928E+02  0.00000000000E+00 0.  1.
         12    1    5    5    0    0 -0.48359601041E+02 -0.70105597225E+02  0.44634606038E+03  0.45439878014E+03  0.00000000000E+00 0. -1.
         11    1    3    3    0    0  0.34792946342E+01 -0.14283662235E+02  0.21069146184E+02  0.25691193412E+02  0.00000000000E+00 0. -1.
        -12    1    3    3    0    0 -0.61025856488E+02 -0.33215175254E+02 -0.54207525709E+02  0.88124110610E+02  0.00000000000E+00 0.  1.
          5    1    4    4  501    0  0.12928192920E+03  0.62841972326E+02  0.53290726213E+03  0.55196970310E+03  0.41800000000E+01 0. -1.
         -5    1    4    4    0  501 -0.24185148858E+02  0.41651756669E+02  0.24717538515E+03  0.25185895593E+03  0.41800000000E+01 0. -1.
</event>
<event>
11    1  0.8328696E-009  0.1304941E+03  0.7561462E-02  0.1118663E+00
         22   -1    0    0    0    0  0.00000000000E+00  0.00000000000E+00  0.43222041770E+03  0.43222041770E+03  0.00000000000E+00 0.  1.
         22   -1    0    0    0    0 -0.00000000000E+00 -0.00000000000E+00 -0.45001814607E+03  0.45001814607E+03  0.00000000000E+00 0. -1.
        -24    2    1    2    0    0  0.61843819494E+01  0.38630869798E+02 -0.40752831739E+03  0.42148403969E+03  0.10019418925E+03 0.  0.
         25    2    1    2    0    0 -0.21063584337E+02  0.81810238193E+01  0.11973827374E+03  0.17463224635E+03  0.12509421862E+03 0.  0.
         24    2    1    2    0    0  0.14879202388E+02 -0.46811893617E+02  0.26999231527E+03  0.28612227773E+03  0.80977549117E+02 0.  0.
        -13    1    5    5    0    0 -0.13391415649E+02 -0.11720247729E+02  0.21168184607E+03  0.21242857193E+03  0.00000000000E+00 0.  1.
         14    1    5    5    0    0  0.28270618037E+02 -0.35091645888E+02  0.58310469208E+02  0.73693705800E+02  0.00000000000E+00 0. -1.
         11    1    3    3    0    0 -0.27520374770E+02 -0.40637119216E+01 -0.29695721096E+03  0.29825738872E+03  0.00000000000E+00 0. -1.
        -12    1    3    3    0    0  0.33704756720E+02  0.42694581720E+02 -0.11057110642E+03  0.12322665097E+03  0.00000000000E+00 0.  1.
          5    1    4    4  501    0 -0.16588495868E+02  0.64899259635E+02  0.83158719003E+02  0.10686410549E+03  0.41800000000E+01 0. -1.
         -5    1    4    4    0  501 -0.44750884697E+01 -0.56718235815E+02  0.36579554737E+02  0.67768140860E+02  0.41800000000E+01 0. -1.
</event>
<event>
11    1  0.8328696E-009  0.1483895E+03  0.7561462E-02  0.1098536E+00
         22   -1    0    0    0    0  0.00000000000E+00  0.00000000000E+00  0.27840809032E+03  0.27840809032E+03  0.00000000000E+00 0. -1.
         22   -1    0    0    0    0 -0.00000000000E+00 -0.00000000000E+00 -0.14930961562E+04  0.14930961562E+04  0.00000000000E+00 0.  1.
         24    2    1    2    0    0  0.10504049200E+02  0.17490364137E+02 -0.12196347665E+04  0.12222987837E+04  0.78032718348E+02 0.  0.
         25    2    1    2    0    0  0.19128160690E+01 -0.95633345684E+02 -0.23612818322E+03  0.28381964286E+03  0.12509066747E+03 0.  0.
        -24    2    1    2    0    0 -0.12416865269E+02  0.78142981547E+02  0.24107488383E+03  0.26538581995E+03  0.77794792303E+02 0.  0.
        -11    1    3    3    0    0 -0.21944561580E+02  0.23400900019E+02 -0.96547891585E+03  0.96601175089E+03  0.00000000000E+00 0.  1.
         12    1    3    3    0    0  0.32448610781E+02 -0.59105358820E+01 -0.25415585063E+03  0.25628703280E+03  0.00000000000E+00 0. -1.
         11    1    5    5    0    0 -0.40236401837E+02  0.61126742433E+02  0.19981465796E+03  0.21279413575E+03  0.00000000000E+00 0. -1.
        -12    1    5    5    0    0  0.27819536568E+02  0.17016239114E+02  0.41260225871E+02  0.52591684203E+02  0.00000000000E+00 0.  1.
          5    1    4    4  501    0  0.27573580806E+02 -0.78970994494E+02 -0.55270241764E+02  0.10034436882E+03  0.41800000000E+01 0.  1.
         -5    1    4    4    0  501 -0.25660764737E+02 -0.16662351191E+02 -0.18085794146E+03  0.18347527404E+03  0.41800000000E+01 0.  1.
</event>
<event>
11    1  0.8328696E-009  0.1379553E+03  0.7561462E-02  0.1109863E+00
         22   -1    0    0    0    0  0.00000000000E+00  0.00000000000E+00  0.75359550542E+03  0.75359550542E+03  0.00000000000E+00 0.  1.
         22   -1    0    0    0    0 -0.00000000000E+00 -0.00000000000E+00 -0.14536095091E+03  0.14536095091E+03  0.00000000000E+00 0. -1.
        -24    2    1    2    0    0 -0.27851330045E+02 -0.13180880093E+02 -0.82795738730E+02  0.12187972501E+03  0.83964878560E+02 0.  0.
         25    2    1    2    0    0  0.69493809730E+02  0.49677605868E+02  0.10827320368E+03  0.18619195418E+03  0.12508838096E+03 0.  0.
         24    2    1    2    0    0 -0.41642479686E+02 -0.36496725776E+02  0.58275708957E+03  0.59088477713E+03  0.80454255940E+02 0.  0.
        -13    1    5    5    0    0 -0.31118218012E+02  0.74672642378E+01  0.43951785593E+03  0.44068134656E+03  0.00000000000E+00 0.  1.
         14    1    5    5    0    0 -0.10524261674E+02 -0.43963990014E+02  0.14323923364E+03  0.15020343057E+03  0.00000000000E+00 0. -1.
         13    1    3    3    0    0  0.11252921011E+01 -0.78417758427E+01 -0.90960630869E+02  0.91304962071E+02  0.00000000000E+00 0. -1.
        -14    1    3    3    0    0 -0.28976622146E+02 -0.53391042499E+01  0.81648921393E+01  0.30574762940E+02  0.00000000000E+00 0.  1.
          5    1    4    4  501    0  0.29698421253E+02  0.81551494763E+01 -0.25703941976E+02  0.40331968970E+02  0.41800000000E+01 0. -1.
         -5    1    4    4    0  501  0.39795388478E+02  0.41522456392E+02  0.13397714565E+03  0.14585998521E+03  0.41800000000E+01 0. -1.
</event>
<event>
11    1  0.8328696E-009  0.1430549E+03  0.7561462E-02  0.1104194E+00
         22   -1    0    0    0    0  0.00000000000E+00  0.00000000000E+00  0.16851133057E+04  0.16851133057E+04  0.00000000000E+00 0. -1.
         22   -1    0    0    0    0 -0.00000000000E+00 -0.00000000000E+00 -0.22290018080E+04  0.22290018080E+04  0.00000000000E+00 0.  1.
         24    2    1    2    0    0 -0.52413026274E+02 -0.45800507663E+02 -0.22090683719E+04  0.22116616665E+04  0.81359963653E+02 0.  0.
         25    2    1    2    0    0  0.38848674616E+02  0.41533550437E+01  0.23339689613E+03  0.26767030619E+03  0.12508721682E+03 0.  0.
        -24    2    1    2    0    0  0.13564351658E+02  0.41647152620E+02  0.14317829734E+04  0.14347831409E+04  0.81741675222E+02 0.  0.
        -11    1    3    3    0    0 -0.74290341123E+02 -0.40274495238E+02 -0.17488109884E+04  0.17508514966E+04  0.00000000000E+00 0.  1.
         12    1    3    3    0    0  0.21877314849E+02 -0.55260124256E+01 -0.46025738345E+03  0.46081016996E+03  0.00000000000E+00 0. -1.
         13    1    5    5    0    0  0.20122110883E+02 -0.23642867653E+00  0.11143614865E+04  0.11145431700E+04  0.00000000000E+00 0. -1.
        -14    1    5    5    0    0 -0.65577592244E+01  0.41883581296E+02  0.31742148694E+03  0.32023997090E+03  0.00000000000E+00 0.  1.
          5    1    4    4  501    0  0.27199922136E+02  0.62470913775E+02  0.95031615025E+02  0.11700825222E+03  0.41800000000E+01 0. -1.
         -5    1    4    4    0  501  0.11648752480E+02 -0.58317558732E+02  0.13836528111E+03  0.15066205397E+03  0.41800000000E+01 0. -1.
</event>
<event>
11    1  0.8328696E-009  0.1326187E+03  0.7561462E-02  0.1116093E+00
         22   -1    0    0    0    0  0.00000000000E+00  0.00000000000E+00  0.55543123755E+03  0.55543123755E+03  0.00000000000E+00 0.  1.
         22   -1    0    0    0    0 -0.00000000000E+00 -0.00000000000E+00 -0.73677424172E+03  0.73677424172E+03  0.00000000000E+00 0. -1.
        -24    2    1    2    0    0  0.20328194214E+02  0.38202246598E+01 -0.68531543388E+03  0.69032123187E+03  0.80363733507E+02 0.  0.
         25    2    1    2    0    0 -0.45602121499E+02 -0.38040562486E+02  0.64252325664E+02  0.15265546313E+03  0.12509472887E+03 0.  0.
         24    2    1    2    0    0  0.25273927285E+02  0.34220337827E+02  0.43972010404E+03  0.44922878427E+03  0.81504158136E+02 0.  0.
        -11    1    5    5    0    0 -0.12488349235E+02  0.32856187816E+02  0.35154799559E+03  0.35330083660E+03  0.00000000000E+00 0.  1.
         12    1    5    5    0    0  0.37762276520E+02  0.13641500101E+01  0.88172108456E+02  0.95927947663E+02  0.00000000000E+00 0. -1.
         11    1    3    3    0    0 -0.13338132787E+02  0.30195125163E+02 -0.16615911059E+03  0.16940632043E+03  0.00000000000E+00 0. -1.
        -12    1    3    3    0    0  0.33666327002E+02 -0.26374900503E+02 -0.51915632328E+03  0.52091491144E+03  0.00000000000E+00 0.  1.
          5    1    4    4  501    0 -0.29433142695E+02 -0.15428590877E+02 -0.35625078903E+02  0.48897545463E+02  0.41800000000E+01 0. -1.
         -5    1    4    4    0  501 -0.16168978804E+02 -0.22611971609E+02  0.99877404568E+02  0.10375791767E+03  0.41800000000E+01 0. -1.
</event>
<event>
11    1  0.8328696E-009  0.2182161E+03  0.7561462E-02  0.1042341E+00
         22   -1    0    0    0    0  0.00000000000E+00  0.00000000000E+00  0.30162877968E+03  0.30162877968E+03  0.00000000000E+00 0.  1.
         22   -1    0    0    0    0 -0.00000000000E+00 -0.00000000000E+00 -0.18805702561E+04  0.18805702561E+04  0.00000000000E+00 0.  1.
         24    2    1    2    0    0  0.17673765742E+03  0.19011591126E+02 -0.17045400046E+04  0.17156810313E+04  0.80666807149E+02 0.  0.
         25    2    1    2    0    0 -0.20010752171E+03  0.35502321479E+02 -0.66866235190E+02  0.24783960347E+03  0.12509972247E+03 0.  0.
        -24    2    1    2    0    0  0.23369864290E+02 -0.54513912604E+02  0.19246476333E+03  0.21867840103E+03  0.85203525344E+02 0.  0.
        -13    1    3    3    0    0  0.25366783403E+02 -0.10915874227E+02 -0.57348311109E+03  0.57414763669E+03  0.00000000000E+00 0.  1.
         14    1    3    3    0    0  0.15137087402E+03  0.29927465352E+02 -0.11310568935E+04  0.11415333946E+04  0.00000000000E+00 0. -1.
         11    1    5    5    0    0 -0.15732515495E+02  0.48203839303E+01  0.35390236471E+01  0.16830711019E+02  0.00000000000E+00 0. -1.
        -12    1    5    5    0    0  0.39102379784E+02 -0.59334296535E+02  0.18892573968E+03  0.20184769001E+03  0.00000000000E+00 0.  1.
          5    1    4    4  501    0 -0.48867763971E+02  0.34261132246E+02  0.31260971821E+02  0.67502624375E+02  0.41800000000E+01 0. -1.
         -5    1    4    4    0  501 -0.15123975774E+03  0.12411892327E+01 -0.98127207011E+02  0.18033697909E+03  0.41800000000E+01 0. -1.
</event>
<event>
11    1  0.8328696E-009  0.1000075E+04  0.7561462E-02  0.8678943E-01
         22   -1    0    0    0    0  0.00000000000E+00  0.00000000000E+00  0.79326392868E+03  0.79326392868E+03  0.00000000000E+00 0.  1.
         22   -1    0    0    0    0 -0.00000000000E+00 -0.00000000000E+00 -0.31520082242E+03  0.31520082242E+03  0.00000000000E+00 0.  1.
        -24    2    1    2    0    0 -0.21567276281E+03 -0.83898428256E+02 -0.72480887794E+02  0.25523236748E+03  0.79601478821E+02 0.  0.
         25    2    1    2    0    0  0.39478691285E+03  0.13366485489E+03  0.45294394969E+03  0.62811522254E+03  0.12509001250E+03 0.  0.
         24    2    1    2    0    0 -0.17911415005E+03 -0.49766426638E+02  0.97600044361E+02  0.22511716109E+03  0.81199701910E+02 0.  0.
        -13    1    5    5    0    0 -0.14177549545E+03 -0.15090260083E+01  0.65713638319E+02  0.15627172019E+03  0.00000000000E+00 0.  1.
         14    1    5    5    0    0 -0.37338654599E+02 -0.48257400630E+02  0.31886406041E+02  0.68845440903E+02  0.00000000000E+00 0. -1.
         13    1    3    3    0    0 -0.16798780769E+03 -0.26928825235E+02 -0.44609007067E+02  0.17588356567E+03  0.00000000000E+00 0. -1.
        -14    1    3    3    0    0 -0.47684955122E+02 -0.56969603021E+02 -0.27871880727E+02  0.79348801809E+02  0.00000000000E+00 0.  1.
          5    1    4    4  501    0  0.39980584400E+03  0.14007186524E+03  0.43106379154E+03  0.60439912732E+03  0.41800000000E+01 0.  1.
         -5    1    4    4    0  501 -0.50189311494E+01 -0.64070103483E+01  0.21880158151E+02  0.23716095214E+02  0.41800000000E+01 0.  1.
</event>
<event>
11    1  0.8328696E-009  0.1365815E+03  0.7561462E-02  0.1111437E+00
         22   -1    0    0    0    0  0.00000000000E+00  0.00000000000E+00  0.28000199112E+03  0.28000199112E+03  0.00000000000E+00 0. -1.
         22   -1    0    0    0    0 -0.00000000000E+00 -0.00000000000E+00 -0.10261765112E+04  0.10261765112E+04  0.00000000000E+00 0. -1.
         24    2    1    2    0    0 -0.27797178578E+01  0.22621827042E+02 -0.94048006531E+03  0.94418391841E+03  0.80380623526E+02 0.  0.
         25    2    1    2    0    0  0.10811639299E+02 -0.73689443876E+02  0.82721793108E+00  0.14559595696E+03  0.12510184935E+03 0.  0.
        -24    2    1    2    0    0 -0.80319214408E+01  0.51067616834E+02  0.19347832731E+03  0.21639862694E+03  0.81988348891E+02 0.  0.
        -13    1    3    3    0    0 -0.93544696199E+01  0.42284887025E+02 -0.27570242243E+03  0.27908304052E+03  0.00000000000E+00 0.  1.
         14    1    3    3    0    0  0.65747517621E+01 -0.19663059983E+02 -0.66477764289E+03  0.66510087789E+03  0.00000000000E+00 0. -1.
         13    1    5    5    0    0  0.94527506796E+01  0.11006065103E+02  0.16171810099E+03  0.16236758344E+03  0.00000000000E+00 0. -1.
        -14    1    5    5    0    0 -0.17484672120E+02  0.40061551731E+02  0.31760226318E+02  0.54031043503E+02  0.00000000000E+00 0.  1.
          5    1    4    4  501    0  0.27564375580E+02  0.23549277342E+02  0.24604960734E+02  0.44014085895E+02  0.41800000000E+01 0.  1.
         -5    1    4    4    0  501 -0.16752736282E+02 -0.97238721218E+02 -0.23777742803E+02  0.10158187107E+03  0.41800000000E+01 0.  1.
</event>
<event>
11    1  0.8328696E-009  0.2540416E+03  0.7561462E-02  0.1021768E+00
         22   -1    0    0    0    0  0.00000000000E+00  0.00000000000E+00  0.21514129922E+04  0.21514129922E+04  0.00000000000E+00 0.  1.
         22   -1    0    0    0    0 -0.00000000000E+00 -0.00000000000E+00 -0.22481149294E+03  0.22481149294E+03  0.00000000000E+00 0.  1.
        -24    2    1    2    0    0 -0.17376144826E+03  0.12703676184E+03 -0.11796754355E+03  0.25797100497E+03  0.79380843488E+02 0.  0.
         25    2    1    2    0    0  0.17460901979E+03 -0.27696118081E+03  0.98988172955E+03  0.10500997283E+04  0.12509114813E+03 0.  0.
         24    2    1    2    0    0 -0.84757152518E+00  0.14992441897E+03  0.10546873133E+04  0.10681537519E+04  0.78160470510E+02 0.  0.
        -13    1    5    5    0    0 -0.13004502458E+02  0.94707864539E+02  0.86367345789E+03  0.86894794928E+03  0.00000000000E+00 0.  1.
         14    1    5    5    0    0  0.12156930933E+02  0.55216554428E+02  0.19101385540E+03  0.19920580265E+03  0.00000000000E+00 0. -1.
         11    1    3    3    0    0 -0.63853617721E+02  0.91271217419E+02 -0.39130295677E+02  0.11806311729E+03  0.00000000000E+00 0. -1.
        -12    1    3    3    0    0 -0.10990783054E+03  0.35765544425E+02 -0.78837247874E+02  0.13990788768E+03  0.00000000000E+00 0.  1.
          5    1    4    4  501    0  0.67835050615E+02 -0.12406778374E+03  0.25184994773E+03  0.28886030815E+03  0.41800000000E+01 0. -1.
         -5    1    4    4    0  501  0.10677396918E+03 -0.15289339707E+03  0.73803178182E+03  0.76123942011E+03  0.41800000000E+01 0. -1.
</event>
<event>
11    1  0.8328696E-009  0.1479875E+03  0.7561462E-02  0.1098953E+00
         22   -1    0    0    0    0  0.00000000000E+00  0.00000000000E+00  0.10343036720E+04  0.10343036720E+04  0.00000000000E+00 0.  1.
         22   -1    0    0    0    0 -0.00000000000E+00 -0.00000000000E+00 -0.99805573424E+03  0.99805573424E+03  0.00000000000E+00 0.  1.
         24    2    1    2    0    0  0.21586576857E+02 -0.76310856408E+02 -0.97336280070E+03  0.97997178766E+03  0.81364830949E+02 0.  0.
         25    2    1    2    0    0 -0.12232262882E+02  0.60903572520E+02  0.23444675573E+03  0.27289281991E+03  0.12508531683E+03 0.  0.
        -24    2    1    2    0    0 -0.93543139743E+01  0.15407283888E+02  0.77516398272E+03  0.77949479866E+03  0.80050318242E+02 0.  0.
        -11    1    3    3    0    0  0.52751685750E+02 -0.51001478963E+02 -0.60946144812E+03  0.61386248293E+03  0.00000000000E+00 0.  1.
         12    1    3    3    0    0 -0.31165108893E+02 -0.25309377445E+02 -0.36390135258E+03  0.36610930473E+03  0.00000000000E+00 0. -1.
         11    1    5    5    0    0  0.75326323847E+01  0.93634196509E+01  0.15470190010E+02  0.19589307214E+02  0.00000000000E+00 0. -1.
        -12    1    5    5    0    0 -0.16886946359E+02  0.60438642371E+01  0.75969379271E+03  0.75990549145E+03  0.00000000000E+00 0.  1.
          5    1    4    4  501    0 -0.40494722529E+02  0.88575571023E+02  0.18778199017E+03  0.21157741507E+03  0.41800000000E+01 0. -1.
         -5    1    4    4    0  501  0.28262459646E+02 -0.27671998503E+02  0.46664765554E+02  0.61315404839E+02  0.41800000000E+01 0. -1.
</event>
<event>
11    1  0.8328696E-009  0.1659700E+03  0.7561462E-02  0.1081593E+00
         22   -1    0    0    0    0  0.00000000000E+00  0.00000000000E+00  0.28349341636E+02  0.28349341636E+02  0.00000000000E+00 0. -1.
         22   -1    0    0    0    0 -0.00000000000E+00 -0.00000000000E+00 -0.22975710412E+04  0.22975710412E+04  0.00000000000E+00 0.  1.
         24    2    1    2    0    0  0.41912346911E+02  0.96284545488E+02 -0.15813888430E+04  0.15870770811E+04  0.83639881766E+02 0.  0.
         25    2    1    2    0    0 -0.64968817189E+02 -0.11321621407E+03 -0.54715820586E+03  0.57625385330E+03  0.12509013900E+03 0.  0.
        -24    2    1    2    0    0  0.23056470278E+02  0.16931668581E+02 -0.14067465063E+03  0.16258944843E+03  0.76339303042E+02 0.  0.
        -11    1    3    3    0    0  0.52441205293E+02  0.10186323741E+03 -0.15317265910E+04  0.15360053869E+04  0.00000000000E+00 0.  1.
         12    1    3    3    0    0 -0.10528858381E+02 -0.55786919224E+01 -0.49662252028E+02  0.51071694106E+02  0.00000000000E+00 0. -1.
         11    1    5    5    0    0 -0.19913440253E+02  0.21536291124E+02 -0.96217194456E+02  0.10058879384E+03  0.00000000000E+00 0. -1.
        -12    1    5    5    0    0  0.42969910532E+02 -0.46046225426E+01 -0.44457456173E+02  0.62000654587E+02  0.00000000000E+00 0.  1.
          5    1    4    4  501    0 -0.77811811182E+00  0.26260952676E+02 -0.65423944824E+02  0.70625831391E+02  0.41800000000E+01 0.  1.
         -5    1    4    4    0  501 -0.64190699078E+02 -0.13947716675E+03 -0.48173426103E+03  0.50562802191E+03  0.41800000000E+01 0.  1.
</event>
<event>
11    1  0.8328696E-009  0.1393274E+03  0.7561462E-02  0.1108312E+00
         22   -1    0    0    0    0  0.00000000000E+00  0.00000000000E+00  0.44093754529E+03  0.44093754529E+03  0.00000000000E+00 0. -1.
         22   -1    0    0    0    0 -0.00000000000E+00 -0.00000000000E+00 -0.22063786264E+04  0.22063786264E+04  0.00000000000E+00 0. -1.
        -24    2    1    2    0    0 -0.78761472151E+01  0.30828707781E+02 -0.19369328426E+04  0.19388155529E+04  0.79274637738E+02 0.  0.
         25    2    1    2    0    0  0.69056213534E+02 -0.29407083537E+02 -0.24216107676E+03  0.28270531355E+03  0.12508704978E+03 0.  0.
         24    2    1    2    0    0 -0.61180066319E+02 -0.14216242448E+01  0.41365283833E+03  0.42579530524E+03  0.80299126896E+02 0.  0.
        -13    1    5    5    0    0  0.14580672576E+00 -0.28023407031E+02  0.64869696376E+02  0.70664065189E+02  0.00000000000E+00 0.  1.
         14    1    5    5    0    0 -0.61325873045E+02  0.26601782786E+02  0.34878314195E+03  0.35513124005E+03  0.00000000000E+00 0. -1.
         13    1    3    3    0    0 -0.45406454323E+01  0.40156474257E+02 -0.19039107754E+04  0.19043396232E+04  0.00000000000E+00 0. -1.
        -14    1    3    3    0    0 -0.33355017829E+01 -0.93277664751E+01 -0.33022067249E+02  0.34475929646E+02  0.00000000000E+00 0.  1.
          5    1    4    4  501    0 -0.77943685551E+01 -0.61144469124E+02 -0.88329456236E+02  0.10779129614E+03  0.41800000000E+01 0.  1.
         -5    1    4    4    0  501  0.76850582089E+02  0.31737385587E+02 -0.15383162053E+03  0.17491401741E+03  0.41800000000E+01 0.  1.
</event>
<event>
11    1  0.8328696E-009  0.1608813E+03  0.7561462E-02  0.1086251E+00
         22   -1    0    0    0    0  0.00000000000E+00  0.00000000000E+00  0.26143069690E+03  0.26143069690E+03  0.00000000000E+00 0. -1.
         22   -1    0    0    0    0 -0.00000000000E+00 -0.00000000000E+00 -0.48448619434E+03  0.48448619434E+03  0.00000000000E+00 0. -1.
        -24    2    1    2    0    0  0.39208754903E+02 -0.38245116788E+02 -0.39096655803E+03  0.40345422086E+03  0.83189202514E+02 0.  0.
         25    2    1    2    0    0  0.62372704136E+02  0.75256627586E+02  0.56403277927E+02  0.16847262867E+03  0.12509109733E+03 0.  0.
         24    2    1    2    0    0 -0.10158145904E+03 -0.37011510798E+02  0.11150778266E+03  0.17399004172E+03  0.78421325362E+02 0.  0.
        -11    1    5    5    0    0 -0.90207552020E+02  0.31639791108E+01  0.63482162771E+02  0.11035124918E+03  0.00000000000E+00 0.  1.
         12    1    5    5    0    0 -0.11373907019E+02 -0.40175489909E+02  0.48025619886E+02  0.63638792538E+02  0.00000000000E+00 0. -1.
         13    1    3    3    0    0  0.23291813915E+02 -0.49368080431E+02 -0.37308397929E+03  0.37705619152E+03  0.00000000000E+00 0. -1.
        -14    1    3    3    0    0  0.15916940988E+02  0.11122963644E+02 -0.17882578732E+02  0.26398029335E+02  0.00000000000E+00 0.  1.
          5    1    4    4  501    0 -0.57750798170E-03 -0.25304122354E+02 -0.15476881108E+02  0.29955047276E+02  0.41800000000E+01 0. -1.
         -5    1    4    4    0  501  0.62373281644E+02  0.10056074994E+03  0.71880159035E+02  0.13851758139E+03  0.41800000000E+01 0. -1.
</event>
<event>
11    1  0.8328696E-009  0.1516063E+03  0.7561462E-02  0.1095249E+00
         22   -1    0    0    0    0  0.00000000000E+00  0.00000000000E+00  0.84720019285E+03  0.84720019285E+03  0.00000000000E+00 0. -1.
         22   -1    0    0    0    0 -0.00000000000E+00 -0.00000000000E+00 -0.22866035301E+03  0.22866035301E+03  0.00000000000E+00 0.  1.
         24    2    1    2    0    0 -0.53091018165E+02  0.72071572638E+02 -0.18191095273E+03  0.21834435893E+03  0.81053664689E+02 0.  0.
         25    2    1    2    0    0 -0.93586944548E+00 -0.56468272021E+02  0.16478090961E+03  0.21445151958E+03  0.12508862650E+03 0.  0.
        -24    2    1    2    0    0  0.54026887611E+02 -0.15603300617E+02  0.63566988296E+03  0.64306466736E+03  0.79332204878E+02 0.  0.
        -11    1    3    3    0    0 -0.70741613495E+01  0.37435868034E+02 -0.14503538983E+03  0.14995583442E+03  0.00000000000E+00 0.  1.
         12    1    3    3    0    0 -0.46016856816E+02  0.34635704604E+02 -0.36875562900E+02  0.68388524504E+02  0.00000000000E+00 0. -1.
         13    1    5    5    0    0  0.31934588190E+02 -0.78201131415E+01  0.59664333109E+03  0.59754852240E+03  0.00000000000E+00 0. -1.
        -14    1    5    5    0    0  0.22092299421E+02 -0.77831874760E+01  0.39026551873E+02  0.45516144960E+02  0.00000000000E+00 0.  1.
          5    1    4    4  501    0  0.25154114002E+02 -0.56922020677E+02  0.17525630039E+03  0.18602443151E+03  0.41800000000E+01 0.  1.
         -5    1    4    4    0  501 -0.26089983448E+02  0.45374865623E+00 -0.10475390782E+02  0.28427088071E+02  0.41800000000E+01 0.  1.
</event>
<event>
11    1  0.8328696E-009  0.1294955E+03  0.7561462E-02  0.1119890E+00
         22   -1    0    0    0    0  0.00000000000E+00  0.00000000000E+00  0.12538206503E+04  0.12538206503E+04  0.00000000000E+00 0.  1.
         22   -1    0    0    0    0 -0.00000000000E+00 -0.00000000000E+00 -0.46064717919E+02  0.46064717919E+02  0.00000000000E+00 0.  1.
        -24    2    1    2    0    0  0.23243290219E+02 -0.12755598633E+02  0.29812051148E+02  0.90653970714E+02  0.81402875722E+02 0.  0.
         25    2    1    2    0    0 -0.10277571560E+02 -0.21209599463E+02  0.28977512198E+03  0.31649925308E+03  0.12508669112E+03 0.  0.
         24    2    1    2    0    0 -0.12965718659E+02  0.33965198095E+02  0.88816875929E+03  0.89273214446E+03  0.82493589046E+02 0.  0.
        -13    1    5    5    0    0 -0.16089814215E+02  0.72122085845E+01  0.80736355583E+03  0.80755607196E+03  0.00000000000E+00 0.  1.
         14    1    5    5    0    0  0.31240955562E+01  0.26752989511E+02  0.80805203458E+02  0.85176072501E+02  0.00000000000E+00 0. -1.
         11    1    3    3    0    0  0.39624809169E+02  0.33586103852E+01  0.47286802880E+02  0.61785495806E+02  0.00000000000E+00 0. -1.
        -12    1    3    3    0    0 -0.16381518950E+02 -0.16114209018E+02 -0.17474751732E+02  0.28868474907E+02  0.00000000000E+00 0.  1.
          5    1    4    4  501    0 -0.15887497079E+01 -0.62384335287E+02  0.25248958780E+03  0.26012072921E+03  0.41800000000E+01 0.  1.
         -5    1    4    4    0  501 -0.86888218526E+01  0.41174735825E+02  0.37285534180E+02  0.56378523877E+02  0.41800000000E+01 0.  1.
</event>
<event>
11    1  0.8328696E-009  0.1538105E+03  0.7561462E-02  0.1093048E+00
         22   -1    0    0    0    0  0.00000000000E+00  0.00000000000E+00  0.33898077048E+03  0.33898077048E+03  0.00000000000E+00 0.  1.
         22   -1    0    0    0    0 -0.00000000000E+00 -0.00000000000E+00 -0.87629475815E+03  0.87629475815E+03  0.00000000000E+00 0.  1.
        -24    2    1    2    0    0  0.35726084996E+02 -0.85912574690E+02 -0.80834584760E+03  0.81789544345E+03  0.82901287346E+02 0.  0.
         25    2    1    2    0    0  0.38591428901E+02  0.35516890301E+02  0.47281753235E+02  0.14364471721E+03  0.12508993849E+03 0.  0.
         24    2    1    2    0    0 -0.74317513898E+02  0.50395684390E+02  0.22375010669E+03  0.25373536797E+03  0.79086717177E+02 0.  0.
        -13    1    5    5    0    0 -0.81716818227E+02  0.44485273106E+02  0.22564794358E+03  0.24407698037E+03  0.00000000000E+00 0.  1.
         14    1    5    5    0    0  0.73993043298E+01  0.59104112831E+01 -0.18978368858E+01  0.96583875955E+01  0.00000000000E+00 0. -1.
         11    1    3    3    0    0  0.32158893549E+02  0.52525540215E+01 -0.17437445343E+03  0.17739287970E+03  0.00000000000E+00 0. -1.
        -12    1    3    3    0    0  0.35671914478E+01 -0.91165128712E+02 -0.63397139417E+03  0.64050256375E+03  0.00000000000E+00 0.  1.
          5    1    4    4  501    0  0.29371546180E+02  0.43383382017E+02 -0.33188833949E+02  0.62159284577E+02  0.41800000000E+01 0. -1.
         -5    1    4    4    0  501  0.92198827210E+01 -0.78664917162E+01  0.80470587185E+02  0.81485432632E+02  0.41800000000E+01 0. -1.
</event>
<event>
11    1  0.8328696E-009  0.1795711E+03  0.7561462E-02  0.1069990E+00
         22   -1    0    0    0    0  0.00000000000E+00  0.00000000000E+00  0.11769245260E+03  0.11769245260E+03  0.00000000000E+00 0. -1.
         22   -1    0    0    0    0 -0.00000000000E+00 -0.00000000000E+00 -0.12068836409E+04  0.12068836409E+04  0.00000000000E+00 0. -1.
         24    2    1    2    0    0 -0.11490811594E+03 -0.17493446313E+01 -0.72424441814E+03  0.73787051565E+03  0.81951115644E+02 0.  0.
         25    2    1    2    0    0  0.18812186090E+03  0.16143134197E+02 -0.40982862797E+03  0.46824985026E+03  0.12509189674E+03 0.  0.
        -24    2    1    2    0    0 -0.73213744967E+02 -0.14393789565E+02  0.44881857773E+02  0.11845572761E+03  0.80311547224E+02 0.  0.
        -11    1    3    3    0    0 -0.61786682561E+01 -0.81717192216E+01 -0.70109022683E+01  0.12413931169E+02  0.00000000000E+00 0.  1.
         12    1    3    3    0    0 -0.10872944768E+03  0.64223745903E+01 -0.71723351587E+03  0.72545658448E+03  0.00000000000E+00 0. -1.
         13    1    5    5    0    0 -0.56956291136E+02  0.19370829794E+02  0.22801915126E+00  0.60160619508E+02  0.00000000000E+00 0. -1.
        -14    1    5    5    0    0 -0.16257453831E+02 -0.33764619360E+02  0.44653838621E+02  0.58295108107E+02  0.00000000000E+00 0.  1.
          5    1    4    4  501    0  0.15982164306E+03  0.60212930492E+02 -0.27749149368E+03  0.32586432154E+03  0.41800000000E+01 0. -1.
         -5    1    4    4    0  501  0.28300217844E+02 -0.44069796295E+02 -0.13233713429E+03  0.14238552872E+03  0.41800000000E+01 0. -1.
</event>
<event>
11    1  0.8328696E-009  0.1668506E+03  0.7561462E-02  0.1080805E+00
         22   -1    0    0    0    0  0.00000000000E+00  0.00000000000E+00  0.80376469109E+03  0.80376469109E+03  0.00000000000E+00 0. -1.
         22   -1    0    0    0    0 -0.00000000000E+00 -0.00000000000E+00 -0.90917911065E+03  0.90917911065E+03  0.00000000000E+00 0. -1.
        -24    2    1    2    0    0 -0.57261505267E+02 -0.39811443096E+02 -0.85196817887E+03  0.85857453954E+03  0.80228618021E+02 0.  0.
         25    2    1    2    0    0  0.13996688860E+03  0.97148201877E+02  0.19461866943E+03  0.28732051830E+03  0.12509256858E+03 0.  0.
         24    2    1    2    0    0 -0.82705383329E+02 -0.57336758781E+02  0.55193508987E+03  0.56704874390E+03  0.82366559923E+02 0.  0.
        -13    1    5    5    0    0 -0.15118499590E+02  0.13415318616E+02  0.31021281519E+02  0.37025122694E+02  0.00000000000E+00 0.  1.
         14    1    5    5    0    0 -0.67586883739E+02 -0.70752077396E+02  0.52091380835E+03  0.53002362121E+03  0.00000000000E+00 0. -1.
         13    1    3    3    0    0 -0.70738522496E+02 -0.49437970772E+02 -0.77815615583E+03  0.78292723440E+03  0.00000000000E+00 0. -1.
        -14    1    3    3    0    0  0.13477017229E+02  0.96265276760E+01 -0.73812023040E+02  0.75647305132E+02  0.00000000000E+00 0.  1.
          5    1    4    4  501    0  0.12207955235E+03  0.11574990461E+03  0.11579049860E+03  0.20427033432E+03  0.41800000000E+01 0. -1.
         -5    1    4    4    0  501  0.17887336250E+02 -0.18601702733E+02  0.78828170827E+02  0.83050183976E+02  0.41800000000E+01 0. -1.
</event>
<event>
11    1  0.8328696E-009  0.1424647E+03  0.7561462E-02  0.1104837E+00
         22   -1    0    0    0    0  0.00000000000E+00  0.00000000000E+00  0.70957152278E+03  0.70957152278E+03  0.00000000000E+00 0.  1.
         22   -1    0    0    0    0 -0.00000000000E+00 -0.00000000000E+00 -0.20309400813E+03  0.20309400813E+03  0.00000000000E+00 0.  1.
         24    2    1    2    0    0  0.67633088011E+02  0.14975296958E+02 -0.14602608301E+03  0.17630244433E+03  0.70430397162E+02 0.  0.
         25    2    1    2    0    0 -0.60515549782E+02 -0.48085761459E+00  0.84955761639E+02  0.16286966289E+03  0.12508670059E+03 0.  0.
        -24    2    1    2    0    0 -0.71175382287E+01 -0.14494439343E+02  0.56754783603E+03  0.57349342368E+03  0.80767646390E+02 0.  0.
        -13    1    3    3    0    0  0.82211162344E+02  0.12640913778E+02 -0.11483841618E+03  0.14179679033E+03  0.00000000000E+00 0.  1.
         14    1    3    3    0    0 -0.14578074334E+02  0.23343831796E+01 -0.31187666830E+02  0.34505654006E+02  0.00000000000E+00 0. -1.
         11    1    5    5    0    0  0.25161410605E+02 -0.55636294467E+01  0.66359668614E+02  0.71187472036E+02  0.00000000000E+00 0. -1.
        -12    1    5    5    0    0 -0.32278948833E+02 -0.89308098964E+01  0.50118816742E+03  0.50230595165E+03  0.00000000000E+00 0.  1.
          5    1    4    4  501    0  0.30018362962E+02 -0.26457444042E+02  0.76590766332E+01  0.40954026847E+02  0.41800000000E+01 0. -1.
         -5    1    4    4    0  501 -0.90533912744E+02  0.25976586427E+02  0.77296685006E+02  0.12191563604E+03  0.41800000000E+01 0. -1.
</event>
<event>
11    1  0.8328696E-009  0.1914363E+03  0.7561462E-02  0.1060750E+00
         22   -1    0    0    0    0  0.00000000000E+00  0.00000000000E+00  0.75026683462E+03  0.75026683462E+03  0.00000000000E+00 0.  1.
         22   -1    0    0    0    0 -0.00000000000E+00 -0.00000000000E+00 -0.41048561340E+03  0.41048561340E+03  0.00000000000E+00 0. -1.
         24    2    1    2    0    0  0.29027984936E+02 -0.10962365941E+03 -0.34443597050E+03  0.37071475294E+03  0.77028044678E+02 0.  0.
         25    2    1    2    0    0  0.50818808769E+02  0.20287184663E+03  0.36463639608E+03  0.43857204573E+03  0.12508477311E+03 0.  0.
        -24    2    1    2    0    0 -0.79846793705E+02 -0.93248187225E+02  0.31958079564E+03  0.35146564935E+03  0.79532904186E+02 0.  0.
        -13    1    3    3    0    0 -0.21553290384E+02 -0.55607200954E+02 -0.19571583092E+03  0.20460056597E+03  0.00000000000E+00 0.  1.
         14    1    3    3    0    0  0.50581275320E+02 -0.54016458454E+02 -0.14872013958E+03  0.16611418697E+03  0.00000000000E+00 0. -1.
         13    1    5    5    0    0 -0.68486642647E+02 -0.19655755912E+02  0.17163850004E+03  0.18584010240E+03  0.00000000000E+00 0. -1.
        -14    1    5    5    0    0 -0.11360151058E+02 -0.73592431313E+02  0.14794229560E+03  0.16562554696E+03  0.00000000000E+00 0.  1.
          5    1    4    4  501    0  0.19627720560E+02  0.13153424757E+03  0.32483652181E+03  0.35103097299E+03  0.41800000000E+01 0. -1.
         -5    1    4    4    0  501  0.31191088209E+02  0.71337599062E+02  0.39799874274E+02  0.87541072736E+02  0.41800000000E+01 0. -1.
</event>
<event>
11    1  0.8328696E-009  0.1519731E+03  0.7561462E-02  0.1094880E+00
         22   -1    0    0    0    0  0.00000000000E+00  0.00000000000E+00  0.34861298164E+04  0.34861298164E+04  0.00000000000E+00 0. -1.
         22   -1    0    0    0    0 -0.00000000000E+00 -0.00000000000E+00 -0.37166555097E+02  0.37166555097E+02  0.00000000000E+00 0.  1.
         24    2    1    2    0    0 -0.81015294630E+02  0.19974958985E+02  0.11622364070E+03  0.16481943894E+03  0.81823198708E+02 0.  0.
         25    2    1    2    0    0  0.92056814208E+02 -0.30298634032E+02  0.49860138529E+03  0.52310955245E+03  0.12509115948E+03 0.  0.
        -24    2    1    2    0    0 -0.11041519578E+02  0.10323675047E+02  0.28341382353E+04  0.28353673801E+04  0.82098415743E+02 0.  0.
        -13    1    3    3    0    0 -0.97889535150E+02  0.16438833077E+02  0.10340111771E+03  0.14333313458E+03  0.00000000000E+00 0.  1.
         14    1    3    3    0    0  0.16874240520E+02  0.35361259082E+01  0.12822522990E+02  0.21486304368E+02  0.00000000000E+00 0. -1.
         11    1    5    5    0    0 -0.27571150304E+02  0.25416559163E+01  0.26810282407E+04  0.26811712097E+04  0.00000000000E+00 0. -1.
        -12    1    5    5    0    0  0.16529630726E+02  0.77820191306E+01  0.15310999464E+03  0.15419617043E+03  0.00000000000E+00 0.  1.
          5    1    4    4  501    0  0.37649849200E+02 -0.77169184574E+02  0.28848072433E+03  0.30101693458E+03  0.41800000000E+01 0. -1.
         -5    1    4    4    0  501  0.54406965008E+02  0.46870550542E+02  0.21012066096E+03  0.22209261787E+03  0.41800000000E+01 0. -1.
</event>
<event>
11    1  0.8328696E-009  0.1773155E+03  0.7561462E-02  0.1071835E+00
         22   -1    0    0    0    0  0.00000000000E+00  0.00000000000E+00  0.16856824226E+04  0.16856824226E+04  0.00000000000E+00 0.  1.
         22   -1    0    0    0    0 -0.00000000000E+00 -0.00000000000E+00 -0.28829019955E+03  0.28829019955E+03  0.00000000000E+00 0. -1.
        -24    2    1    2    0    0  0.63527795773E+02 -0.51861156653E+02 -0.25645751080E+03  0.28096807014E+03  0.80294714546E+02 0.  0.
         25    2    1    2    0    0 -0.10314945879E+03 -0.74454535626E+02  0.55035783125E+03  0.57855298144E+03  0.12508605515E+03 0.  0.
         24    2    1    2    0    0  0.39621663021E+02  0.12631569228E+03  0.11034919026E+04  0.11144515706E+04  0.82355289730E+02 0.  0.
        -11    1    5    5    0    0  0.50983304085E+02  0.85077952968E+02  0.94829887354E+03  0.95347171376E+03  0.00000000000E+00 0.  1.
         12    1    5    5    0    0 -0.11361641065E+02  0.41237739311E+02  0.15519302909E+03  0.16097985684E+03  0.00000000000E+00 0. -1.
         13    1    3    3    0    0  0.64436465323E+02 -0.94919727361E+01 -0.10384170900E+03  0.12257755152E+03  0.00000000000E+00 0. -1.
        -14    1    3    3    0    0 -0.90866955034E+00 -0.42369183917E+02 -0.15261580181E+03  0.15839051861E+03  0.00000000000E+00 0.  1.
          5    1    4    4  501    0 -0.30970396921E+02 -0.59212785580E+01  0.37907287601E+03  0.38040497467E+03  0.41800000000E+01 0.  1.
         -5    1    4    4    0  501 -0.72179061872E+02 -0.68533257068E+02  0.17128495524E+03  0.19814800677E+03  0.41800000000E+01 0.  1.
</event>
<event>
11    1  0.8328696E-009  0.1468351E+03  0.7561462E-02  0.1100157E+00
         22   -1    0    0    0    0  0.00000000000E+00  0.00000000000E+00  0.12828683919E+04  0.12828683919E+04  0.00000000000E+00 0. -1.
         22   -1    0    0    0    0 -0.00000000000E+00 -0.00000000000E+00 -0.47901093376E+03  0.47901093376E+03  0.00000000000E+00 0. -1.
         24    2    1    2    0    0 -0.29221454799E+02 -0.71573930955E+02 -0.46242029845E+03  0.47559726469E+03  0.79896838147E+02 0.  0.
         25    2    1    2    0    0  0.49942052187E+01  0.41977470783E+02  0.56721935420E+03  0.58238521827E+03  0.12509075324E+03 0.  0.
        -24    2    1    2    0    0  0.24227249580E+02  0.29596460172E+02  0.69905840239E+03  0.70389684268E+03  0.72974002996E+02 0.  0.
        -11    1    3    3    0    0  0.10633497893E+02 -0.15740486473E+02 -0.18875534740E+02  0.26779096392E+02  0.00000000000E+00 0.  1.
         12    1    3    3    0    0 -0.39854952692E+02 -0.55833444482E+02 -0.44354476371E+03  0.44881816830E+03  0.00000000000E+00 0. -1.
         13    1    5    5    0    0  0.14572162787E+02  0.28593393185E+02  0.68959110866E+03  0.69033747341E+03  0.00000000000E+00 0. -1.
        -14    1    5    5    0    0  0.96550867930E+01  0.10030669875E+01  0.94672937303E+01  0.13559369268E+02  0.00000000000E+00 0.  1.
          5    1    4    4  501    0  0.87293060193E+01  0.43454183283E+02  0.57268806909E+03  0.57441584563E+03  0.41800000000E+01 0. -1.
         -5    1    4    4    0  501 -0.37351008006E+01 -0.14767125004E+01 -0.54687148919E+01  0.79693726458E+01  0.41800000000E+01 0. -1.
</event>
<event>
11    1  0.8328696E-009  0.2275363E+03  0.7561462E-02  0.1036597E+00
         22   -1    0    0    0    0  0.00000000000E+00  0.00000000000E+00  0.46578159847E+03  0.46578159847E+03  0.00000000000E+00 0. -1.
         22   -1    0    0    0    0 -0.00000000000E+00 -0.00000000000E+00 -0.56874206339E+03  0.56874206339E+03  0.00000000000E+00 0. -1.
        -24    2    1    2    0    0 -0.90567881428E+01 -0.18433532313E+02 -0.39909059499E+03  0.40958060382E+03  0.89783893281E+02 0.  0.
         25    2    1    2    0    0  0.13192639515E+03 -0.12847567138E+03 -0.43513557572E+02  0.22682925827E+03  0.12509001097E+03 0.  0.
         24    2    1    2    0    0 -0.12286960701E+03  0.14690920369E+03  0.33964368764E+03  0.39811379976E+03  0.80358624603E+02 0.  0.
        -13    1    5    5    0    0 -0.54109178368E+02  0.11833903484E+03  0.18158247988E+03  0.22339231713E+03  0.00000000000E+00 0.  1.
         14    1    5    5    0    0 -0.68760428637E+02  0.28570168848E+02  0.15806120776E+03  0.17472148263E+03  0.00000000000E+00 0. -1.
         13    1    3    3    0    0 -0.45815426513E+02 -0.66914531471E+01 -0.29411403062E+03  0.29773627905E+03  0.00000000000E+00 0. -1.
        -14    1    3    3    0    0  0.36758638370E+02 -0.11742079166E+02 -0.10497656436E+03  0.11184432477E+03  0.00000000000E+00 0.  1.
          5    1    4    4  501    0  0.81015900266E+02 -0.11408758864E+02  0.19786836379E+02  0.84277678947E+02  0.41800000000E+01 0. -1.
         -5    1    4    4    0  501  0.50910494882E+02 -0.11706691251E+03 -0.63300393951E+02  0.14255157933E+03  0.41800000000E+01 0. -1.
</event>
<event>
11    1  0.8328696E-009  0.1663095E+03  0.7561462E-02  0.1081289E+00
         22   -1    0    0    0    0  0.00000000000E+00  0.00000000000E+00  0.45009744981E+03  0.45009744981E+03  0.00000000000E+00 0.  1.
         22   -1    0    0    0    0 -0.00000000000E+00 -0.00000000000E+00 -0.60295144070E+03  0.60295144070E+03  0.00000000000E+00 0.  1.
        -24    2    1    2    0    0  0.97521362585E+02  0.47333561154E+02 -0.53501204800E+03  0.55157251895E+03  0.79015631289E+02 0.  0.
         25    2    1    2    0    0 -0.14808056528E+03 -0.74222633131E+01  0.14232528142E+03  0.24059944137E+03  0.12509461080E+03 0.  0.
         24    2    1    2    0    0  0.50559202696E+02 -0.39911297841E+02  0.23983277569E+03  0.26087693018E+03  0.79924137349E+02 0.  0.
        -11    1    5    5    0    0  0.45240129115E+02 -0.35567724069E+02  0.24538701281E+03  0.25204467527E+03  0.00000000000E+00 0.  1.
         12    1    5    5    0    0  0.53190735816E+01 -0.43435737726E+01 -0.55542371137E+01  0.88322549103E+01  0.00000000000E+00 0. -1.
         13    1    3    3    0    0  0.27408892418E+01 -0.15704415907E+02 -0.30913524876E+02  0.34781994955E+02  0.00000000000E+00 0. -1.
        -14    1    3    3    0    0  0.94780473343E+02  0.63037977061E+02 -0.50409852312E+03  0.51679052400E+03  0.00000000000E+00 0.  1.
          5    1    4    4  501    0 -0.23345910754E+02 -0.20765962276E+02 -0.18531635232E+02  0.36567070467E+02  0.41800000000E+01 0.  1.
         -5    1    4    4    0  501 -0.12473465453E+03  0.13343698963E+02  0.16085691665E+03  0.20403237091E+03  0.41800000000E+01 0.  1.
</event>
<event>
11    1  0.8328696E-009  0.2689595E+03  0.7561462E-02  0.1014257E+00
         22   -1    0    0    0    0  0.00000000000E+00  0.00000000000E+00  0.13199969221E+03  0.13199969221E+03  0.00000000000E+00 0.  1.
         22   -1    0    0    0    0 -0.00000000000E+00 -0.00000000000E+00 -0.11630099781E+04  0.11630099781E+04  0.00000000000E+00 0.  1.
         24    2    1    2    0    0  0.14504065708E+03  0.11385578109E+03 -0.12080598024E+03  0.23454367652E+03  0.80104433317E+02 0.  0.
         25    2    1    2    0    0 -0.25629959773E+03 -0.71006525164E+02 -0.85814259196E+03  0.90707601114E+03  0.12508705541E+03 0.  0.
        -24    2    1    2    0    0  0.11125894064E+03 -0.42849255927E+02 -0.52061713703E+02  0.15338998268E+03  0.81261640071E+02 0.  0.
        -13    1    3    3    0    0  0.15169277763E+03  0.92118725209E+02 -0.11351521620E+03  0.21067098194E+03  0.00000000000E+00 0.  1.
         14    1    3    3    0    0 -0.66521205518E+01  0.21737055881E+02 -0.72907640387E+01  0.23872694580E+02  0.00000000000E+00 0. -1.
         13    1    5    5    0    0 -0.61670020337E+01 -0.17266677130E+02  0.68175353331E+01  0.19561412046E+02  0.00000000000E+00 0. -1.
        -14    1    5    5    0    0  0.11742594268E+03 -0.25582578796E+02 -0.58879249036E+02  0.13382857064E+03  0.00000000000E+00 0.  1.
          5    1    4    4  501    0 -0.13605796428E+03 -0.91150791759E+02 -0.38385603195E+03  0.41735256336E+03  0.41800000000E+01 0.  1.
         -5    1    4    4    0  501 -0.12024163345E+03  0.20144266595E+02 -0.47428656001E+03  0.48972344777E+03  0.41800000000E+01 0.  1.
</event>
<event>
11    1  0.8328696E-009  0.2200433E+03  0.7561462E-02  0.1041190E+00
         22   -1    0    0    0    0  0.00000000000E+00  0.00000000000E+00  0.83715459527E+03  0.83715459527E+03  0.00000000000E+00 0.  1.
         22   -1    0    0    0    0 -0.00000000000E+00 -0.00000000000E+00 -0.26549722280E+03  0.26549722280E+03  0.00000000000E+00 0. -1.
        -24    2    1    2    0    0 -0.79235076390E+02  0.31947858104E+02 -0.15056404253E+03  0.18953781971E+03  0.77176364442E+02 0.  0.
         25    2    1    2    0    0  0.19158105239E+03 -0.15789899816E+03  0.16031289189E+03  0.32090914732E+03  0.12508822595E+03 0.  0.
         24    2    1    2    0    0 -0.11234597600E+03  0.12595114005E+03  0.56190852311E+03  0.59220485105E+03  0.80499001546E+02 0.  0.
        -13    1    5    5    0    0 -0.33413942247E+02  0.96381839638E+02  0.33281656556E+03  0.34809886075E+03  0.00000000000E+00 0.  1.
         14    1    5    5    0    0 -0.78932033752E+02  0.29569300415E+02  0.22909195756E+03  0.24410599029E+03  0.00000000000E+00 0. -1.
         11    1    3    3    0    0 -0.69242935857E+02  0.40369433514E+02 -0.15599879151E+03  0.17538500016E+03  0.00000000000E+00 0. -1.
        -12    1    3    3    0    0 -0.99921405335E+01 -0.84215754100E+01  0.54347489764E+01  0.14152819552E+02  0.00000000000E+00 0.  1.
          5    1    4    4  501    0  0.20580917203E+03 -0.16207623246E+03  0.14627654545E+03  0.30006736005E+03  0.41800000000E+01 0.  1.
         -5    1    4    4    0  501 -0.14228119639E+02  0.41772343086E+01  0.14036346440E+02  0.20841787263E+02  0.41800000000E+01 0.  1.
</event>
<event>
11    1  0.8328696E-009  0.1286959E+03  0.7561462E-02  0.1120882E+00
         22   -1    0    0    0    0  0.00000000000E+00  0.00000000000E+00  0.23156696328E+04  0.23156696328E+04  0.00000000000E+00 0. -1.
         22   -1    0    0    0    0 -0.00000000000E+00 -0.00000000000E+00 -0.26147065051E+03  0.26147065051E+03  0.00000000000E+00 0. -1.
         24    2    1    2    0    0  0.54780913500E+01 -0.29936224036E+02 -0.24446604160E+03  0.26046173031E+03  0.84560513647E+02 0.  0.
         25    2    1    2    0    0  0.28227587378E+02  0.23191302851E+02  0.52516722021E+03  0.54109412322E+03  0.12509039846E+03 0.  0.
        -24    2    1    2    0    0 -0.33705678728E+02  0.67449211849E+01  0.17734978037E+04  0.17755844298E+04  0.78892590745E+02 0.  0.
        -13    1    3    3    0    0 -0.48985066610E+01 -0.24207763231E+02 -0.11587102612E+02  0.27281351050E+02  0.00000000000E+00 0.  1.
         14    1    3    3    0    0  0.10376598011E+02 -0.57284608047E+01 -0.23287893899E+03  0.23318037926E+03  0.00000000000E+00 0. -1.
         13    1    5    5    0    0 -0.22783547166E+02  0.34668428565E+02  0.14752675947E+04  0.14758507601E+04  0.00000000000E+00 0. -1.
        -14    1    5    5    0    0 -0.10922131562E+02 -0.27923507380E+02  0.29823020895E+03  0.29973366970E+03  0.00000000000E+00 0.  1.
          5    1    4    4  501    0  0.56608561261E+02 -0.34010855851E+02  0.28000545630E+03  0.28771825712E+03  0.41800000000E+01 0.  1.
         -5    1    4    4    0  501 -0.28380973883E+02  0.57202158702E+02  0.24516176391E+03  0.25337586610E+03  0.41800000000E+01 0.  1.
</event>
<event>
11    1  0.8328696E-009  0.1691969E+03  0.7561462E-02  0.1078733E+00
         22   -1    0    0    0    0  0.00000000000E+00  0.00000000000E+00  0.14596951637E+03  0.14596951637E+03  0.00000000000E+00 0. -1.
         22   -1    0    0    0    0 -0.00000000000E+00 -0.00000000000E+00 -0.90079313191E+03  0.90079313191E+03  0.00000000000E+00 0. -1.
        -24    2    1    2    0    0 -0.11998242312E+02 -0.16563894611E+02 -0.31801868366E+03  0.32833034702E+03  0.79035518523E+02 0.  0.
         25    2    1    2    0    0  0.11824919649E+03 -0.23499598636E+02 -0.52515117265E+03  0.55314449894E+03  0.12509987596E+03 0.  0.
         24    2    1    2    0    0 -0.10625095417E+03  0.40063493247E+02  0.88346240769E+02  0.16528780233E+03  0.81367380367E+02 0.  0.
        -11    1    5    5    0    0  0.11656651618E+02 -0.41068641733E+01  0.15498750845E+02  0.19823096075E+02  0.00000000000E+00 0.  1.
         12    1    5    5    0    0 -0.11790760579E+03  0.44170357421E+02  0.72847489925E+02  0.14546470626E+03  0.00000000000E+00 0. -1.
         11    1    3    3    0    0 -0.37231173822E+02 -0.16835189715E+02 -0.27823017280E+03  0.28121453193E+03  0.00000000000E+00 0. -1.
        -12    1    3    3    0    0  0.25232931510E+02  0.27129510375E+00 -0.39788510869E+02  0.47115815081E+02  0.00000000000E+00 0.  1.
          5    1    4    4  501    0  0.13056441934E+03 -0.13380968971E+01 -0.50144836779E+03  0.51818606317E+03  0.41800000000E+01 0.  1.
         -5    1    4    4    0  501 -0.12315222855E+02 -0.22161501739E+02 -0.23702804853E+02  0.34958435766E+02  0.41800000000E+01 0.  1.
</event>
<event>
11    1  0.8328696E-009  0.1364354E+03  0.7561462E-02  0.1111605E+00
         22   -1    0    0    0    0  0.00000000000E+00  0.00000000000E+00  0.62945144540E+03  0.62945144540E+03  0.00000000000E+00 0. -1.
         22   -1    0    0    0    0 -0.00000000000E+00 -0.00000000000E+00 -0.96072057899E+03  0.96072057899E+03  0.00000000000E+00 0.  1.
        -24    2    1    2    0    0 -0.37306812860E+02 -0.35254930902E+02 -0.65318656830E+03  0.65989086262E+03  0.78540111586E+02 0.  0.
         25    2    1    2    0    0  0.76971229806E+02  0.19479134439E+02 -0.28254665391E+03  0.31903911634E+03  0.12509731901E+03 0.  0.
         24    2    1    2    0    0 -0.39664416946E+02  0.15775796464E+02  0.60446408862E+03  0.61124204542E+03  0.80111559314E+02 0.  0.
        -11    1    5    5    0    0 -0.21044188505E+02  0.34853497835E+02  0.13461289696E+03  0.14063518838E+03  0.00000000000E+00 0.  1.
         12    1    5    5    0    0 -0.18620228441E+02 -0.19077701371E+02  0.46985119165E+03  0.47060685704E+03  0.00000000000E+00 0. -1.
         11    1    3    3    0    0  0.71011218775E+01 -0.45191173684E+02 -0.25065080272E+03  0.25479107719E+03  0.00000000000E+00 0. -1.
        -12    1    3    3    0    0 -0.44407934738E+02  0.99362427815E+01 -0.40253576558E+03  0.40509978543E+03  0.00000000000E+00 0.  1.
          5    1    4    4  501    0  0.36810418651E+02 -0.48106199853E+02 -0.17862975070E+03  0.18866709735E+03  0.41800000000E+01 0. -1.
         -5    1    4    4    0  501  0.40160811155E+02  0.67585334291E+02 -0.10391690321E+03  0.13037201900E+03  0.41800000000E+01 0. -1.
</event>
<event>
11    1  0.8328696E-009  0.1940725E+03  0.7561462E-02  0.1058796E+00
         22   -1    0    0    0    0  0.00000000000E+00  0.00000000000E+00  0.11671505132E+03  0.11671505132E+03  0.00000000000E+00 0.  1.
         22   -1    0    0    0    0 -0.00000000000E+00 -0.00000000000E+00 -0.26060836345E+04  0.26060836345E+04  0.00000000000E+00 0. -1.
         24    2    1    2    0    0 -0.28374971143E+02 -0.61818215245E+02 -0.85932423347E+03  0.86575591477E+03  0.80427203106E+02 0.  0.
         25    2    1    2    0    0  0.30338951077E+01  0.20584202780E+03 -0.16683052786E+04  0.16856066828E+04  0.12508893429E+03 0.  0.
        -24    2    1    2    0    0  0.25341076035E+02 -0.14402381255E+03  0.38260928857E+02  0.17143608832E+03  0.80878952673E+02 0.  0.
        -13    1    3    3    0    0 -0.18685968471E+02 -0.28996936308E+02 -0.10232010562E+03  0.10797866339E+03  0.00000000000E+00 0.  1.
         14    1    3    3    0    0 -0.96890026718E+01 -0.32821278938E+02 -0.75700412785E+03  0.75777725138E+03  0.00000000000E+00 0. -1.
         13    1    5    5    0    0  0.38731882536E+02 -0.57320106617E+02 -0.12171681363E+02  0.70241748088E+02  0.00000000000E+00 0. -1.
        -14    1    5    5    0    0 -0.13390806501E+02 -0.86703705934E+02  0.50432610220E+02  0.10119434023E+03  0.00000000000E+00 0.  1.
          5    1    4    4  501    0 -0.35904276844E+01  0.14678027871E+03 -0.14979362293E+04  0.15051205138E+04  0.41800000000E+01 0.  1.
         -5    1    4    4    0  501  0.66243227920E+01  0.59061749088E+02 -0.17036904926E+03  0.18048616901E+03  0.41800000000E+01 0.  1.
</event>
<event>
11    1  0.8328696E-009  0.1551114E+03  0.7561462E-02  0.1091767E+00
         22   -1    0    0    0    0  0.00000000000E+00  0.00000000000E+00  0.35402451450E+03  0.35402451450E+03  0.00000000000E+00 0.  1.
         22   -1    0    0    0    0 -0.00000000000E+00 -0.00000000000E+00 -0.41370956433E+03  0.41370956433E+03  0.00000000000E+00 0.  1.
         24    2    1    2    0    0 -0.87494832689E+02 -0.13308318386E+02 -0.24014646628E+03  0.26809693856E+03  0.79832237305E+02 0.  0.
         25    2    1    2    0    0  0.82595535028E+02  0.96985941464E+02 -0.93914331411E+02  0.20173119040E+03  0.12508907341E+03 0.  0.
        -24    2    1    2    0    0  0.48992976610E+01 -0.83677623078E+02  0.27437574786E+03  0.29790594988E+03  0.80249337932E+02 0.  0.
        -11    1    3    3    0    0 -0.29081025950E+02  0.51677239571E+01 -0.17941775674E+03  0.18183273323E+03  0.00000000000E+00 0.  1.
         12    1    3    3    0    0 -0.58413806739E+02 -0.18476042343E+02 -0.60728709538E+02  0.86264205327E+02  0.00000000000E+00 0. -1.
         11    1    5    5    0    0  0.39695279666E+02 -0.24152619240E+02  0.95571532228E+02  0.10626844318E+03  0.00000000000E+00 0. -1.
        -12    1    5    5    0    0 -0.34795982005E+02 -0.59525003839E+02  0.17880421563E+03  0.19163750670E+03  0.00000000000E+00 0.  1.
          5    1    4    4  501    0  0.54130929703E+02  0.84927641240E+02 -0.12303726974E+03  0.15905503432E+03  0.41800000000E+01 0. -1.
         -5    1    4    4    0  501  0.28464605326E+02  0.12058300224E+02  0.29122938331E+02  0.42676156079E+02  0.41800000000E+01 0. -1.
</event>
<event>
11    1  0.8328696E-009  0.1297868E+03  0.7561462E-02  0.1119531E+00
         22   -1    0    0    0    0  0.00000000000E+00  0.00000000000E+00  0.21158213564E+03  0.21158213564E+03  0.00000000000E+00 0. -1.
         22   -1    0    0    0    0 -0.00000000000E+00 -0.00000000000E+00 -0.10763110068E+04  0.10763110068E+04  0.00000000000E+00 0. -1.
         24    2    1    2    0    0 -0.19295957975E+02 -0.28236377775E+02 -0.99600015908E+03  0.99976202936E+03  0.79612633557E+02 0.  0.
         25    2    1    2    0    0  0.25611424418E+02  0.40944514425E+02 -0.16628274883E+00  0.13409325629E+03  0.12509426610E+03 0.  0.
        -24    2    1    2    0    0 -0.63154664439E+01 -0.12708136650E+02  0.13143757065E+03  0.15403785681E+03  0.79059752726E+02 0.  0.
        -13    1    3    3    0    0  0.58246316624E+01 -0.10369106857E+02 -0.19955777140E+02  0.23230965376E+02  0.00000000000E+00 0.  1.
         14    1    3    3    0    0 -0.25120589637E+02 -0.17867270918E+02 -0.97604438194E+03  0.97653106398E+03  0.00000000000E+00 0. -1.
         13    1    5    5    0    0 -0.14472042604E+02  0.49558454220E+01  0.13358994221E+03  0.13446290597E+03  0.00000000000E+00 0. -1.
        -14    1    5    5    0    0  0.81565761600E+01 -0.17663982072E+02 -0.21523715662E+01  0.19574950847E+02  0.00000000000E+00 0.  1.
          5    1    4    4  501    0 -0.24195656734E+02  0.56848125092E+02 -0.34997888313E+02  0.71129907336E+02  0.41800000000E+01 0. -1.
         -5    1    4    4    0  501  0.49807081153E+02 -0.15903610667E+02  0.34831605564E+02  0.62963348953E+02  0.41800000000E+01 0. -1.
</event>
<event>
11    1  0.8328696E-009  0.1266648E+03  0.7561462E-02  0.1123436E+00
         22   -1    0    0    0    0  0.00000000000E+00  0.00000000000E+00  0.38583175827E+03  0.38583175827E+03  0.00000000000E+00 0.  1.
         22   -1    0    0    0    0 -0.00000000000E+00 -0.00000000000E+00 -0.15857949697E+04  0.15857949697E+04  0.00000000000E+00 0.  1.
         24    2    1    2    0    0 -0.19811267222E+02 -0.48372130357E+01 -0.14957123574E+04  0.14980928580E+04  0.81919900307E+02 0.  0.
         25    2    1    2    0    0  0.15282377733E+01 -0.33743077613E+01 -0.37217732844E+02  0.13056300340E+03  0.12509123372E+03 0.  0.
        -24    2    1    2    0    0  0.18283029449E+02  0.82115207971E+01  0.33296687881E+03  0.34297086661E+03  0.79751957487E+02 0.  0.
        -11    1    3    3    0    0  0.31767559618E+02 -0.50974380226E+01 -0.66874110182E+03  0.66951461745E+03  0.00000000000E+00 0.  1.
         12    1    3    3    0    0 -0.51578826840E+02  0.26022498684E+00 -0.82697125561E+03  0.82857824054E+03  0.00000000000E+00 0. -1.
         13    1    5    5    0    0 -0.24463467523E+01 -0.69766924576E+01 -0.14785849309E+01  0.75395665312E+01  0.00000000000E+00 0. -1.
        -14    1    5    5    0    0  0.20729376201E+02  0.15188213255E+02  0.33444546374E+03  0.33543130008E+03  0.00000000000E+00 0.  1.
          5    1    4    4  501    0 -0.19574796670E+02  0.32009361640E+02  0.32274718733E+02  0.49667914860E+02  0.41800000000E+01 0. -1.
         -5    1    4    4    0  501  0.21103034443E+02 -0.35383669401E+02 -0.69492451577E+02  0.80895088536E+02  0.41800000000E+01 0. -1.
</event>
<event>
11    1  0.8328696E-009  0.1500918E+03  0.7561462E-02  0.1096785E+00
         22   -1    0    0    0    0  0.00000000000E+00  0.00000000000E+00  0.32716047348E+03  0.32716047348E+03  0.00000000000E+00 0.  1.
         22   -1    0    0    0    0 -0.00000000000E+00 -0.00000000000E+00 -0.16287535998E+04  0.16287535998E+04  0.00000000000E+00 0. -1.
         24    2    1    2    0    0 -0.78443214685E+02 -0.16224296135E+02 -0.13756771509E+04  0.13804176750E+04  0.81539978814E+02 0.  0.
         25    2    1    2    0    0  0.11077028805E+03  0.73120756807E+02 -0.20716770446E+03  0.27601216466E+03  0.12509018939E+03 0.  0.
        -24    2    1    2    0    0 -0.32327073364E+02 -0.56896460672E+02  0.28125172905E+03  0.29948423363E+03  0.79410479095E+02 0.  0.
        -11    1    3    3    0    0  0.12320432191E+02  0.89866924430E+01 -0.89014800490E+02  0.90311618282E+02  0.00000000000E+00 0.  1.
         12    1    3    3    0    0 -0.90763646876E+02 -0.25210988578E+02 -0.12866623504E+04  0.12901060567E+04  0.00000000000E+00 0. -1.
         11    1    5    5    0    0  0.16835215142E+02 -0.18834972460E+02  0.24068065700E+02  0.34892011163E+02  0.00000000000E+00 0. -1.
        -12    1    5    5    0    0 -0.49162288506E+02 -0.38061488211E+02  0.25718366335E+03  0.26459222247E+03  0.00000000000E+00 0.  1.
          5    1    4    4  501    0  0.10596173157E+03  0.49726661118E+02 -0.21951204869E+03  0.24880442380E+03  0.41800000000E+01 0.  1.
         -5    1    4    4    0  501  0.48085564813E+01  0.23394095689E+02  0.12344344230E+02  0.27207740865E+02  0.41800000000E+01 0.  1.
</event>
<event>
11    1  0.8328696E-009  0.1489315E+03  0.7561462E-02  0.1097976E+00
         22   -1    0    0    0    0  0.00000000000E+00  0.00000000000E+00  0.16780813039E+03  0.16780813039E+03  0.00000000000E+00 0.  1.
         22   -1    0    0    0    0 -0.00000000000E+00 -0.00000000000E+00 -0.12614528456E+04  0.12614528456E+04  0.00000000000E+00 0. -1.
         24    2    1    2    0    0  0.10443289231E+02 -0.42222276015E+02 -0.99791799117E+03  0.10020562461E+04  0.79903819421E+02 0.  0.
         25    2    1    2    0    0 -0.90332209882E+02  0.40516809907E+02 -0.21190105445E+03  0.26523762381E+03  0.12508964857E+03 0.  0.
        -24    2    1    2    0    0  0.79888920651E+02  0.17054661079E+01  0.11617433044E+03  0.16196710605E+03  0.79697679591E+02 0.  0.
        -11    1    3    3    0    0 -0.74754581017E+01  0.21966741069E+02 -0.19456657645E+03  0.19594533130E+03  0.00000000000E+00 0.  1.
         12    1    3    3    0    0  0.17918747332E+02 -0.64189017084E+02 -0.80335141472E+03  0.80611091479E+03  0.00000000000E+00 0. -1.
         13    1    5    5    0    0  0.18624246297E+02 -0.64105409562E+01 -0.95388529003E+01  0.21884864636E+02  0.00000000000E+00 0. -1.
        -14    1    5    5    0    0  0.61264674354E+02  0.81160070641E+01  0.12571318334E+03  0.14008224142E+03  0.00000000000E+00 0.  1.
          5    1    4    4  501    0 -0.92954988715E+02  0.63980783766E+02 -0.10012687090E+03  0.15092061919E+03  0.41800000000E+01 0. -1.
         -5    1    4    4    0  501  0.26227788336E+01 -0.23463973859E+02 -0.11177418355E+03  0.11431700462E+03  0.41800000000E+01 0. -1.
</event>
<event>
11    1  0.8328696E-009  0.1279998E+03  0.7561462E-02  0.1121751E+00
         22   -1    0    0    0    0  0.00000000000E+00  0.00000000000E+00  0.26213614740E+04  0.26213614740E+04  0.00000000000E+00 0. -1.
         22   -1    0    0    0    0 -0.00000000000E+00 -0.00000000000E+00 -0.25733923958E+02  0.25733923958E+02  0.00000000000E+00 0. -1.
        -24    2    1    2    0    0  0.28533444141E+02 -0.66699551303E+01  0.64918385812E+02  0.10379719985E+03  0.75503749213E+02 0.  0.
         25    2    1    2    0    0 -0.92335184276E+00  0.25582977438E+02  0.74498406304E+03  0.75584666716E+03  0.12509032240E+03 0.  0.
         24    2    1    2    0    0 -0.27610092298E+02 -0.18913022308E+02  0.17857251012E+04  0.17874515309E+04  0.71055040924E+02 0.  0.
        -11    1    5    5    0    0 -0.51133948617E+02 -0.56552074665E+01  0.11289436296E+04  0.11301152069E+04  0.00000000000E+00 0.  1.
         12    1    5    5    0    0  0.23523856319E+02 -0.13257814842E+02  0.65678147155E+03  0.65733632400E+03  0.00000000000E+00 0. -1.
         11    1    3    3    0    0  0.10300054583E+02 -0.29346274578E+02 -0.16521669270E+01  0.31145218117E+02  0.00000000000E+00 0. -1.
        -12    1    3    3    0    0  0.18233389558E+02  0.22676319447E+02  0.66570552739E+02  0.72651981737E+02  0.00000000000E+00 0.  1.
          5    1    4    4  501    0 -0.46311917881E+02  0.55854739911E+02  0.44989583470E+03  0.45572829645E+03  0.41800000000E+01 0.  1.
         -5    1    4    4    0  501  0.45388566038E+02 -0.30271762473E+02  0.29508822834E+03  0.30011837070E+03  0.41800000000E+01 0.  1.
</event>
<event>
11    1  0.8328696E-009  0.2102328E+03  0.7561462E-02  0.1047514E+00
         22   -1    0    0    0    0  0.00000000000E+00  0.00000000000E+00  0.76734986252E+03  0.76734986252E+03  0.00000000000E+00 0.  1.
         22   -1    0    0    0    0 -0.00000000000E+00 -0.00000000000E+00 -0.57923142521E+03  0.57923142521E+03  0.00000000000E+00 0. -1.
         24    2    1    2    0    0 -0.35173006754E+02  0.10263956805E+02 -0.45454712802E+03  0.46298607429E+03  0.80003276108E+02 0.  0.
         25    2    1    2    0    0  0.18526544201E+03  0.60416320611E+02  0.18046056083E+02  0.23226554274E+03  0.12509279118E+03 0.  0.
        -24    2    1    2    0    0 -0.15009243525E+03 -0.70680277416E+02  0.62461950923E+03  0.65132967070E+03  0.80977576394E+02 0.  0.
        -11    1    3    3    0    0  0.10256765901E+02 -0.16200993120E+02 -0.32949143882E+02  0.38122427879E+02  0.00000000000E+00 0.  1.
         12    1    3    3    0    0 -0.45429772656E+02  0.26464949926E+02 -0.42159798413E+03  0.42486364641E+03  0.00000000000E+00 0. -1.
         11    1    5    5    0    0 -0.97427086154E+01 -0.38470933507E+02  0.16360809803E+03  0.16835243639E+03  0.00000000000E+00 0. -1.
        -12    1    5    5    0    0 -0.14034972664E+03 -0.32209343909E+02  0.46101141120E+03  0.48297723431E+03  0.00000000000E+00 0.  1.
          5    1    4    4  501    0  0.13882698854E+02  0.57189622982E+02  0.14547334414E+02  0.60765776905E+02  0.41800000000E+01 0.  1.
         -5    1    4    4    0  501  0.17138274315E+03  0.32266976286E+01  0.34987216683E+01  0.17149976583E+03  0.41800000000E+01 0.  1.
</event>
<event>
11    1  0.8328696E-009  0.1318199E+03  0.7561462E-02  0.1117053E+00
         22   -1    0    0    0    0  0.00000000000E+00  0.00000000000E+00  0.32637031268E+03  0.32637031268E+03  0.00000000000E+00 0. -1.
         22   -1    0    0    0    0 -0.00000000000E+00 -0.00000000000E+00 -0.11073908455E+04  0.11073908455E+04  0.00000000000E+00 0. -1.
         24    2    1    2    0    0 -0.71771678129E+01  0.41257081490E+02 -0.64246843744E+03  0.64901177931E+03  0.81834821778E+02 0.  0.
         25    2    1    2    0    0  0.44094510884E+02 -0.29106473962E+02 -0.44518011695E+03  0.46542992826E+03  0.12509264116E+03 0.  0.
        -24    2    1    2    0    0 -0.36917343071E+02 -0.12150607528E+02  0.30662802159E+03  0.31931945060E+03  0.80209977101E+02 0.  0.
        -13    1    3    3    0    0  0.29536365024E+01 -0.15982342860E+02 -0.33079152813E+02  0.36856337348E+02  0.00000000000E+00 0.  1.
         14    1    3    3    0    0 -0.10130804315E+02  0.57239424350E+02 -0.60938928463E+03  0.61215544196E+03  0.00000000000E+00 0. -1.
         11    1    5    5    0    0 -0.59035773209E+02 -0.11487990176E+02  0.26922360148E+03  0.27585964552E+03  0.00000000000E+00 0. -1.
        -12    1    5    5    0    0  0.22118430137E+02 -0.66261735158E+00  0.37404420113E+02  0.43459805079E+02  0.00000000000E+00 0.  1.
          5    1    4    4  501    0  0.75797273312E+02 -0.31031050211E+02 -0.40884667706E+03  0.41699068390E+03  0.41800000000E+01 0.  1.
         -5    1    4    4    0  501 -0.31702762427E+02  0.19245762490E+01 -0.36333439893E+02  0.48439244355E+02  0.41800000000E+01 0.  1.
</event>
<event>
11    1  0.8328696E-009  0.1324798E+03  0.7561462E-02  0.1116259E+00
         22   -1    0    0    0    0  0.00000000000E+00  0.00000000000E+00  0.40748518397E+03  0.40748518397E+03  0.00000000000E+00 0. -1.
         22   -1    0    0    0    0 -0.00000000000E+00 -0.00000000000E+00 -0.20533835777E+03  0.20533835777E+03  0.00000000000E+00 0. -1.
         24    2    1    2    0    0  0.14201512909E+02 -0.85926784740E+01 -0.14583902598E+03  0.16427589367E+03  0.73770120309E+02 0.  0.
         25    2    1    2    0    0  0.11725631328E+02  0.43871549921E+02  0.61377243967E+02  0.14655000951E+03  0.12509011107E+03 0.  0.
        -24    2    1    2    0    0 -0.25927144237E+02 -0.35278871447E+02  0.28660860821E+03  0.30199763857E+03  0.84505998743E+02 0.  0.
        -13    1    3    3    0    0  0.17187634543E+02  0.29370991167E+02 -0.44518597450E+02  0.56035483599E+02  0.00000000000E+00 0.  1.
         14    1    3    3    0    0 -0.29861216343E+01 -0.37963669641E+02 -0.10132042853E+03  0.10824041007E+03  0.00000000000E+00 0. -1.
         13    1    5    5    0    0 -0.18361597159E+02 -0.36482766379E+02  0.29053329990E+03  0.29339007966E+03  0.00000000000E+00 0. -1.
        -14    1    5    5    0    0 -0.75655470789E+01  0.12038949321E+01 -0.39246916866E+01  0.86075589133E+01  0.00000000000E+00 0.  1.
          5    1    4    4  501    0 -0.36441691870E+02 -0.19782645504E+02  0.51128680394E+02  0.65961839940E+02  0.41800000000E+01 0.  1.
         -5    1    4    4    0  501  0.48167323198E+02  0.63654195425E+02  0.10248563573E+02  0.80588169570E+02  0.41800000000E+01 0.  1.
</event>
<event>
11    1  0.8328696E-009  0.1694569E+03  0.7561462E-02  0.1078505E+00
         22   -1    0    0    0    0  0.00000000000E+00  0.00000000000E+00  0.21916359340E+03  0.21916359340E+03  0.00000000000E+00 0. -1.
         22   -1    0    0    0    0 -0.00000000000E+00 -0.00000000000E+00 -0.31977832257E+04  0.31977832257E+04  0.00000000000E+00 0. -1.
         24    2    1    2    0    0 -0.73156998253E+02  0.85245936752E+02 -0.29440654525E+04  0.29472663186E+04  0.78984480155E+02 0.  0.
         25    2    1    2    0    0  0.94863004007E+02 -0.15216751120E+03 -0.18392590395E+03  0.28571002122E+03  0.12509011587E+03 0.  0.
        -24    2    1    2    0    0 -0.21706005753E+02  0.66921574443E+02  0.14937172414E+03  0.18397047928E+03  0.81139247369E+02 0.  0.
        -13    1    3    3    0    0 -0.29449795479E+02  0.66294933838E+02 -0.10045217866E+04  0.10071376909E+04  0.00000000000E+00 0.  1.
         14    1    3    3    0    0 -0.43707202775E+02  0.18951002914E+02 -0.19395436659E+04  0.19401286277E+04  0.00000000000E+00 0. -1.
         11    1    5    5    0    0 -0.37782840841E+02  0.27881770877E+02  0.12862458085E+03  0.13692778757E+03  0.00000000000E+00 0. -1.
        -12    1    5    5    0    0  0.16076835088E+02  0.39039803566E+02  0.20747143282E+02  0.47042691710E+02  0.00000000000E+00 0.  1.
          5    1    4    4  501    0  0.10592372179E+03 -0.60522912662E+02 -0.76709787561E+02  0.14416907332E+03  0.41800000000E+01 0. -1.
         -5    1    4    4    0  501 -0.11060717780E+02 -0.91644598533E+02 -0.10721611639E+03  0.14154094790E+03  0.41800000000E+01 0. -1.
</event>
<event>
11    1  0.8328696E-009  0.1402807E+03  0.7561462E-02  0.1107245E+00
         22   -1    0    0    0    0  0.00000000000E+00  0.00000000000E+00  0.86081413942E+03  0.86081413942E+03  0.00000000000E+00 0.  1.
         22   -1    0    0    0    0 -0.00000000000E+00 -0.00000000000E+00 -0.15623032257E+04  0.15623032257E+04  0.00000000000E+00 0.  1.
         24    2    1    2    0    0  0.28271990676E+02 -0.56706677482E+02 -0.11437628652E+04  0.11481996657E+04  0.78447612454E+02 0.  0.
         25    2    1    2    0    0 -0.56420761041E+02  0.42292862375E+02 -0.40163618748E+03  0.42653367873E+03  0.12508942205E+03 0.  0.
        -24    2    1    2    0    0  0.28148770366E+02  0.14413815107E+02  0.84390996638E+03  0.84838402066E+03  0.81063578826E+02 0.  0.
        -11    1    3    3    0    0  0.44168127656E+02 -0.66323404374E+02 -0.80695037993E+03  0.81087516495E+03  0.00000000000E+00 0.  1.
         12    1    3    3    0    0 -0.15896136981E+02  0.96167268926E+01 -0.33681248523E+03  0.33732450076E+03  0.00000000000E+00 0. -1.
         13    1    5    5    0    0  0.16221991153E+02 -0.10558751637E+02  0.44891917717E+02  0.48886854157E+02  0.00000000000E+00 0. -1.
        -14    1    5    5    0    0  0.11926779213E+02  0.24972566744E+02  0.79901804866E+03  0.79949716650E+03  0.00000000000E+00 0.  1.
          5    1    4    4  501    0 -0.93960113003E+02  0.18235291374E+02 -0.23009079523E+03  0.24923939323E+03  0.41800000000E+01 0.  1.
         -5    1    4    4    0  501  0.37539351962E+02  0.24057571001E+02 -0.17154539225E+03  0.17729428550E+03  0.41800000000E+01 0.  1.
</event>
<event>
11    1  0.8328696E-009  0.1795490E+03  0.7561462E-02  0.1070008E+00
         22   -1    0    0    0    0  0.00000000000E+00  0.00000000000E+00  0.22596184712E+04  0.22596184712E+04  0.00000000000E+00 0.  1.
         22   -1    0    0    0    0 -0.00000000000E+00 -0.00000000000E+00 -0.23228622882E+03  0.23228622882E+03  0.00000000000E+00 0.  1.
         24    2    1    2    0    0  0.12189255437E+03  0.38926228608E+02 -0.14852741025E+03  0.21210752910E+03  0.80970156348E+02 0.  0.
         25    2    1    2    0    0 -0.13919883997E+03  0.12136604405E+01  0.12086369377E+03  0.22278514306E+03  0.12508955782E+03 0.  0.
        -24    2    1    2    0    0  0.17306285593E+02 -0.40139889048E+02  0.20549959589E+04  0.20570120279E+04  0.79870981248E+02 0.  0.
        -13    1    3    3    0    0  0.12255709725E+03  0.39594650990E+02 -0.98682095046E+02  0.16225330306E+03  0.00000000000E+00 0.  1.
         14    1    3    3    0    0 -0.66454287238E+00 -0.66842238200E+00 -0.49845315202E+02  0.49854226033E+02  0.00000000000E+00 0. -1.
         11    1    5    5    0    0 -0.18740070682E+02  0.12897188485E+02  0.85615960528E+03  0.85646178983E+03  0.00000000000E+00 0. -1.
        -12    1    5    5    0    0  0.36046356275E+02 -0.53037077534E+02  0.11988363536E+04  0.12005502381E+04  0.00000000000E+00 0.  1.
          5    1    4    4  501    0 -0.13808381781E+02 -0.42611356848E+02  0.64015890757E+02  0.78242608655E+02  0.41800000000E+01 0.  1.
         -5    1    4    4    0  501 -0.12539045819E+03  0.43825017288E+02  0.56847803018E+02  0.14454253441E+03  0.41800000000E+01 0.  1.
</event>
<event>
11    1  0.8328696E-009  0.3314458E+03  0.7561462E-02  0.9876962E-01
         22   -1    0    0    0    0  0.00000000000E+00  0.00000000000E+00  0.17212847144E+04  0.17212847144E+04  0.00000000000E+00 0. -1.
         22   -1    0    0    0    0 -0.00000000000E+00 -0.00000000000E+00 -0.11368538912E+04  0.11368538912E+04  0.00000000000E+00 0.  1.
         24    2    1    2    0    0 -0.48305037992E+02 -0.12733057343E+03 -0.63505859974E+03  0.65432472956E+03  0.79340878403E+02 0.  0.
         25    2    1    2    0    0  0.19627784241E+03  0.39145415020E+03 -0.36814061174E+03  0.58560791227E+03  0.12509106194E+03 0.  0.
        -24    2    1    2    0    0 -0.14797280442E+03 -0.26412357677E+03  0.15876300347E+04  0.16182059638E+04  0.79775933991E+02 0.  0.
        -11    1    3    3    0    0 -0.68503287659E+02 -0.98102680167E+02 -0.43599574408E+03  0.45211627390E+03  0.00000000000E+00 0.  1.
         12    1    3    3    0    0  0.20198249667E+02 -0.29227893260E+02 -0.19906285566E+03  0.20220845565E+03  0.00000000000E+00 0. -1.
         11    1    5    5    0    0 -0.12308383504E+03 -0.23460491792E+03  0.12131976164E+04  0.12417880473E+04  0.00000000000E+00 0. -1.
        -12    1    5    5    0    0 -0.24888969376E+02 -0.29518658852E+02  0.37443241831E+03  0.37641791655E+03  0.00000000000E+00 0.  1.
          5    1    4    4  501    0 -0.65605968713E+01  0.82610844525E+02 -0.94754861742E+02  0.12595058272E+03  0.41800000000E+01 0.  1.
         -5    1    4    4    0  501  0.20283843928E+03  0.30884330567E+03 -0.27338575000E+03  0.45965732955E+03  0.41800000000E+01 0.  1.
</event>
<event>
11    1  0.8328696E-009  0.1662165E+03  0.7561462E-02  0.1081372E+00
         22   -1    0    0    0    0  0.00000000000E+00  0.00000000000E+00  0.14659634969E+04  0.14659634969E+04  0.00000000000E+00 0.  1.
         22   -1    0    0    0    0 -0.00000000000E+00 -0.00000000000E+00 -0.19350351286E+03  0.19350351286E+03  0.00000000000E+00 0.  1.
         24    2    1    2    0    0 -0.10201896242E+03 -0.40924228133E+02 -0.14465950416E+03  0.20010139761E+03  0.83854254745E+02 0.  0.
         25    2    1    2    0    0  0.95516768893E+02  0.40866415894E+02  0.31673615781E+03  0.35603609503E+03  0.12508553157E+03 0.  0.
        -24    2    1    2    0    0  0.65021935263E+01  0.57812238420E-01  0.11003833304E+04  0.11033295171E+04  0.80313558720E+02 0.  0.
        -13    1    3    3    0    0 -0.11515738168E+03 -0.37625186349E+02 -0.14133773119E+03  0.18615378444E+03  0.00000000000E+00 0.  1.
         14    1    3    3    0    0  0.13138419263E+02 -0.32990417839E+01 -0.33217729762E+01  0.13947613170E+02  0.00000000000E+00 0. -1.
         13    1    5    5    0    0 -0.36764284696E+01 -0.54709596445E+01  0.60877630452E+01  0.89726464668E+01  0.00000000000E+00 0. -1.
        -14    1    5    5    0    0  0.10178621996E+02  0.55287718829E+01  0.10942955673E+04  0.10943568707E+04  0.00000000000E+00 0.  1.
          5    1    4    4  501    0  0.33804049898E+02 -0.43670380563E+01  0.25590094395E+03  0.25819479144E+03  0.41800000000E+01 0.  1.
         -5    1    4    4    0  501  0.61712718995E+02  0.45233453951E+02  0.60835213860E+02  0.97841303586E+02  0.41800000000E+01 0.  1.
</event>
<event>
11    1  0.8328696E-009  0.1339886E+03  0.7561462E-02  0.1114463E+00
         22   -1    0    0    0    0  0.00000000000E+00  0.00000000000E+00  0.12653663086E+03  0.12653663086E+03  0.00000000000E+00 0.  1.
         22   -1    0    0    0    0 -0.00000000000E+00 -0.00000000000E+00 -0.69042012972E+03  0.69042012972E+03  0.00000000000E+00 0. -1.
         24    2    1    2    0    0 -0.27328024810E+02 -0.32237255462E+02 -0.43970286014E+03  0.44917201139E+03  0.81429902455E+02 0.  0.
         25    2    1    2    0    0  0.72470474857E+02  0.38684639941E+02 -0.20323442597E+03  0.25238789178E+03  0.12508774890E+03 0.  0.
        -24    2    1    2    0    0 -0.45142450047E+02 -0.64473844790E+01  0.79053787252E+02  0.11539685742E+03  0.70622403386E+02 0.  0.
        -13    1    3    3    0    0 -0.33351043676E+02 -0.59385156804E+01 -0.63222434525E+02  0.71726106196E+02  0.00000000000E+00 0.  1.
         14    1    3    3    0    0  0.60230188662E+01 -0.26298739781E+02 -0.37648042562E+03  0.37744590519E+03  0.00000000000E+00 0. -1.
         11    1    5    5    0    0 -0.13039639468E+02  0.16791625957E+02 -0.55484123904E+01  0.21972159197E+02  0.00000000000E+00 0. -1.
        -12    1    5    5    0    0 -0.32102810579E+02 -0.23239010436E+02  0.84602199642E+02  0.93424698220E+02  0.00000000000E+00 0.  1.
          5    1    4    4  501    0 -0.34211714636E+02  0.26954153354E+00 -0.64789648389E+02  0.73387226473E+02  0.41800000000E+01 0. -1.
         -5    1    4    4    0  501  0.10668218949E+03  0.38415098407E+02 -0.13844477758E+03  0.17900066531E+03  0.41800000000E+01 0. -1.
</event>
<event>
11    1  0.8328696E-009  0.2576146E+03  0.7561462E-02  0.1019919E+00
         22   -1    0    0    0    0  0.00000000000E+00  0.00000000000E+00  0.15639631674E+04  0.15639631674E+04  0.00000000000E+00 0.  1.
         22   -1    0    0    0    0 -0.00000000000E+00 -0.00000000000E+00 -0.94792478494E+03  0.94792478494E+03  0.00000000000E+00 0. -1.
        -24    2    1    2    0    0  0.21564740703E+03  0.74280823760E+02 -0.58939311860E+03  0.63724434534E+03  0.81698607582E+02 0.  0.
         25    2    1    2    0    0 -0.13691333108E+03 -0.22009959529E+03 -0.26591752739E+03  0.39185236862E+03  0.12508819027E+03 0.  0.
         24    2    1    2    0    0 -0.78734075952E+02  0.14581877153E+03  0.14713490284E+04  0.14827912383E+04  0.79622385155E+02 0.  0.
        -11    1    5    5    0    0 -0.67557634605E+02  0.15300120427E+03  0.12640573417E+04  0.12750742589E+04  0.00000000000E+00 0.  1.
         12    1    5    5    0    0 -0.11176441347E+02 -0.71824327372E+01  0.20729168668E+03  0.20771697944E+03  0.00000000000E+00 0. -1.
         13    1    3    3    0    0  0.13791260329E+03  0.86085662876E+02 -0.36827660830E+03  0.40256463794E+03  0.00000000000E+00 0. -1.
        -14    1    3    3    0    0  0.77734803741E+02 -0.11804839116E+02 -0.22111651031E+03  0.23467970741E+03  0.00000000000E+00 0.  1.
          5    1    4    4  501    0 -0.11892191813E+03 -0.75034765361E+02 -0.11492499301E+03  0.18165314488E+03  0.41800000000E+01 0.  1.
         -5    1    4    4    0  501 -0.17991412943E+02 -0.14506482993E+03 -0.15099253439E+03  0.21019922374E+03  0.41800000000E+01 0.  1.
</event>
<event>
11    1  0.8328696E-009  0.1493325E+03  0.7561462E-02  0.1097563E+00
         22   -1    0    0    0    0  0.00000000000E+00  0.00000000000E+00  0.17350773025E+03  0.17350773025E+03  0.00000000000E+00 0.  1.
         22   -1    0    0    0    0 -0.00000000000E+00 -0.00000000000E+00 -0.37588813609E+04  0.37588813609E+04  0.00000000000E+00 0. -1.
         24    2    1    2    0    0  0.23452312705E+02  0.77687223976E+02 -0.34928090868E+04  0.34947366208E+04  0.82966353741E+02 0.  0.
         25    2    1    2    0    0 -0.60172504630E+02 -0.77700560197E+02 -0.22625770396E+03  0.27658651037E+03  0.12509772880E+03 0.  0.
        -24    2    1    2    0    0  0.36720191925E+02  0.13336220950E-01  0.13369316013E+03  0.16106596000E+03  0.81975665490E+02 0.  0.
        -11    1    3    3    0    0  0.69387379939E+01  0.38372187088E+02 -0.46644263753E+03  0.46806976503E+03  0.00000000000E+00 0.  1.
         12    1    3    3    0    0  0.16513574712E+02  0.39315036887E+02 -0.30263664493E+04  0.30266668558E+04  0.00000000000E+00 0. -1.
         13    1    5    5    0    0 -0.22959583938E+02  0.15743362354E+02  0.47460191740E+02  0.55022411369E+02  0.00000000000E+00 0. -1.
        -14    1    5    5    0    0  0.59679775863E+02 -0.15730026133E+02  0.86232968392E+02  0.10604354863E+03  0.00000000000E+00 0.  1.
          5    1    4    4  501    0 -0.66759318739E+02 -0.53469057516E+02 -0.51379581567E+02  0.99865312056E+02  0.41800000000E+01 0.  1.
         -5    1    4    4    0  501  0.65868141086E+01 -0.24231502681E+02 -0.17487812239E+03  0.17672119831E+03  0.41800000000E+01 0.  1.
</event>
<event>
11    1  0.8328696E-009  0.1318620E+03  0.7561462E-02  0.1117002E+00
         22   -1    0    0    0    0  0.00000000000E+00  0.00000000000E+00  0.47202055307E+03  0.47202055307E+03  0.00000000000E+00 0.  1.
         22   -1    0    0    0    0 -0.00000000000E+00 -0.00000000000E+00 -0.35072385409E+03  0.35072385409E+03  0.00000000000E+00 0.  1.
         24    2    1    2    0    0 -0.96735400510E+01  0.39668970162E+02 -0.30962554558E+03  0.32263964208E+03  0.81000960437E+02 0.  0.
         25    2    1    2    0    0 -0.13112932377E+02 -0.72801582265E+02  0.16522056173E+03  0.22003870583E+03  0.12508868322E+03 0.  0.
        -24    2    1    2    0    0  0.22786472428E+02  0.33132612103E+02  0.26570168283E+03  0.28006605926E+03  0.78883584979E+02 0.  0.
        -13    1    3    3    0    0 -0.19082081313E+02  0.62512321220E+02 -0.20653196820E+03  0.21662726056E+03  0.00000000000E+00 0.  1.
         14    1    3    3    0    0  0.94085412618E+01 -0.22843351058E+02 -0.10309357738E+03  0.10601238151E+03  0.00000000000E+00 0. -1.
         11    1    5    5    0    0  0.12559168545E+02  0.28842838014E+02  0.28026475811E+02  0.42132236655E+02  0.00000000000E+00 0. -1.
        -12    1    5    5    0    0  0.10227303883E+02  0.42897740890E+01  0.23767520702E+03  0.23793382261E+03  0.00000000000E+00 0.  1.
          5    1    4    4  501    0  0.24622141554E+00 -0.94063174373E+02  0.59692187612E+02  0.11148350129E+03  0.41800000000E+01 0.  1.
         -5    1    4    4    0  501 -0.13359153792E+02  0.21261592108E+02  0.10552837411E+03  0.10855520454E+03  0.41800000000E+01 0.  1.
</event>
<event>
11    1  0.8328696E-009  0.1505533E+03  0.7561462E-02  0.1096315E+00
         22   -1    0    0    0    0  0.00000000000E+00  0.00000000000E+00  0.62546301027E+03  0.62546301027E+03  0.00000000000E+00 0. -1.
         22   -1    0    0    0    0 -0.00000000000E+00 -0.00000000000E+00 -0.34084029591E+03  0.34084029591E+03  0.00000000000E+00 0.  1.
        -24    2    1    2    0    0 -0.55061043251E+02 -0.60533849790E+02 -0.19736977242E+03  0.22858850189E+03  0.81251527234E+02 0.  0.
         25    2    1    2    0    0  0.19044111483E+02  0.99610715075E+02 -0.71107617443E+02  0.17603310530E+03  0.12508552339E+03 0.  0.
         24    2    1    2    0    0  0.36016931768E+02 -0.39076865286E+02  0.55310010422E+03  0.56168169898E+03  0.82112026585E+02 0.  0.
        -13    1    5    5    0    0 -0.19662795032E+02 -0.19216594323E+02  0.73893811144E+02  0.78842871151E+02  0.00000000000E+00 0.  1.
         14    1    5    5    0    0  0.55679726800E+02 -0.19860270963E+02  0.47920629308E+03  0.48283882783E+03  0.00000000000E+00 0. -1.
         13    1    3    3    0    0 -0.50504006643E+02 -0.73468205189E+01 -0.14536030092E+03  0.15405923388E+03  0.00000000000E+00 0. -1.
        -14    1    3    3    0    0 -0.45570366085E+01 -0.53187029271E+02 -0.52009471497E+02  0.74529268014E+02  0.00000000000E+00 0.  1.
          5    1    4    4  501    0  0.35758425905E+02 -0.15797297670E+02 -0.38146812409E+02  0.54780209327E+02  0.41800000000E+01 0. -1.
         -5    1    4    4    0  501 -0.16714314422E+02  0.11540801275E+03 -0.32960805034E+02  0.12125289597E+03  0.41800000000E+01 0. -1.
</event>
<event>
11    1  0.8328696E-009  0.2242914E+03  0.7561462E-02  0.1038562E+00
         22   -1    0    0    0    0  0.00000000000E+00  0.00000000000E+00  0.70234674154E+03  0.70234674154E+03  0.00000000000E+00 0.  1.
         22   -1    0    0    0    0 -0.00000000000E+00 -0.00000000000E+00 -0.10439429651E+04  0.10439429651E+04  0.00000000000E+00 0. -1.
        -24    2    1    2    0    0  0.37641621485E+02  0.18100267164E+03 -0.93314925559E+03  0.95461160735E+03  0.79604829479E+02 0.  0.
         25    2    1    2    0    0 -0.41686154459E+02 -0.19962519484E+03  0.52595124594E+02  0.24496185879E+03  0.12510839797E+03 0.  0.
         24    2    1    2    0    0  0.40445329739E+01  0.18622523193E+02  0.53895790746E+03  0.54671624048E+03  0.89776750736E+02 0.  0.
        -11    1    5    5    0    0 -0.91846725577E+01  0.11029104687E+02  0.52735730204E+03  0.52755257878E+03  0.00000000000E+00 0.  1.
         12    1    5    5    0    0  0.13229205532E+02  0.75934185063E+01  0.11600605415E+02  0.19163661696E+02  0.00000000000E+00 0. -1.
         11    1    3    3    0    0  0.47916349555E+02  0.14080437370E+03 -0.83355341573E+03  0.84671904732E+03  0.00000000000E+00 0. -1.
        -12    1    3    3    0    0 -0.10274728070E+02  0.40198297947E+02 -0.99595839852E+02  0.10789256003E+03  0.00000000000E+00 0.  1.
          5    1    4    4  501    0  0.12973216971E+02 -0.22390815086E+02 -0.31747501392E+02  0.41170732365E+02  0.41800000000E+01 0. -1.
         -5    1    4    4    0  501 -0.54659371430E+02 -0.17723437975E+03  0.84342625986E+02  0.20379112642E+03  0.41800000000E+01 0. -1.
</event>
<event>
11    1  0.8328696E-009  0.1653913E+03  0.7561462E-02  0.1082113E+00
         22   -1    0    0    0    0  0.00000000000E+00  0.00000000000E+00  0.16449406660E+04  0.16449406660E+04  0.00000000000E+00 0. -1.
         22   -1    0    0    0    0 -0.00000000000E+00 -0.00000000000E+00 -0.15018559840E+03  0.15018559840E+03  0.00000000000E+00 0.  1.
        -24    2    1    2    0    0 -0.10401489832E+03  0.16442239494E+02 -0.97016605131E+02  0.16624156823E+03  0.84466508297E+02 0.  0.
         25    2    1    2    0    0  0.18178201185E+03 -0.47407780537E+02  0.93015608152E+03  0.95714689191E+03  0.12509052408E+03 0.  0.
         24    2    1    2    0    0 -0.77767113527E+02  0.30965541044E+02  0.66161559121E+03  0.67173780426E+03  0.80559906057E+02 0.  0.
        -11    1    5    5    0    0  0.11299973874E+02 -0.74510023105E+01  0.32771904006E+02  0.35457080212E+02  0.00000000000E+00 0.  1.
         12    1    5    5    0    0 -0.89067087401E+02  0.38416543354E+02  0.62884368720E+03  0.63628072405E+03  0.00000000000E+00 0. -1.
         11    1    3    3    0    0  0.10863061716E+02 -0.11555654424E+02 -0.57326691073E+01  0.16864244843E+02  0.00000000000E+00 0. -1.
        -12    1    3    3    0    0 -0.11487796004E+03  0.27997893918E+02 -0.91283936023E+02  0.14937732338E+03  0.00000000000E+00 0.  1.
          5    1    4    4  501    0  0.72082021183E+01 -0.40566454841E+02  0.90904485530E+02  0.99893409821E+02  0.41800000000E+01 0. -1.
         -5    1    4    4    0  501  0.17457380973E+03 -0.68413256962E+01  0.83925159599E+03  0.85725348209E+03  0.41800000000E+01 0. -1.
</event>
<event>
11    1  0.8328696E-009  0.1357760E+03  0.7561462E-02  0.1112369E+00
         22   -1    0    0    0    0  0.00000000000E+00  0.00000000000E+00  0.10820786138E+04  0.10820786138E+04  0.00000000000E+00 0.  1.
         22   -1    0    0    0    0 -0.00000000000E+00 -0.00000000000E+00 -0.16799707287E+04  0.16799707287E+04  0.00000000000E+00 0. -1.
        -24    2    1    2    0    0  0.44288542740E+02  0.24201933177E+02 -0.16478038969E+04  0.16504768720E+04  0.79177104643E+02 0.  0.
         25    2    1    2    0    0  0.11822357767E+02 -0.15950468822E+02  0.11368234254E+03  0.17019657643E+03  0.12509601922E+03 0.  0.
         24    2    1    2    0    0 -0.56110900507E+02 -0.82514643547E+01  0.93622943948E+03  0.94137589406E+03  0.80290041418E+02 0.  0.
        -11    1    5    5    0    0  0.18346461639E+02 -0.14148233303E+02  0.18589750517E+03  0.18733565488E+03  0.00000000000E+00 0.  1.
         12    1    5    5    0    0 -0.74457362145E+02  0.58967689481E+01  0.75033193431E+03  0.75404023919E+03  0.00000000000E+00 0. -1.
         11    1    3    3    0    0  0.64873489510E+02  0.31418140464E+02 -0.12674722570E+04  0.12695202209E+04  0.00000000000E+00 0. -1.
        -12    1    3    3    0    0 -0.20584946770E+02 -0.72162072874E+01 -0.38033163991E+03  0.38095665108E+03  0.00000000000E+00 0.  1.
          5    1    4    4  501    0  0.50656498564E+02 -0.35627832119E+01  0.17318783615E+01  0.50982801743E+02  0.41800000000E+01 0. -1.
         -5    1    4    4    0  501 -0.38834140797E+02 -0.12387685610E+02  0.11195046418E+03  0.11921377469E+03  0.41800000000E+01 0. -1.
</event>
<event>
11    1  0.8328696E-009  0.1935347E+03  0.7561462E-02  0.1059192E+00
         22   -1    0    0    0    0  0.00000000000E+00  0.00000000000E+00  0.15290770838E+03  0.15290770838E+03  0.00000000000E+00 0.  1.
         22   -1    0    0    0    0 -0.00000000000E+00 -0.00000000000E+00 -0.38160175166E+04  0.38160175166E+04  0.00000000000E+00 0. -1.
         24    2    1    2    0    0  0.40600332502E+02  0.52413956364E+02 -0.35028849629E+04  0.35044533496E+04  0.81207184606E+02 0.  0.
         25    2    1    2    0    0 -0.52832111365E+02  0.10469860691E+03 -0.21775374425E+03  0.27715886284E+03  0.12508921551E+03 0.  0.
        -24    2    1    2    0    0  0.12231778863E+02 -0.15711256328E+03  0.57528898927E+02  0.18731301247E+03  0.83322364799E+02 0.  0.
        -11    1    3    3    0    0  0.46746142513E+01  0.38619742320E+02 -0.57452055838E+03  0.57583609518E+03  0.00000000000E+00 0.  1.
         12    1    3    3    0    0  0.35925718251E+02  0.13794214044E+02 -0.29283644045E+04  0.29286172545E+04  0.00000000000E+00 0. -1.
         11    1    5    5    0    0  0.71957781878E+01 -0.53313974480E+02 -0.20278056597E+02  0.57492248851E+02  0.00000000000E+00 0. -1.
        -12    1    5    5    0    0  0.50360006748E+01 -0.10379858880E+03  0.77806955524E+02  0.12982076362E+03  0.00000000000E+00 0.  1.
          5    1    4    4  501    0 -0.11598721384E+02  0.10591195234E+02  0.15366151769E+02  0.22367270160E+02  0.41800000000E+01 0.  1.
         -5    1    4    4    0  501 -0.41233389981E+02  0.94107411680E+02 -0.23311989602E+03  0.25479159268E+03  0.41800000000E+01 0.  1.
</event>
<event>
11    1  0.8328696E-009  0.1328287E+03  0.7561462E-02  0.1115841E+00
         22   -1    0    0    0    0  0.00000000000E+00  0.00000000000E+00  0.11029407380E+04  0.11029407380E+04  0.00000000000E+00 0. -1.
         22   -1    0    0    0    0 -0.00000000000E+00 -0.00000000000E+00 -0.12933243852E+03  0.12933243852E+03  0.00000000000E+00 0. -1.
         24    2    1    2    0    0 -0.10971105760E+02  0.11262070094E+02 -0.63594428048E+02  0.10317224525E+03  0.79706094664E+02 0.  0.
         25    2    1    2    0    0 -0.34077403638E+02 -0.70560496836E+01  0.52518016409E+02  0.14005860192E+03  0.12508881904E+03 0.  0.
        -24    2    1    2    0    0  0.45048509398E+02 -0.42060204107E+01  0.98468471110E+03  0.98904232932E+03  0.80954864639E+02 0.  0.
        -11    1    3    3    0    0 -0.45243976495E+02  0.29744920523E+01 -0.29300878300E+02  0.53985243180E+02  0.00000000000E+00 0.  1.
         12    1    3    3    0    0  0.34272870735E+02  0.82875780420E+01 -0.34293549748E+02  0.49187002069E+02  0.00000000000E+00 0. -1.
         11    1    5    5    0    0 -0.15989294243E+02  0.20042434668E+02  0.20519719009E+03  0.20679275505E+03  0.00000000000E+00 0. -1.
        -12    1    5    5    0    0  0.61037803641E+02 -0.24248455078E+02  0.77948752101E+03  0.78224957428E+03  0.00000000000E+00 0.  1.
          5    1    4    4  501    0 -0.72202788668E+02  0.21067116619E+02  0.94930738944E+01  0.75925337971E+02  0.41800000000E+01 0. -1.
         -5    1    4    4    0  501  0.38125385030E+02 -0.28123166303E+02  0.43024942514E+02  0.64133263950E+02  0.41800000000E+01 0. -1.
</event>
<event>
11    1  0.8328696E-009  0.1455613E+03  0.7561462E-02  0.1101502E+00
         22   -1    0    0    0    0  0.00000000000E+00  0.00000000000E+00  0.18158680861E+04  0.18158680861E+04  0.00000000000E+00 0.  1.
         22   -1    0    0    0    0 -0.00000000000E+00 -0.00000000000E+00 -0.16878912792E+03  0.16878912792E+03  0.00000000000E+00 0. -1.
        -24    2    1    2    0    0 -0.42571855176E+02 -0.64089482196E+02 -0.13808200372E+03  0.17777291353E+03  0.81343373744E+02 0.  0.
         25    2    1    2    0    0  0.23688131932E+02  0.44980530842E+01  0.44642412556E+03  0.46424505378E+03  0.12509040732E+03 0.  0.
         24    2    1    2    0    0  0.18883723244E+02  0.59591429112E+02  0.13387368363E+04  0.13426392467E+04  0.80969725331E+02 0.  0.
        -11    1    5    5    0    0  0.22781842932E+02 -0.14334001076E+02  0.46158988781E+03  0.46237398335E+03  0.00000000000E+00 0.  1.
         12    1    5    5    0    0 -0.38981196877E+01  0.73925430188E+02  0.87714694853E+03  0.88026526336E+03  0.00000000000E+00 0. -1.
         13    1    3    3    0    0 -0.34051848869E+02 -0.47698650027E+02 -0.14626439790E+03  0.15756891736E+03  0.00000000000E+00 0. -1.
        -14    1    3    3    0    0 -0.85200063076E+01 -0.16390832169E+02  0.81823941785E+01  0.20203996168E+02  0.00000000000E+00 0.  1.
          5    1    4    4  501    0  0.56353436244E+01  0.53840240921E+02  0.99591678444E+02  0.11343061075E+03  0.41800000000E+01 0. -1.
         -5    1    4    4    0  501  0.18052788308E+02 -0.49342187837E+02  0.34683244711E+03  0.35081444303E+03  0.41800000000E+01 0. -1.
</event>
<event>
11    1  0.8328696E-009  0.1408900E+03  0.7561462E-02  0.1106569E+00
         22   -1    0    0    0    0  0.00000000000E+00  0.00000000000E+00  0.19334550870E+03  0.19334550870E+03  0.00000000000E+00 0.  1.
         22   -1    0    0    0    0 -0.00000000000E+00 -0.00000000000E+00 -0.85843546843E+03  0.85843546843E+03  0.00000000000E+00 0.  1.
         24    2    1    2    0    0 -0.29273030294E+02  0.24974184831E+02 -0.63862019931E+03  0.64485125932E+03  0.80726497964E+02 0.  0.
         25    2    1    2    0    0  0.17363931315E+02 -0.87207555050E+02 -0.17108498386E+03  0.22983225598E+03  0.12508449311E+03 0.  0.
        -24    2    1    2    0    0  0.11909098979E+02  0.62233370220E+02  0.14461522344E+03  0.17709746183E+03  0.80219256596E+02 0.  0.
        -13    1    3    3    0    0 -0.11542945395E+02  0.21560162079E+02 -0.61311110787E+03  0.61359865611E+03  0.00000000000E+00 0.  1.
         14    1    3    3    0    0 -0.17730084900E+02  0.34140227521E+01 -0.25509091433E+02  0.31252603214E+02  0.00000000000E+00 0. -1.
         13    1    5    5    0    0  0.38217585081E+02  0.64210148773E+02  0.94611668472E+02  0.12056075160E+03  0.00000000000E+00 0. -1.
        -14    1    5    5    0    0 -0.26308486102E+02 -0.19767785537E+01  0.50003554971E+02  0.56536710234E+02  0.00000000000E+00 0.  1.
          5    1    4    4  501    0  0.12110697980E+02 -0.50703012615E+02 -0.18341202761E+03  0.19072207205E+03  0.41800000000E+01 0. -1.
         -5    1    4    4    0  501  0.52532333358E+01 -0.36504542436E+02  0.12327043756E+02  0.39110183925E+02  0.41800000000E+01 0. -1.
</event>
<event>
11    1  0.8328696E-009  0.1377848E+03  0.7561462E-02  0.1110058E+00
         22   -1    0    0    0    0  0.00000000000E+00  0.00000000000E+00  0.56157500184E+02  0.56157500184E+02  0.00000000000E+00 0. -1.
         22   -1    0    0    0    0 -0.00000000000E+00 -0.00000000000E+00 -0.20419945442E+04  0.20419945442E+04  0.00000000000E+00 0. -1.
        -24    2    1    2    0    0 -0.98593752811E+01 -0.56056808959E+02 -0.12418097237E+04  0.12457470699E+04  0.80961714646E+02 0.  0.
         25    2    1    2    0    0  0.11786350875E+02  0.59343616943E+02 -0.75853584220E+03  0.77115809884E+03  0.12509039356E+03 0.  0.
         24    2    1    2    0    0 -0.19269755941E+01 -0.32868079843E+01  0.14508521869E+02  0.81246875637E+02  0.79850117422E+02 0.  0.
        -13    1    5    5    0    0 -0.34992404060E+02 -0.58824054729E+01 -0.13370683467E+02  0.37918942659E+02  0.00000000000E+00 0.  1.
         14    1    5    5    0    0  0.33065428466E+02  0.25955974886E+01  0.27879205336E+02  0.43327932978E+02  0.00000000000E+00 0. -1.
         13    1    3    3    0    0 -0.58359095264E+01 -0.73395771818E+02 -0.11413717838E+04  0.11437440912E+04  0.00000000000E+00 0. -1.
        -14    1    3    3    0    0 -0.40234657547E+01  0.17338962859E+02 -0.10043793987E+03  0.10200297876E+03  0.00000000000E+00 0.  1.
          5    1    4    4  501    0  0.16192604730E+02  0.98205942028E+02 -0.54437574943E+03  0.55341578986E+03  0.41800000000E+01 0. -1.
         -5    1    4    4    0  501 -0.44062538551E+01 -0.38862325085E+02 -0.21416009277E+03  0.21774230898E+03  0.41800000000E+01 0. -1.
</event>
<event>
11    1  0.8328696E-009  0.1578753E+03  0.7561462E-02  0.1089093E+00
         22   -1    0    0    0    0  0.00000000000E+00  0.00000000000E+00  0.12443093457E+04  0.12443093457E+04  0.00000000000E+00 0.  1.
         22   -1    0    0    0    0 -0.00000000000E+00 -0.00000000000E+00 -0.36992749481E+03  0.36992749481E+03  0.00000000000E+00 0.  1.
         24    2    1    2    0    0 -0.50253232127E+02  0.55431059572E+02 -0.32884746849E+03  0.34640694670E+03  0.79114635113E+02 0.  0.
         25    2    1    2    0    0  0.28880827683E+02 -0.14362367746E+03  0.30016100616E+03  0.35665515310E+03  0.12507759862E+03 0.  0.
        -24    2    1    2    0    0  0.21372404443E+02  0.88192617892E+02  0.90306831320E+03  0.91117474068E+03  0.80450681989E+02 0.  0.
        -11    1    3    3    0    0 -0.66185067070E+02  0.54035332192E+02 -0.31062514209E+03  0.32216185238E+03  0.00000000000E+00 0.  1.
         12    1    3    3    0    0  0.15931834943E+02  0.13957273798E+01 -0.18222326397E+02  0.24245094326E+02  0.00000000000E+00 0. -1.
         13    1    5    5    0    0  0.18606830655E+01 -0.59300863737E+01  0.49997315385E+01  0.79765519698E+01  0.00000000000E+00 0. -1.
        -14    1    5    5    0    0  0.19511721378E+02  0.94122704266E+02  0.89806858166E+03  0.90319818871E+03  0.00000000000E+00 0.  1.
          5    1    4    4  501    0 -0.43702513262E+02 -0.38655216130E+02  0.14067315454E+03  0.15235007124E+03  0.41800000000E+01 0. -1.
         -5    1    4    4    0  501  0.72583340945E+02 -0.10496846133E+03  0.15948785163E+03  0.20430508186E+03  0.41800000000E+01 0. -1.
</event>
<event>
11    1  0.8328696E-009  0.4475919E+03  0.7561462E-02  0.9518913E-01
         22   -1    0    0    0    0  0.00000000000E+00  0.00000000000E+00  0.10956936385E+04  0.10956936385E+04  0.00000000000E+00 0. -1.
         22   -1    0    0    0    0 -0.00000000000E+00 -0.00000000000E+00 -0.45808998476E+03  0.45808998476E+03  0.00000000000E+00 0. -1.
        -24    2    1    2    0    0 -0.44648317142E+03 -0.12080942813E+03 -0.16665265834E+03  0.49827834088E+03  0.81031204958E+02 0.  0.
         25    2    1    2    0    0  0.72600188219E+02  0.20868330888E+03  0.15713061656E+03  0.29859266022E+03  0.12509210745E+03 0.  0.
         24    2    1    2    0    0  0.37388298320E+03 -0.87873880749E+02  0.64712569554E+03  0.75691262216E+03  0.81453960699E+02 0.  0.
        -11    1    5    5    0    0  0.30253751212E+02 -0.16018161960E+02  0.11027850923E+03  0.11546956557E+03  0.00000000000E+00 0.  1.
         12    1    5    5    0    0  0.34362923199E+03 -0.71855718788E+02  0.53684718631E+03  0.64144305659E+03  0.00000000000E+00 0. -1.
         11    1    3    3    0    0 -0.43103375562E+03 -0.12158143161E+03 -0.17484614498E+03  0.48077366547E+03  0.00000000000E+00 0. -1.
        -12    1    3    3    0    0 -0.15449415805E+02  0.77200347828E+00  0.81934866439E+01  0.17504675418E+02  0.00000000000E+00 0.  1.
          5    1    4    4  501    0 -0.11288893709E+02  0.88719149157E+02  0.11589950690E+03  0.14645372869E+03  0.41800000000E+01 0.  1.
         -5    1    4    4    0  501  0.83889081928E+02  0.11996415972E+03  0.41231109656E+02  0.15213893153E+03  0.41800000000E+01 0.  1.
</event>
<event>
11    1  0.8328696E-009  0.1458336E+03  0.7561462E-02  0.1101214E+00
         22   -1    0    0    0    0  0.00000000000E+00  0.00000000000E+00  0.13723307739E+04  0.13723307739E+04  0.00000000000E+00 0. -1.
         22   -1    0    0    0    0 -0.00000000000E+00 -0.00000000000E+00 -0.12475599544E+04  0.12475599544E+04  0.00000000000E+00 0. -1.
        -24    2    1    2    0    0 -0.49408973799E+02 -0.53527857513E+02 -0.11129577470E+04  0.11179552497E+04  0.76436348306E+02 0.  0.
         25    2    1    2    0    0  0.11413395826E+03  0.71436005388E+02 -0.65032781104E+02  0.19495069435E+03  0.12508735874E+03 0.  0.
         24    2    1    2    0    0 -0.64724984459E+02 -0.17908147875E+02  0.13027613477E+04  0.13069847842E+04  0.80697409190E+02 0.  0.
        -11    1    5    5    0    0 -0.41218192564E+01 -0.19061630224E+02  0.68127017616E+02  0.70863429709E+02  0.00000000000E+00 0.  1.
         12    1    5    5    0    0 -0.60603165203E+02  0.11534823495E+01  0.12346343301E+04  0.12361213545E+04  0.00000000000E+00 0. -1.
         11    1    3    3    0    0 -0.56886883126E+02 -0.56690977556E+02 -0.10980223839E+04  0.11009555576E+04  0.00000000000E+00 0. -1.
        -12    1    3    3    0    0  0.74779093268E+01  0.31631200438E+01 -0.14935363198E+02  0.16999692061E+02  0.00000000000E+00 0.  1.
          5    1    4    4  501    0  0.33086145406E+01  0.39318618375E+02 -0.68807179578E+02  0.79427961340E+02  0.41800000000E+01 0. -1.
         -5    1    4    4    0  501  0.11082534372E+03  0.32117387013E+02  0.37743984749E+01  0.11552273301E+03  0.41800000000E+01 0. -1.
</event>
<event>
11    1  0.8328696E-009  0.1868578E+03  0.7561462E-02  0.1064227E+00
         22   -1    0    0    0    0  0.00000000000E+00  0.00000000000E+00  0.93064992456E+03  0.93064992456E+03  0.00000000000E+00 0.  1.
         22   -1    0    0    0    0 -0.00000000000E+00 -0.00000000000E+00 -0.22673441646E+03  0.22673441646E+03  0.00000000000E+00 0. -1.
         24    2    1    2    0    0 -0.23631009309E+02 -0.37164297405E+02 -0.16842266913E+03  0.19256215938E+03  0.82306622733E+02 0.  0.
         25    2    1    2    0    0  0.15337400556E+03 -0.42660113634E+01  0.23082398091E+03  0.30408793054E+03  0.12509186585E+03 0.  0.
        -24    2    1    2    0    0 -0.12974299625E+03  0.41430308769E+02  0.64151419633E+03  0.66073425110E+03  0.80495782041E+02 0.  0.
        -11    1    3    3    0    0 -0.92564204405E+01 -0.44334520080E+02 -0.32625137125E+02  0.55817833732E+02  0.00000000000E+00 0.  1.
         12    1    3    3    0    0 -0.14374588868E+02  0.71702226747E+01 -0.13579753201E+03  0.13674432565E+03  0.00000000000E+00 0. -1.
         13    1    5    5    0    0 -0.31490746140E+01 -0.17869480327E+02  0.62263760181E+02  0.64853764964E+02  0.00000000000E+00 0. -1.
        -14    1    5    5    0    0 -0.12659392164E+03  0.59299789096E+02  0.57925043615E+03  0.59588048614E+03  0.00000000000E+00 0.  1.
          5    1    4    4  501    0 -0.13910243814E+02  0.20614750450E+02  0.52730488695E+02  0.58450317853E+02  0.41800000000E+01 0.  1.
         -5    1    4    4    0  501  0.16728424937E+03 -0.24880761813E+02  0.17809349221E+03  0.24563761268E+03  0.41800000000E+01 0.  1.
</event>
<event>
11    1  0.8328696E-009  0.1631326E+03  0.7561462E-02  0.1084167E+00
         22   -1    0    0    0    0  0.00000000000E+00  0.00000000000E+00  0.12532250908E+04  0.12532250908E+04  0.00000000000E+00 0.  1.
         22   -1    0    0    0    0 -0.00000000000E+00 -0.00000000000E+00 -0.11862661862E+04  0.11862661862E+04  0.00000000000E+00 0.  1.
         24    2    1    2    0    0 -0.95146484527E+02  0.42698431934E+02 -0.11406410894E+04  0.11482106926E+04  0.80309963731E+02 0.  0.
         25    2    1    2    0    0  0.12110784236E+03 -0.39816335982E+02  0.15909906729E+03  0.23919324448E+03  0.12509374445E+03 0.  0.
        -24    2    1    2    0    0 -0.25961357829E+02 -0.28820959514E+01  0.10485009267E+04  0.10520873399E+04  0.82772452580E+02 0.  0.
        -11    1    3    3    0    0 -0.70352866403E+02  0.28283647163E+02 -0.10583960271E+04  0.10611086847E+04  0.00000000000E+00 0.  1.
         12    1    3    3    0    0 -0.24793618124E+02  0.14414784771E+02 -0.82245062221E+02  0.87102007896E+02  0.00000000000E+00 0. -1.
         13    1    5    5    0    0 -0.14774765819E+02  0.14453618360E+02  0.61683231000E+02  0.65053991232E+02  0.00000000000E+00 0. -1.
        -14    1    5    5    0    0 -0.11186592010E+02 -0.17335714311E+02  0.98681769569E+03  0.98703334866E+03  0.00000000000E+00 0.  1.
          5    1    4    4  501    0  0.42024351027E+01 -0.59595502019E+02  0.56736013343E+02  0.82496860133E+02  0.41800000000E+01 0.  1.
         -5    1    4    4    0  501  0.11690540725E+03  0.19779166037E+02  0.10236305395E+03  0.15669638435E+03  0.41800000000E+01 0.  1.
</event>
<event>
11    1  0.8328696E-009  0.1419098E+03  0.7561462E-02  0.1105444E+00
         22   -1    0    0    0    0  0.00000000000E+00  0.00000000000E+00  0.14845824694E+03  0.14845824694E+03  0.00000000000E+00 0. -1.
         22   -1    0    0    0    0 -0.00000000000E+00 -0.00000000000E+00 -0.21124031657E+04  0.21124031657E+04  0.00000000000E+00 0. -1.
         24    2    1    2    0    0 -0.32056535906E+01 -0.21075684431E+01 -0.13595652171E+04  0.13619444780E+04  0.80377009485E+02 0.  0.
         25    2    1    2    0    0 -0.63104218506E+02  0.12250384735E+02 -0.72535952314E+03  0.73886878563E+03  0.12509368588E+03 0.  0.
        -24    2    1    2    0    0  0.66309872097E+02 -0.10142816292E+02  0.12097982148E+03  0.16004814898E+03  0.80494825464E+02 0.  0.
        -13    1    3    3    0    0  0.10710301236E+02 -0.23000138962E+02 -0.15085988903E+03  0.15297850523E+03  0.00000000000E+00 0.  1.
         14    1    3    3    0    0 -0.13915954826E+02  0.20892570519E+02 -0.12087053280E+04  0.12089659728E+04  0.00000000000E+00 0. -1.
         13    1    5    5    0    0  0.44579117026E+02  0.19494788965E+02  0.11215291132E+03  0.12225228010E+03  0.00000000000E+00 0. -1.
        -14    1    5    5    0    0  0.21730755071E+02 -0.29637605256E+02  0.88269101557E+01  0.37795868877E+02  0.00000000000E+00 0.  1.
          5    1    4    4  501    0 -0.48640161297E+02  0.60040152848E+02 -0.27339897022E+03  0.28413932245E+03  0.41800000000E+01 0.  1.
         -5    1    4    4    0  501 -0.14464057210E+02 -0.47789768113E+02 -0.45196055292E+03  0.45472946318E+03  0.41800000000E+01 0.  1.
</event>
<event>
11    1  0.8328696E-009  0.1390002E+03  0.7561462E-02  0.1108680E+00
         22   -1    0    0    0    0  0.00000000000E+00  0.00000000000E+00  0.69404299392E+02  0.69404299392E+02  0.00000000000E+00 0. -1.
         22   -1    0    0    0    0 -0.00000000000E+00 -0.00000000000E+00 -0.12258967380E+04  0.12258967380E+04  0.00000000000E+00 0.  1.
         24    2    1    2    0    0  0.43875730984E+02 -0.28994283890E+02 -0.62962176979E+03  0.63659458909E+03  0.77867513118E+02 0.  0.
         25    2    1    2    0    0 -0.52362220721E+02  0.71155314630E+02 -0.54639861258E+03  0.56745366410E+03  0.12508931256E+03 0.  0.
        -24    2    1    2    0    0  0.84864897375E+01 -0.42161030740E+02  0.19527943760E+02  0.91252784199E+02  0.78077890695E+02 0.  0.
        -11    1    3    3    0    0  0.64557429495E+02 -0.11886095520E+02 -0.39151335013E+03  0.39697814084E+03  0.00000000000E+00 0.  1.
         12    1    3    3    0    0 -0.20681698512E+02 -0.17108188371E+02 -0.23810841966E+03  0.23961644826E+03  0.00000000000E+00 0. -1.
         11    1    5    5    0    0 -0.39987706394E+01 -0.32672099032E+02  0.48320591338E+02  0.58466535463E+02  0.00000000000E+00 0. -1.
        -12    1    5    5    0    0  0.12485260377E+02 -0.94889317078E+01 -0.28792647578E+02  0.32786248736E+02  0.00000000000E+00 0.  1.
          5    1    4    4  501    0 -0.91055282961E+02  0.28884256567E+02 -0.33326732804E+03  0.34671306461E+03  0.41800000000E+01 0. -1.
         -5    1    4    4    0  501  0.38693062240E+02  0.42271058063E+02 -0.21313128453E+03  0.22074059949E+03  0.41800000000E+01 0. -1.
</event>
<event>
11    1  0.8328696E-009  0.1433349E+03  0.7561462E-02  0.1103891E+00
         22   -1    0    0    0    0  0.00000000000E+00  0.00000000000E+00  0.53560992235E+03  0.53560992235E+03  0.00000000000E+00 0. -1.
         22   -1    0    0    0    0 -0.00000000000E+00 -0.00000000000E+00 -0.19744945460E+03  0.19744945460E+03  0.00000000000E+00 0.  1.
         24    2    1    2    0    0  0.58401446823E+02  0.39309819151E+02 -0.14334422820E+03  0.17892947260E+03  0.80698187926E+02 0.  0.
         25    2    1    2    0    0 -0.18097335286E+02 -0.85849174744E+02  0.18126624403E+03  0.23707147202E+03  0.12509131574E+03 0.  0.
        -24    2    1    2    0    0 -0.40304111537E+02  0.46539355593E+02  0.30023845192E+03  0.31705843233E+03  0.81194756456E+02 0.  0.
        -11    1    3    3    0    0 -0.75108593063E+01  0.20453720975E+02 -0.88477275473E+02  0.91120776908E+02  0.00000000000E+00 0.  1.
         12    1    3    3    0    0  0.65912306129E+02  0.18856098176E+02 -0.54866952723E+02  0.87808695690E+02  0.00000000000E+00 0. -1.
         11    1    5    5    0    0  0.70004333336E+01 -0.19453175279E+02  0.63890084841E+02  0.67151880363E+02  0.00000000000E+00 0. -1.
        -12    1    5    5    0    0 -0.47304544870E+02  0.65992530872E+02  0.23634836708E+03  0.24990655197E+03  0.00000000000E+00 0.  1.
          5    1    4    4  501    0 -0.44282037379E+02  0.33971967976E+01  0.16011348685E+02  0.47394888619E+02  0.41800000000E+01 0.  1.
         -5    1    4    4    0  501  0.26184702093E+02 -0.89246371541E+02  0.16525489534E+03  0.18967658340E+03  0.41800000000E+01 0.  1.
</event>
<event>
11    1  0.8328696E-009  0.1373134E+03  0.7561462E-02  0.1110596E+00
         22   -1    0    0    0    0  0.00000000000E+00  0.00000000000E+00  0.23214718683E+03  0.23214718683E+03  0.00000000000E+00 0. -1.
         22   -1    0    0    0    0 -0.00000000000E+00 -0.00000000000E+00 -0.23337051658E+04  0.23337051658E+04  0.00000000000E+00 0.  1.
         24    2    1    2    0    0  0.19115690575E+01 -0.57281573360E+02 -0.21395420837E+04  0.21418773878E+04  0.81936462423E+02 0.  0.
         25    2    1    2    0    0 -0.14985097743E+02  0.40874355369E+02 -0.15685811307E+03  0.20531214274E+03  0.12511331760E+03 0.  0.
        -24    2    1    2    0    0  0.13073528686E+02  0.16407217991E+02  0.19484221782E+03  0.21866282202E+03  0.97004257304E+02 0.  0.
        -13    1    3    3    0    0 -0.17705665263E+02 -0.36608415710E+02 -0.19274695320E+04  0.19278984577E+04  0.00000000000E+00 0.  1.
         14    1    3    3    0    0  0.19617234320E+02 -0.20673157650E+02 -0.21207255174E+03  0.21397893011E+03  0.00000000000E+00 0. -1.
         13    1    5    5    0    0  0.28706260574E+02  0.19153518664E+02  0.19922894602E+03  0.20219564685E+03  0.00000000000E+00 0. -1.
        -14    1    5    5    0    0 -0.15632731889E+02 -0.27463006722E+01 -0.43867282028E+01  0.16467175168E+02  0.00000000000E+00 0.  1.
          5    1    4    4  501    0  0.35400673252E+02  0.66395114454E+02 -0.98093060466E+02  0.12369818027E+03  0.41800000000E+01 0. -1.
         -5    1    4    4    0  501 -0.50385770995E+02 -0.25520759085E+02 -0.58765052608E+02  0.81613962477E+02  0.41800000000E+01 0. -1.
</event>
<event>
11    1  0.8328696E-009  0.1455760E+03  0.7561462E-02  0.1101487E+00
         22   -1    0    0    0    0  0.00000000000E+00  0.00000000000E+00  0.21381714706E+03  0.21381714706E+03  0.00000000000E+00 0. -1.
         22   -1    0    0    0    0 -0.00000000000E+00 -0.00000000000E+00 -0.20899080413E+03  0.20899080413E+03  0.00000000000E+00 0.  1.
         24    2    1    2    0    0 -0.41354843135E+02 -0.57041477356E+02 -0.10217956049E+03  0.14855613082E+03  0.81635214416E+02 0.  0.
         25    2    1    2    0    0  0.35017918494E+02  0.85871037895E+02  0.29753933333E+02  0.15853503032E+03  0.12509184435E+03 0.  0.
        -24    2    1    2    0    0  0.63369246412E+01 -0.28829560540E+02  0.77251970091E+02  0.11571679005E+03  0.80939535720E+02 0.  0.
        -13    1    3    3    0    0 -0.44076600569E+02 -0.60913407666E+02 -0.38077902593E+02  0.84279989422E+02  0.00000000000E+00 0.  1.
         14    1    3    3    0    0  0.27217574338E+01  0.38719303102E+01 -0.64101657897E+02  0.64276141398E+02  0.00000000000E+00 0. -1.
         13    1    5    5    0    0  0.23987813546E+02  0.18689045557E+02  0.49043125738E+02  0.57705491980E+02  0.00000000000E+00 0. -1.
        -14    1    5    5    0    0 -0.17650888904E+02 -0.47518606096E+02  0.28208844353E+02  0.58011298074E+02  0.00000000000E+00 0.  1.
          5    1    4    4  501    0 -0.44833836400E+02  0.21729760358E+02  0.25043957194E+02  0.55918937431E+02  0.41800000000E+01 0. -1.
         -5    1    4    4    0  501  0.79851754893E+02  0.64141277537E+02  0.47099761398E+01  0.10261609288E+03  0.41800000000E+01 0. -1.
</event>
<event>
11    1  0.2009140E-008  0.2025462E+03  0.7561462E-02  0.1052738E+00
         22   -1    0    0    0    0  0.00000000000E+00  0.00000000000E+00  0.11453500093E+04  0.11453500093E+04  0.00000000000E+00 0. -1.
         22   -1    0    0    0    0 -0.00000000000E+00 -0.00000000000E+00 -0.51586913812E+03  0.51586913812E+03  0.00000000000E+00 0.  1.
         24    2    1    2    0    0 -0.12190485709E+02  0.51445640495E+02 -0.18062119432E+03  0.20514379688E+03  0.81637611991E+02 0.  0.
         25    2    1    2    0    0 -0.13499559400E+03 -0.11190788542E+03 -0.27898126532E+03  0.35245228184E+03  0.12507949215E+03 0.  0.
        -24    2    1    2    0    0  0.14718607971E+03  0.60462244921E+02  0.10890833308E+04  0.11036230687E+04  0.81005871094E+02 0.  0.
        -13    1    3    3    0    0  0.27722106249E+02  0.40018360149E+02 -0.13475247763E+03  0.14327670624E+03  0.00000000000E+00 0.  1.
         14    1    3    3    0    0 -0.39912591958E+02  0.11427280346E+02 -0.45868716691E+02  0.61867090636E+02  0.00000000000E+00 0. -1.
         11    1    5    5    0    0  0.14660887630E+03  0.39340332069E+02  0.83679655998E+03  0.85045300113E+03  0.00000000000E+00 0. -1.
        -12    1    5    5    0    0  0.57720340414E+00  0.21121912852E+02  0.25228677087E+03  0.25317006759E+03  0.00000000000E+00 0.  1.
          5    1    4    4  501    0 -0.79665637026E+02 -0.13130628438E+03 -0.22624772615E+03  0.27348393011E+03  0.41800000000E+01 0.  1.
         -5    1    4    4    0  501 -0.55329956970E+02  0.19398398966E+02 -0.52733539171E+02  0.78968351726E+02  0.41800000000E+01 0.  1.
</event>
<event>
11    1  0.8328696E-009  0.1397585E+03  0.7561462E-02  0.1107828E+00
         22   -1    0    0    0    0  0.00000000000E+00  0.00000000000E+00  0.10326349255E+04  0.10326349255E+04  0.00000000000E+00 0.  1.
         22   -1    0    0    0    0 -0.00000000000E+00 -0.00000000000E+00 -0.61597190004E+03  0.61597190004E+03  0.00000000000E+00 0.  1.
        -24    2    1    2    0    0 -0.37457818475E+02  0.50748025921E+02 -0.58603016690E+03  0.59487069154E+03  0.80382416202E+02 0.  0.
         25    2    1    2    0    0  0.23045155003E+02 -0.22840533605E+02  0.15666209247E+03  0.20308379544E+03  0.12508895879E+03 0.  0.
         24    2    1    2    0    0  0.14412663472E+02 -0.27907492316E+02  0.84603109987E+03  0.85065233855E+03  0.82790253858E+02 0.  0.
        -11    1    5    5    0    0 -0.23640893162E+02 -0.41733504812E+02  0.47846729194E+03  0.48086539354E+03  0.00000000000E+00 0.  1.
         12    1    5    5    0    0  0.38053556634E+02  0.13826012496E+02  0.36756380794E+03  0.36978694501E+03  0.00000000000E+00 0. -1.
         11    1    3    3    0    0 -0.19131548004E+02  0.11974066890E+02 -0.31864078594E+02  0.39047585221E+02  0.00000000000E+00 0. -1.
        -12    1    3    3    0    0 -0.18326270471E+02  0.38773959030E+02 -0.55416608830E+03  0.55582310632E+03  0.00000000000E+00 0.  1.
          5    1    4    4  501    0  0.60954956688E+02  0.10239503403E+02  0.34519854938E+02  0.70918593893E+02  0.41800000000E+01 0.  1.
         -5    1    4    4    0  501 -0.37909801685E+02 -0.33080037008E+02  0.12214223753E+03  0.13216520155E+03  0.41800000000E+01 0.  1.
</event>
<event>
11    1  0.8328696E-009  0.1342485E+03  0.7561462E-02  0.1114156E+00
         22   -1    0    0    0    0  0.00000000000E+00  0.00000000000E+00  0.76138694803E+03  0.76138694803E+03  0.00000000000E+00 0. -1.
         22   -1    0    0    0    0 -0.00000000000E+00 -0.00000000000E+00 -0.22114269088E+04  0.22114269088E+04  0.00000000000E+00 0. -1.
         24    2    1    2    0    0  0.87802368804E+01 -0.51864745726E+02 -0.16052125514E+04  0.16081875226E+04  0.82418009757E+02 0.  0.
         25    2    1    2    0    0  0.30133699107E+02  0.33065179762E+02 -0.59465881901E+03  0.60931699207E+03  0.12508692927E+03 0.  0.
        -24    2    1    2    0    0 -0.38913935988E+02  0.18799565965E+02  0.74983140963E+03  0.75530934213E+03  0.79858257842E+02 0.  0.
        -11    1    3    3    0    0  0.13504844322E+02 -0.21865374711E+02 -0.12263282268E+03  0.12529678619E+03  0.00000000000E+00 0.  1.
         12    1    3    3    0    0 -0.47246074421E+01 -0.29999371016E+02 -0.14825797287E+04  0.14828907364E+04  0.00000000000E+00 0. -1.
         13    1    5    5    0    0 -0.39100574380E+02 -0.18031221553E+02  0.57661868794E+03  0.57822408385E+03  0.00000000000E+00 0. -1.
        -14    1    5    5    0    0  0.18663839226E+00  0.36830787518E+02  0.17321272169E+03  0.17708525828E+03  0.00000000000E+00 0.  1.
          5    1    4    4  501    0 -0.37680673009E+01  0.48664613629E+01 -0.53480083431E+03  0.53485258301E+03  0.41800000000E+01 0. -1.
         -5    1    4    4    0  501  0.33901766408E+02  0.28198718399E+02 -0.59857984697E+02  0.74464409062E+02  0.41800000000E+01 0. -1.
</event>
<event>
11    1  0.8328696E-009  0.1977738E+03  0.7561462E-02  0.1056109E+00
         22   -1    0    0    0    0  0.00000000000E+00  0.00000000000E+00  0.13061350176E+04  0.13061350176E+04  0.00000000000E+00 0. -1.
         22   -1    0    0    0    0 -0.00000000000E+00 -0.00000000000E+00 -0.49495556174E+03  0.49495556174E+03  0.00000000000E+00 0. -1.
         24    2    1    2    0    0 -0.15349978458E+03  0.10757060886E+02 -0.39281560721E+03  0.42958336509E+03  0.80993012457E+02 0.  0.
         25    2    1    2    0    0  0.15064578244E+03  0.97776406838E+02  0.70404607832E+02  0.22990817772E+03  0.12508630570E+03 0.  0.
        -24    2    1    2    0    0  0.28540021399E+01 -0.10853346772E+03  0.11335904553E+04  0.11415990366E+04  0.80208360348E+02 0.  0.
        -11    1    3    3    0    0  0.13768592819E+01  0.68070696289E+01  0.39117311046E+00  0.69559294718E+01  0.00000000000E+00 0.  1.
         12    1    3    3    0    0 -0.15487664387E+03  0.39499912569E+01 -0.39320678032E+03  0.42262743562E+03  0.00000000000E+00 0. -1.
         13    1    5    5    0    0  0.12704717915E+02 -0.33175310992E+00  0.38042642672E+03  0.38063865551E+03  0.00000000000E+00 0. -1.
        -14    1    5    5    0    0 -0.98507157754E+01 -0.10820171461E+03  0.75316402854E+03  0.76096038106E+03  0.00000000000E+00 0.  1.
          5    1    4    4  501    0  0.65543379348E+02  0.10480847539E+03  0.77791089141E+01  0.12393037572E+03  0.41800000000E+01 0.  1.
         -5    1    4    4    0  501  0.85102403097E+02 -0.70320685572E+01  0.62625498918E+02  0.10597780200E+03  0.41800000000E+01 0.  1.
</event>
<event>
11    1  0.8328696E-009  0.1451454E+03  0.7561462E-02  0.1101945E+00
         22   -1    0    0    0    0  0.00000000000E+00  0.00000000000E+00  0.12199079915E+03  0.12199079915E+03  0.00000000000E+00 0. -1.
         22   -1    0    0    0    0 -0.00000000000E+00 -0.00000000000E+00 -0.81055143298E+03  0.81055143298E+03  0.00000000000E+00 0.  1.
        -24    2    1    2    0    0  0.75501897734E+02  0.94799187503E+01 -0.64275056594E+03  0.65451617981E+03  0.97327972332E+02 0.  0.
         25    2    1    2    0    0 -0.55780230776E+02  0.70238354890E+02 -0.53047710202E+02  0.16281014538E+03  0.12509285846E+03 0.  0.
         24    2    1    2    0    0 -0.19721666958E+02 -0.79718273640E+02  0.72376423083E+01  0.11521590694E+03  0.80488349755E+02 0.  0.
        -11    1    5    5    0    0  0.17424313974E+02 -0.22353663283E+02 -0.26676824414E+02  0.38922306463E+02  0.00000000000E+00 0.  1.
         12    1    5    5    0    0 -0.37145980932E+02 -0.57364610357E+02  0.33914466722E+02  0.76293600478E+02  0.00000000000E+00 0. -1.
         11    1    3    3    0    0  0.12727352479E+02  0.31245085643E+02 -0.67707165457E+02  0.75647214966E+02  0.00000000000E+00 0. -1.
        -12    1    3    3    0    0  0.62774545255E+02 -0.21765166893E+02 -0.57504340048E+03  0.57886896484E+03  0.00000000000E+00 0.  1.
          5    1    4    4  501    0 -0.29041596881E+02 -0.18809406253E+02  0.23725756061E+02  0.42161499186E+02  0.41800000000E+01 0. -1.
         -5    1    4    4    0  501 -0.26738633896E+02  0.89047761143E+02 -0.76773466263E+02  0.12064864620E+03  0.41800000000E+01 0. -1.
</event>
<event>
11    1  0.8328696E-009  0.2525537E+03  0.7561462E-02  0.1022548E+00
         22   -1    0    0    0    0  0.00000000000E+00  0.00000000000E+00  0.10311736957E+04  0.10311736957E+04  0.00000000000E+00 0.  1.
         22   -1    0    0    0    0 -0.00000000000E+00 -0.00000000000E+00 -0.36513066609E+03  0.36513066609E+03  0.00000000000E+00 0. -1.
         24    2    1    2    0    0  0.18957096267E+03 -0.79945112055E+02 -0.21463817036E+03  0.30797322250E+03  0.80309344213E+02 0.  0.
         25    2    1    2    0    0 -0.27450192226E+03  0.10872130544E+03  0.15966327360E+03  0.35820603627E+03  0.12509027103E+03 0.  0.
        -24    2    1    2    0    0  0.84930959583E+02 -0.28776193388E+02  0.72101792642E+03  0.73012510306E+03  0.71933849393E+02 0.  0.
        -11    1    3    3    0    0  0.40792257912E+02  0.10167304218E+02 -0.18830483496E+02  0.46064840055E+02  0.00000000000E+00 0.  1.
         12    1    3    3    0    0  0.14877870476E+03 -0.90112416273E+02 -0.19580768687E+03  0.26190838244E+03  0.00000000000E+00 0. -1.
         11    1    5    5    0    0  0.31351995812E+02  0.70435301094E+01  0.85354932157E+02  0.91203198416E+02  0.00000000000E+00 0. -1.
        -12    1    5    5    0    0  0.53578963770E+02 -0.35819723497E+02  0.63566299427E+03  0.63892190464E+03  0.00000000000E+00 0.  1.
          5    1    4    4  501    0 -0.19681197730E+03  0.44927904997E+02  0.47307032702E+02  0.20738586933E+03  0.41800000000E+01 0.  1.
         -5    1    4    4    0  501 -0.77689944960E+02  0.63793400446E+02  0.11235624089E+03  0.15082016694E+03  0.41800000000E+01 0.  1.
</event>
<event>
11    1  0.8328696E-009  0.1479638E+03  0.7561462E-02  0.1098978E+00
         22   -1    0    0    0    0  0.00000000000E+00  0.00000000000E+00  0.61701792974E+03  0.61701792974E+03  0.00000000000E+00 0. -1.
         22   -1    0    0    0    0 -0.00000000000E+00 -0.00000000000E+00 -0.81212900459E+03  0.81212900459E+03  0.00000000000E+00 0. -1.
         24    2    1    2    0    0  0.74190488632E+02  0.17414907292E+02 -0.62096543900E+03  0.63058159197E+03  0.78914891539E+02 0.  0.
         25    2    1    2    0    0 -0.83174161618E+02 -0.85240971978E+02 -0.14036846192E+03  0.22256380712E+03  0.12508948267E+03 0.  0.
        -24    2    1    2    0    0  0.89836729861E+01  0.67826064687E+02  0.56622282606E+03  0.57600153523E+03  0.80550595303E+02 0.  0.
        -13    1    3    3    0    0  0.26568382937E+02 -0.15856840913E+02 -0.69640978194E+02  0.76204883173E+02  0.00000000000E+00 0.  1.
         14    1    3    3    0    0  0.47622105695E+02  0.33271748205E+02 -0.55132446080E+03  0.55437670880E+03  0.00000000000E+00 0. -1.
         11    1    5    5    0    0  0.40250172622E+02  0.60066065509E+02  0.42878903296E+03  0.43484255013E+03  0.00000000000E+00 0. -1.
        -12    1    5    5    0    0 -0.31266499636E+02  0.77599991776E+01  0.13743379311E+03  0.14115898510E+03  0.00000000000E+00 0.  1.
          5    1    4    4  501    0 -0.98972805619E+02 -0.10666348839E+03 -0.11439310926E+03  0.18513771051E+03  0.41800000000E+01 0. -1.
         -5    1    4    4    0  501  0.15798644001E+02  0.21422516413E+02 -0.25975352661E+02  0.37426096611E+02  0.41800000000E+01 0. -1.
</event>
<event>
11    1  0.8328696E-009  0.1509847E+03  0.7561462E-02  0.1095877E+00
         22   -1    0    0    0    0  0.00000000000E+00  0.00000000000E+00  0.34762569778E+02  0.34762569778E+02  0.00000000000E+00 0. -1.
         22   -1    0    0    0    0 -0.00000000000E+00 -0.00000000000E+00 -0.16124577167E+04  0.16124577167E+04  0.00000000000E+00 0.  1.
         24    2    1    2    0    0 -0.19338922444E+02  0.55517698419E+02 -0.96349740562E+03  0.96852913269E+03  0.79153152059E+02 0.  0.
         25    2    1    2    0    0  0.23615387871E+02 -0.12359236706E+03 -0.44419317124E+03  0.47831775496E+03  0.12509013391E+03 0.  0.
        -24    2    1    2    0    0 -0.42764654264E+01  0.68074668636E+02 -0.17000457006E+03  0.20037339881E+03  0.81212661850E+02 0.  0.
        -11    1    3    3    0    0 -0.71589898438E+01  0.13727621394E+02 -0.77165806113E+03  0.77181335958E+03  0.00000000000E+00 0.  1.
         12    1    3    3    0    0 -0.12179932600E+02  0.41790077025E+02 -0.19183934449E+03  0.19671577311E+03  0.00000000000E+00 0. -1.
         13    1    5    5    0    0 -0.37085202947E+02  0.59418421281E+02 -0.94797476546E+02  0.11786612162E+03  0.00000000000E+00 0. -1.
        -14    1    5    5    0    0  0.32808737521E+02  0.86562473548E+01 -0.75207093512E+02  0.82507277197E+02  0.00000000000E+00 0.  1.
          5    1    4    4  501    0  0.31870615100E+02 -0.13099620689E+01 -0.22766592731E+02  0.39411194501E+02  0.41800000000E+01 0. -1.
         -5    1    4    4    0  501 -0.82552272292E+01 -0.12228240499E+03 -0.42142657851E+03  0.43890656046E+03  0.41800000000E+01 0. -1.
</event>
<event>
11    1  0.8328696E-009  0.2362248E+03  0.7561462E-02  0.1031504E+00
         22   -1    0    0    0    0  0.00000000000E+00  0.00000000000E+00  0.16399509083E+04  0.16399509083E+04  0.00000000000E+00 0. -1.
         22   -1    0    0    0    0 -0.00000000000E+00 -0.00000000000E+00 -0.15359826352E+04  0.15359826352E+04  0.00000000000E+00 0. -1.
         24    2    1    2    0    0  0.72068701694E+02  0.91078749633E+02 -0.14885026236E+04  0.14952051085E+04  0.80678495031E+02 0.  0.
         25    2    1    2    0    0 -0.24057612025E+03  0.65673688112E+01  0.50805699272E+03  0.57592806167E+03  0.12510485367E+03 0.  0.
        -24    2    1    2    0    0  0.16850741855E+03 -0.97646118444E+02  0.10844139039E+04  0.11048003734E+04  0.81858630361E+02 0.  0.
        -11    1    3    3    0    0  0.45316755610E+02 -0.11764722853E+01 -0.46359097583E+03  0.46580208812E+03  0.00000000000E+00 0.  1.
         12    1    3    3    0    0  0.26751946084E+02  0.92255221918E+02 -0.10249116478E+04  0.10294030204E+04  0.00000000000E+00 0. -1.
         11    1    5    5    0    0  0.16528510255E+03 -0.10582206039E+03  0.94790923913E+03  0.96801311935E+03  0.00000000000E+00 0. -1.
        -12    1    5    5    0    0  0.32223160012E+01  0.81759419437E+01  0.13650466480E+03  0.13678725401E+03  0.00000000000E+00 0.  1.
          5    1    4    4  501    0 -0.15427708067E+03  0.61231148212E+02  0.27186646017E+03  0.31855849650E+03  0.41800000000E+01 0. -1.
         -5    1    4    4    0  501 -0.86299039578E+02 -0.54663779401E+02  0.23619053255E+03  0.25736956517E+03  0.41800000000E+01 0. -1.
</event>
<event>
11    1  0.8328696E-009  0.1464211E+03  0.7561462E-02  0.1100593E+00
         22   -1    0    0    0    0  0.00000000000E+00  0.00000000000E+00  0.71020436862E+03  0.71020436862E+03  0.00000000000E+00 0. -1.
         22   -1    0    0    0    0 -0.00000000000E+00 -0.00000000000E+00 -0.24855881815E+03  0.24855881815E+03  0.00000000000E+00 0.  1.
        -24    2    1    2    0    0 -0.22120308611E+02 -0.49130481401E+02 -0.20219227322E+03  0.22173299839E+03  0.73353220579E+02 0.  0.
         25    2    1    2    0    0 -0.56440029130E+02  0.54734999212E+02  0.14907271712E+03  0.20988508854E+03  0.12509068060E+03 0.  0.
         24    2    1    2    0    0  0.78560337741E+02 -0.56045178111E+01  0.51476510657E+03  0.52714509984E+03  0.81827281861E+02 0.  0.
        -13    1    5    5    0    0  0.56071585693E+02  0.35054416768E+02  0.26750040650E+03  0.27555272151E+03  0.00000000000E+00 0.  1.
         14    1    5    5    0    0  0.22488752048E+02 -0.40658934579E+02  0.24726470007E+03  0.25159237832E+03  0.00000000000E+00 0. -1.
         13    1    3    3    0    0  0.31085399111E+01 -0.15637843285E+02 -0.73777232919E+00  0.15960873128E+02  0.00000000000E+00 0. -1.
        -14    1    3    3    0    0 -0.25228848522E+02 -0.33492638116E+02 -0.20145450089E+03  0.20577212527E+03  0.00000000000E+00 0.  1.
          5    1    4    4  501    0 -0.50012650170E+02  0.72760707859E+02  0.16329170442E+03  0.18567993677E+03  0.41800000000E+01 0. -1.
         -5    1    4    4    0  501 -0.64273789592E+01 -0.18025708646E+02 -0.14218987299E+02  0.24205151772E+02  0.41800000000E+01 0. -1.
</event>
<event>
11    1  0.8328696E-009  0.1528910E+03  0.7561462E-02  0.1093961E+00
         22   -1    0    0    0    0  0.00000000000E+00  0.00000000000E+00  0.26718538769E+04  0.26718538769E+04  0.00000000000E+00 0. -1.
         22   -1    0    0    0    0 -0.00000000000E+00 -0.00000000000E+00 -0.58363121449E+02  0.58363121449E+02  0.00000000000E+00 0.  1.
         24    2    1    2    0    0 -0.76999282896E+02 -0.42804409817E+02  0.14033801590E+02  0.11959221318E+03  0.79650755175E+02 0.  0.
         25    2    1    2    0    0  0.72375655514E+02  0.43180552765E+02  0.13889864390E+04  0.13971512989E+04  0.12508248760E+03 0.  0.
        -24    2    1    2    0    0  0.46236273821E+01 -0.37614294754E+00  0.12104705148E+04  0.12134734862E+04  0.85191050390E+02 0.  0.
        -11    1    3    3    0    0 -0.88358994601E+02 -0.17138445847E+02  0.16157282406E+02  0.91444496979E+02  0.00000000000E+00 0.  1.
         12    1    3    3    0    0  0.11359711705E+02 -0.25665963970E+02 -0.21234808159E+01  0.28147716201E+02  0.00000000000E+00 0. -1.
         13    1    5    5    0    0  0.32267470102E+02 -0.15886831846E+02  0.99835186045E+03  0.99899950867E+03  0.00000000000E+00 0. -1.
        -14    1    5    5    0    0 -0.27643842720E+02  0.15510688898E+02  0.21211865438E+03  0.21447397755E+03  0.00000000000E+00 0.  1.
          5    1    4    4  501    0  0.46805753120E+02  0.46765420050E+02  0.27575210279E+03  0.28360972767E+03  0.41800000000E+01 0.  1.
         -5    1    4    4    0  501  0.25569902394E+02 -0.35848672851E+01  0.11132343362E+04  0.11135415712E+04  0.41800000000E+01 0.  1.
</event>
<event>
11    1  0.8328696E-009  0.2447336E+03  0.7561462E-02  0.1026743E+00
         22   -1    0    0    0    0  0.00000000000E+00  0.00000000000E+00  0.71878605550E+03  0.71878605550E+03  0.00000000000E+00 0.  1.
         22   -1    0    0    0    0 -0.00000000000E+00 -0.00000000000E+00 -0.42177034911E+03  0.42177034911E+03  0.00000000000E+00 0.  1.
         24    2    1    2    0    0 -0.47742650186E+02  0.12164513363E+02 -0.32568364849E+03  0.33918816769E+03  0.80940954843E+02 0.  0.
         25    2    1    2    0    0  0.13793856723E+03 -0.19088901822E+03  0.22391153516E+03  0.34820970488E+03  0.12509179583E+03 0.  0.
        -24    2    1    2    0    0 -0.90195917043E+02  0.17872450486E+03  0.39878781972E+03  0.45315853204E+03  0.79013783091E+02 0.  0.
        -11    1    3    3    0    0 -0.58704850138E+02  0.25414360217E+02 -0.30780262991E+03  0.31437971963E+03  0.00000000000E+00 0.  1.
         12    1    3    3    0    0  0.10962199951E+02 -0.13249846854E+02 -0.17881018581E+02  0.24808448055E+02  0.00000000000E+00 0. -1.
         13    1    5    5    0    0 -0.11488997807E+01  0.13394617878E+02  0.12522529253E+01  0.13501996007E+02  0.00000000000E+00 0. -1.
        -14    1    5    5    0    0 -0.89047017263E+02  0.16532988698E+03  0.39753556679E+03  0.43965653603E+03  0.00000000000E+00 0.  1.
          5    1    4    4  501    0  0.38907377084E+02  0.89158869744E+01  0.15721329124E+02  0.43103475748E+02  0.41800000000E+01 0.  1.
         -5    1    4    4    0  501  0.99031190145E+02 -0.19980490520E+03  0.20819020604E+03  0.30510622913E+03  0.41800000000E+01 0.  1.
</event>
<event>
11    1  0.8328696E-009  0.1384981E+03  0.7561462E-02  0.1109247E+00
         22   -1    0    0    0    0  0.00000000000E+00  0.00000000000E+00  0.15426612179E+04  0.15426612179E+04  0.00000000000E+00 0. -1.
         22   -1    0    0    0    0 -0.00000000000E+00 -0.00000000000E+00 -0.59816857243E+03  0.59816857243E+03  0.00000000000E+00 0. -1.
        -24    2    1    2    0    0  0.17577331270E+02 -0.58195263746E+02 -0.50243188742E+03  0.51237755987E+03  0.79983192404E+02 0.  0.
         25    2    1    2    0    0 -0.56051125391E+02  0.28150088957E+02 -0.34506807597E+02  0.14412788896E+03  0.12509185601E+03 0.  0.
         24    2    1    2    0    0  0.38473794122E+02  0.30045174789E+02  0.14814313405E+04  0.14843243415E+04  0.78720955367E+02 0.  0.
        -13    1    5    5    0    0 -0.46667666863E+01  0.24556689794E+02  0.14173002388E+03  0.14391737002E+03  0.00000000000E+00 0.  1.
         14    1    5    5    0    0  0.43140560808E+02  0.54884849953E+01  0.13397013167E+04  0.13404069715E+04  0.00000000000E+00 0. -1.
         13    1    3    3    0    0  0.22063104766E+02 -0.74896164986E+02 -0.45962722349E+03  0.46621175521E+03  0.00000000000E+00 0. -1.
        -14    1    3    3    0    0 -0.44857734962E+01  0.16700901240E+02 -0.42804663934E+02  0.46165804668E+02  0.00000000000E+00 0.  1.
          5    1    4    4  501    0  0.11773979306E+02 -0.40530245258E+02 -0.18168322480E+02  0.46139871164E+02  0.41800000000E+01 0.  1.
         -5    1    4    4    0  501 -0.67825104697E+02  0.68680334215E+02 -0.16338485117E+02  0.97988017793E+02  0.41800000000E+01 0.  1.
</event>
<event>
11    1  0.1246150E-008  0.1841522E+03  0.7561462E-02  0.1066333E+00
         22   -1    0    0    0    0  0.00000000000E+00  0.00000000000E+00  0.18233486006E+04  0.18233486006E+04  0.00000000000E+00 0. -1.
         22   -1    0    0    0    0 -0.00000000000E+00 -0.00000000000E+00 -0.57009371230E+03  0.57009371230E+03  0.00000000000E+00 0.  1.
        -24    2    1    2    0    0  0.36450196083E+02  0.45416715764E+02 -0.40532810075E+03  0.41754896932E+03  0.81639314397E+02 0.  0.
         25    2    1    2    0    0  0.68436266170E+02 -0.13063102762E+03 -0.95462828999E+02  0.21565574821E+03  0.12508501953E+03 0.  0.
         24    2    1    2    0    0 -0.10488646225E+03  0.85214311859E+02  0.17540458181E+04  0.17602375954E+04  0.59135534543E+02 0.  0.
        -11    1    5    5    0    0 -0.80086612154E+01  0.35957849812E+01  0.44280540548E+03  0.44289241973E+03  0.00000000000E+00 0.  1.
         12    1    5    5    0    0 -0.96877801038E+02  0.81618526878E+02  0.13112404126E+04  0.13173451757E+04  0.00000000000E+00 0. -1.
         13    1    3    3    0    0  0.31383407943E+01 -0.13396172397E+02 -0.11411283995E+02  0.17875234831E+02  0.00000000000E+00 0. -1.
        -14    1    3    3    0    0  0.33311855289E+02  0.58812888161E+02 -0.39391681676E+03  0.39967373449E+03  0.00000000000E+00 0.  1.
          5    1    4    4  501    0 -0.23926901090E+02 -0.11664192083E+02 -0.52449708401E+02  0.58966043483E+02  0.41800000000E+01 0.  1.
         -5    1    4    4    0  501  0.92363167260E+02 -0.11896683554E+03 -0.43013120598E+02  0.15668970473E+03  0.41800000000E+01 0.  1.
</event>
<event>
11    1  0.8328696E-009  0.1507598E+03  0.7561462E-02  0.1096105E+00
         22   -1    0    0    0    0  0.00000000000E+00  0.00000000000E+00  0.54434887633E+03  0.54434887633E+03  0.00000000000E+00 0. -1.
         22   -1    0    0    0    0 -0.00000000000E+00 -0.00000000000E+00 -0.13439881953E+03  0.13439881953E+03  0.00000000000E+00 0. -1.
         24    2    1    2    0    0  0.40351235125E+02 -0.74288541731E+02 -0.67493770471E+02  0.13480420011E+03  0.80434779201E+02 0.  0.
         25    2    1    2    0    0 -0.61302084686E+02  0.59039023804E+02  0.18309145336E+03  0.23751648703E+03  0.12509216361E+03 0.  0.
        -24    2    1    2    0    0  0.20950849561E+02  0.15249517926E+02  0.29435237391E+03  0.30642700872E+03  0.81133875503E+02 0.  0.
        -13    1    3    3    0    0 -0.13772382280E+02 -0.23319352824E+02  0.86051084659E+01  0.28416872128E+02  0.00000000000E+00 0.  1.
         14    1    3    3    0    0  0.54123617405E+02 -0.50969188907E+02 -0.76098878937E+02  0.10638732798E+03  0.00000000000E+00 0. -1.
         13    1    5    5    0    0  0.31805826971E+02  0.28624046298E+02  0.28200657269E+03  0.28523438379E+03  0.00000000000E+00 0. -1.
        -14    1    5    5    0    0 -0.10854977410E+02 -0.13374528372E+02  0.12345801219E+02  0.21192624931E+02  0.00000000000E+00 0.  1.
          5    1    4    4  501    0  0.38753067819E+02  0.18680574760E+02  0.56445207505E+02  0.71093586132E+02  0.41800000000E+01 0. -1.
         -5    1    4    4    0  501 -0.10005515251E+03  0.40358449045E+02  0.12664624586E+03  0.16642290089E+03  0.41800000000E+01 0. -1.
</event>
<event>
11    1  0.8328696E-009  0.1323510E+03  0.7561462E-02  0.1116414E+00
         22   -1    0    0    0    0  0.00000000000E+00  0.00000000000E+00  0.80220502064E+02  0.80220502064E+02  0.00000000000E+00 0. -1.
         22   -1    0    0    0    0 -0.00000000000E+00 -0.00000000000E+00 -0.97214740449E+03  0.97214740449E+03  0.00000000000E+00 0. -1.
         24    2    1    2    0    0  0.13869761056E+02 -0.37770123847E+02 -0.49963522107E+03  0.50755282285E+03  0.79721774504E+02 0.  0.
         25    2    1    2    0    0 -0.24509119355E+00  0.53268007256E+02 -0.43035747537E+03  0.45132431653E+03  0.12509413024E+03 0.  0.
        -24    2    1    2    0    0 -0.13624669862E+02 -0.15497883409E+02  0.38065794015E+02  0.93490767163E+02  0.82859536879E+02 0.  0.
        -13    1    3    3    0    0  0.16026751379E+02 -0.42064368820E+02 -0.12451567454E+03  0.13240249654E+03  0.00000000000E+00 0.  1.
         14    1    3    3    0    0 -0.21569903232E+01  0.42942449732E+01 -0.37511954653E+03  0.37515032632E+03  0.00000000000E+00 0. -1.
         13    1    5    5    0    0  0.26123225807E+02 -0.78585446703E+01  0.44806825304E+02  0.52457899736E+02  0.00000000000E+00 0. -1.
        -14    1    5    5    0    0 -0.39747895669E+02 -0.76393387387E+01 -0.67410312892E+01  0.41032867427E+02  0.00000000000E+00 0.  1.
          5    1    4    4  501    0 -0.53582005829E+02  0.58900137811E+02 -0.29720721917E+03  0.30771717714E+03  0.41800000000E+01 0.  1.
         -5    1    4    4    0  501  0.53336914635E+02 -0.56321305553E+01 -0.13315025620E+03  0.14360713939E+03  0.41800000000E+01 0.  1.
</event>
<event>
11    1  0.8328696E-009  0.1438488E+03  0.7561462E-02  0.1103335E+00
         22   -1    0    0    0    0  0.00000000000E+00  0.00000000000E+00  0.23650945350E+03  0.23650945350E+03  0.00000000000E+00 0. -1.
         22   -1    0    0    0    0 -0.00000000000E+00 -0.00000000000E+00 -0.30582657103E+03  0.30582657103E+03  0.00000000000E+00 0. -1.
        -24    2    1    2    0    0 -0.93043967553E+01  0.12985406310E+02 -0.17883927309E+03  0.19700018725E+03  0.81057976779E+02 0.  0.
         25    2    1    2    0    0 -0.23054757843E+02 -0.75045240455E+02 -0.47666225765E+02  0.15518766028E+03  0.12509129007E+03 0.  0.
         24    2    1    2    0    0  0.32359154599E+02  0.62059834145E+02  0.15718838133E+03  0.19014817700E+03  0.80929624304E+02 0.  0.
        -13    1    5    5    0    0 -0.76285579943E+01  0.66338886008E+02  0.98891285051E+02  0.11932530726E+03  0.00000000000E+00 0.  1.
         14    1    5    5    0    0  0.39987712593E+02 -0.42790518623E+01  0.58297096277E+02  0.70822869735E+02  0.00000000000E+00 0. -1.
         13    1    3    3    0    0 -0.43663862057E+01  0.27894108005E+02 -0.17908112773E+03  0.18129312425E+03  0.00000000000E+00 0. -1.
        -14    1    3    3    0    0 -0.49380105496E+01 -0.14908701695E+02  0.24185463929E+00  0.15707063000E+02  0.00000000000E+00 0.  1.
          5    1    4    4  501    0  0.10656745021E+02  0.31270409983E+02 -0.24127074431E+02  0.41121683763E+02  0.41800000000E+01 0. -1.
         -5    1    4    4    0  501 -0.33711502864E+02 -0.10631565044E+03 -0.23539151334E+02  0.11406597652E+03  0.41800000000E+01 0. -1.
</event>
<event>
11    1  0.8328696E-009  0.1526938E+03  0.7561462E-02  0.1094158E+00
         22   -1    0    0    0    0  0.00000000000E+00  0.00000000000E+00  0.17257848653E+04  0.17257848653E+04  0.00000000000E+00 0.  1.
         22   -1    0    0    0    0 -0.00000000000E+00 -0.00000000000E+00 -0.76750006897E+02  0.76750006897E+02  0.00000000000E+00 0.  1.
         24    2    1    2    0    0 -0.91109492392E+02 -0.40146630979E+02  0.20326247704E+02  0.12974603732E+03  0.80673330614E+02 0.  0.
         25    2    1    2    0    0  0.51604080062E+02  0.11008365798E+02  0.20293501839E+03  0.24416048259E+03  0.12509018495E+03 0.  0.
        -24    2    1    2    0    0  0.39505412331E+02  0.29138265181E+02  0.14257735923E+04  0.14286283523E+04  0.75755635666E+02 0.  0.
        -11    1    3    3    0    0 -0.78500892768E+02 -0.57112593120E+01 -0.13498291035E+02  0.79857451181E+02  0.00000000000E+00 0.  1.
         12    1    3    3    0    0 -0.12608599624E+02 -0.34435371667E+02  0.33824538739E+02  0.49888586142E+02  0.00000000000E+00 0. -1.
         11    1    5    5    0    0  0.10773742168E+02  0.39211795853E+02  0.33928641781E+03  0.34171466425E+03  0.00000000000E+00 0. -1.
        -12    1    5    5    0    0  0.28731670163E+02 -0.10073530672E+02  0.10864871745E+04  0.10869136881E+04  0.00000000000E+00 0.  1.
          5    1    4    4  501    0  0.47342371383E+02 -0.53130234415E+02  0.10290394509E+03  0.12518313086E+03  0.41800000000E+01 0. -1.
         -5    1    4    4    0  501  0.42617086787E+01  0.64138600212E+02  0.10003107330E+03  0.11897735173E+03  0.41800000000E+01 0. -1.
</event>
<event>
11    1  0.8328696E-009  0.2329251E+03  0.7561462E-02  0.1033410E+00
         22   -1    0    0    0    0  0.00000000000E+00  0.00000000000E+00  0.52490223679E+03  0.52490223679E+03  0.00000000000E+00 0.  1.
         22   -1    0    0    0    0 -0.00000000000E+00 -0.00000000000E+00 -0.45925276580E+03  0.45925276580E+03  0.00000000000E+00 0. -1.
         24    2    1    2    0    0 -0.13743135277E+03 -0.13589737088E+03 -0.35108732515E+03  0.40785461479E+03  0.75680940723E+02 0.  0.
         25    2    1    2    0    0  0.16430799114E+03  0.14895694050E+03  0.14914660897E+03  0.29508969525E+03  0.12509169116E+03 0.  0.
        -24    2    1    2    0    0 -0.26876638374E+02 -0.13059569617E+02  0.26759018717E+03  0.28121069255E+03  0.81129768186E+02 0.  0.
        -11    1    3    3    0    0  0.49020309599E+01 -0.14580871385E+02 -0.59409876787E+02  0.61369089758E+02  0.00000000000E+00 0.  1.
         12    1    3    3    0    0 -0.14233338373E+03 -0.12131649950E+03 -0.29167744836E+03  0.34648552503E+03  0.00000000000E+00 0. -1.
         11    1    5    5    0    0  0.69539902403E+01 -0.46256107699E+01 -0.26255314319E+01  0.87548655361E+01  0.00000000000E+00 0. -1.
        -12    1    5    5    0    0 -0.33830628614E+02 -0.84339588468E+01  0.27021571860E+03  0.27245582702E+03  0.00000000000E+00 0.  1.
          5    1    4    4  501    0  0.39470279956E+02  0.11241328881E+03  0.10126151715E+03  0.15641616846E+03  0.41800000000E+01 0. -1.
         -5    1    4    4    0  501  0.12483771118E+03  0.36543651693E+02  0.47885091817E+02  0.13867352678E+03  0.41800000000E+01 0. -1.
</event>
<event>
11    1  0.8328696E-009  0.1695070E+03  0.7561462E-02  0.1078461E+00
         22   -1    0    0    0    0  0.00000000000E+00  0.00000000000E+00  0.39235215026E+03  0.39235215026E+03  0.00000000000E+00 0.  1.
         22   -1    0    0    0    0 -0.00000000000E+00 -0.00000000000E+00 -0.42669298383E+03  0.42669298383E+03  0.00000000000E+00 0. -1.
         24    2    1    2    0    0 -0.33829986268E+02  0.65074784547E+02 -0.32419177133E+03  0.34196285243E+03  0.80368478190E+02 0.  0.
         25    2    1    2    0    0 -0.40273482207E+02 -0.14495363393E+03  0.50293913797E+02  0.20201302938E+03  0.12508507871E+03 0.  0.
        -24    2    1    2    0    0  0.74103468475E+02  0.79878849381E+02  0.23955702396E+03  0.27506925228E+03  0.80022316897E+02 0.  0.
        -11    1    3    3    0    0 -0.70761288470E+01 -0.18540226491E+02 -0.42439060240E+02  0.46849604393E+02  0.00000000000E+00 0.  1.
         12    1    3    3    0    0 -0.26753857421E+02  0.83615011038E+02 -0.28175271109E+03  0.29511324803E+03  0.00000000000E+00 0. -1.
         11    1    5    5    0    0 -0.85983705886E+01 -0.97827465290E+01  0.27620178091E+02  0.30536999594E+02  0.00000000000E+00 0. -1.
        -12    1    5    5    0    0  0.82701839063E+02  0.89661595910E+02  0.21193684587E+03  0.24453225269E+03  0.00000000000E+00 0.  1.
          5    1    4    4  501    0 -0.72356250206E+02 -0.37310119481E+02  0.34466236926E+02  0.88503479296E+02  0.41800000000E+01 0.  1.
         -5    1    4    4    0  501  0.32082767999E+02 -0.10764351445E+03  0.15827676871E+02  0.11350955008E+03  0.41800000000E+01 0.  1.
</event>
<event>
11    1  0.8328696E-009  0.1667562E+03  0.7561462E-02  0.1080890E+00
         22   -1    0    0    0    0  0.00000000000E+00  0.00000000000E+00  0.16918998567E+03  0.16918998567E+03  0.00000000000E+00 0. -1.
         22   -1    0    0    0    0 -0.00000000000E+00 -0.00000000000E+00 -0.38525889785E+04  0.38525889785E+04  0.00000000000E+00 0.  1.
        -24    2    1    2    0    0 -0.83480948772E+02 -0.92350737970E+02 -0.28127290244E+04  0.28166209845E+04  0.80071704541E+02 0.  0.
         25    2    1    2    0    0 -0.29262426771E+02  0.99520588811E+02 -0.10015444956E+04  0.10146431803E+04  0.12509504148E+03 0.  0.
         24    2    1    2    0    0  0.11274337554E+03 -0.71698508413E+01  0.13087452721E+03  0.19051479939E+03  0.80032939629E+02 0.  0.
        -11    1    5    5    0    0 -0.56966282941E+01 -0.68290954540E+01 -0.50501754569E+01  0.10227042133E+02  0.00000000000E+00 0.  1.
         12    1    5    5    0    0  0.11844000384E+03 -0.34075538730E+00  0.13592470266E+03  0.18028775726E+03  0.00000000000E+00 0. -1.
         13    1    3    3    0    0 -0.43121936641E+02  0.27090613730E+01 -0.65651714496E+03  0.65793738461E+03  0.00000000000E+00 0. -1.
        -14    1    3    3    0    0 -0.40359012131E+02 -0.95059799343E+02 -0.21562118794E+04  0.21586835998E+04  0.00000000000E+00 0.  1.
          5    1    4    4  501    0 -0.57237587845E+01  0.97630632520E+02 -0.97045363414E+03  0.97537799351E+03  0.41800000000E+01 0. -1.
         -5    1    4    4    0  501 -0.23538667987E+02  0.18899562915E+01 -0.31090861475E+02  0.39265186777E+02  0.41800000000E+01 0. -1.
</event>
<event>
11    1  0.8328696E-009  0.1971127E+03  0.7561462E-02  0.1056584E+00
         22   -1    0    0    0    0  0.00000000000E+00  0.00000000000E+00  0.42798532749E+03  0.42798532749E+03  0.00000000000E+00 0.  1.
         22   -1    0    0    0    0 -0.00000000000E+00 -0.00000000000E+00 -0.23383568106E+03  0.23383568106E+03  0.00000000000E+00 0.  1.
         24    2    1    2    0    0  0.10943472054E+03  0.92860567978E+02 -0.98163929255E+02  0.19154809861E+03  0.80345963973E+02 0.  0.
         25    2    1    2    0    0 -0.11485421528E+03 -0.17912033596E+03  0.22632445870E+03  0.33488210601E+03  0.12509068230E+03 0.  0.
        -24    2    1    2    0    0  0.54194947354E+01  0.86259767983E+02  0.65989116989E+02  0.13539080393E+03  0.80659703277E+02 0.  0.
        -13    1    3    3    0    0  0.12144050669E+03  0.74652246439E+02 -0.87584612379E+02  0.16730755778E+03  0.00000000000E+00 0.  1.
         14    1    3    3    0    0 -0.12005786143E+02  0.18208321539E+02 -0.10579316876E+02  0.24240540831E+02  0.00000000000E+00 0. -1.
         13    1    5    5    0    0 -0.25014248932E+02  0.62845359437E+02  0.69313789198E+02  0.96848609827E+02  0.00000000000E+00 0. -1.
        -14    1    5    5    0    0  0.30433743667E+02  0.23414408545E+02 -0.33246722094E+01  0.38542194105E+02  0.00000000000E+00 0.  1.
          5    1    4    4  501    0 -0.43980908244E+01 -0.34283003009E+02 -0.10237423695E+02  0.36289733289E+02  0.41800000000E+01 0.  1.
         -5    1    4    4    0  501 -0.11045612446E+03 -0.14483733295E+03  0.23656188240E+03  0.29859237272E+03  0.41800000000E+01 0.  1.
</event>
<event>
11    1  0.8328696E-009  0.1877529E+03  0.7561462E-02  0.1063539E+00
         22   -1    0    0    0    0  0.00000000000E+00  0.00000000000E+00  0.71260946679E+03  0.71260946679E+03  0.00000000000E+00 0.  1.
         22   -1    0    0    0    0 -0.00000000000E+00 -0.00000000000E+00 -0.10055985678E+04  0.10055985678E+04  0.00000000000E+00 0.  1.
         24    2    1    2    0    0 -0.12110362884E+03 -0.85139434118E+02 -0.76586398843E+03  0.78475944496E+03  0.85935589318E+02 0.  0.
         25    2    1    2    0    0  0.10266932475E+03  0.50306163949E+02 -0.19558359031E+03  0.25878839372E+03  0.12508713582E+03 0.  0.
        -24    2    1    2    0    0  0.18434304095E+02  0.34833270169E+02  0.66845847773E+03  0.67466019592E+03  0.82319276161E+02 0.  0.
        -11    1    3    3    0    0 -0.26602387673E+02 -0.22349882594E+02 -0.40480418553E+03  0.40629254596E+03  0.00000000000E+00 0.  1.
         12    1    3    3    0    0 -0.94501241168E+02 -0.62789551523E+02 -0.36105980290E+03  0.37846689899E+03  0.00000000000E+00 0. -1.
         13    1    5    5    0    0 -0.22467236940E+02 -0.67882172198E+01  0.81620895408E+02  0.84928365084E+02  0.00000000000E+00 0. -1.
        -14    1    5    5    0    0  0.40901541035E+02  0.41621487388E+02  0.58683758232E+03  0.58973183083E+03  0.00000000000E+00 0.  1.
          5    1    4    4  501    0  0.36730150839E+02  0.59280614249E+02 -0.17589940798E+03  0.18926534108E+03  0.41800000000E+01 0.  1.
         -5    1    4    4    0  501  0.65939173907E+02 -0.89744502999E+01 -0.19684182329E+02  0.69523052635E+02  0.41800000000E+01 0.  1.
</event>
<event>
11    1  0.8328696E-009  0.2036524E+03  0.7561462E-02  0.1051970E+00
         22   -1    0    0    0    0  0.00000000000E+00  0.00000000000E+00  0.13026880689E+03  0.13026880689E+03  0.00000000000E+00 0. -1.
         22   -1    0    0    0    0 -0.00000000000E+00 -0.00000000000E+00 -0.15999955183E+04  0.15999955183E+04  0.00000000000E+00 0. -1.
         24    2    1    2    0    0  0.64195822669E+02 -0.10604890628E+03 -0.10401924822E+04  0.10504109367E+04  0.77429075918E+02 0.  0.
         25    2    1    2    0    0 -0.15880820433E+03  0.21222240765E+03 -0.42507621116E+03  0.51633001416E+03  0.12509397328E+03 0.  0.
        -24    2    1    2    0    0  0.94612381662E+02 -0.10617350137E+03 -0.44580180675E+01  0.16352337433E+03  0.80595935810E+02 0.  0.
        -11    1    3    3    0    0  0.15784941017E+02 -0.39697687749E+02 -0.13735958617E+03  0.14384966697E+03  0.00000000000E+00 0.  1.
         12    1    3    3    0    0  0.48410881652E+02 -0.66351218535E+02 -0.90283289599E+03  0.90656126972E+03  0.00000000000E+00 0. -1.
         13    1    5    5    0    0  0.64043689393E+02 -0.11181754485E+03 -0.17053812231E+02  0.12998303735E+03  0.00000000000E+00 0. -1.
        -14    1    5    5    0    0  0.30568692270E+02  0.56440434795E+01  0.12595794163E+02  0.33540336976E+02  0.00000000000E+00 0.  1.
          5    1    4    4  501    0 -0.48887243704E+02  0.56668092853E+02 -0.23718453925E+03  0.24874728824E+03  0.41800000000E+01 0.  1.
         -5    1    4    4    0  501 -0.10992096063E+03  0.15555431480E+03 -0.18789167191E+03  0.26758272592E+03  0.41800000000E+01 0.  1.
</event>
<event>
11    1  0.8328696E-009  0.1018587E+04  0.7561462E-02  0.8661534E-01
         22   -1    0    0    0    0  0.00000000000E+00  0.00000000000E+00  0.10423518382E+04  0.10423518382E+04  0.00000000000E+00 0.  1.
         22   -1    0    0    0    0 -0.00000000000E+00 -0.00000000000E+00 -0.18750835160E+04  0.18750835160E+04  0.00000000000E+00 0.  1.
         24    2    1    2    0    0  0.93614798039E+03  0.37078624104E+03 -0.13031007082E+04  0.16489969000E+04  0.85228181998E+02 0.  0.
         25    2    1    2    0    0 -0.99468805081E+03 -0.28001291497E+03  0.43975654842E+03  0.11299757438E+04  0.12509120128E+03 0.  0.
        -24    2    1    2    0    0  0.58540070419E+02 -0.90773326068E+02  0.30612481884E+02  0.13846271035E+03  0.81043578041E+02 0.  0.
        -13    1    3    3    0    0  0.38840052741E+03  0.10899394091E+03 -0.51717033614E+03  0.65589618495E+03  0.00000000000E+00 0.  1.
         14    1    3    3    0    0  0.54774745298E+03  0.26179230013E+03 -0.78593037201E+03  0.99310071509E+03  0.00000000000E+00 0. -1.
         11    1    5    5    0    0  0.67695530216E+02 -0.98352415014E+02  0.36960968478E+02  0.12498798159E+03  0.00000000000E+00 0. -1.
        -12    1    5    5    0    0 -0.91554597966E+01  0.75790889460E+01 -0.63484865944E+01  0.13474728768E+02  0.00000000000E+00 0.  1.
          5    1    4    4  501    0 -0.61994766447E+02 -0.21572473357E+02 -0.26117621863E+01  0.65825651347E+02  0.41800000000E+01 0. -1.
         -5    1    4    4    0  501 -0.93269328436E+03 -0.25844044161E+03  0.44236831061E+03  0.10641500924E+04  0.41800000000E+01 0. -1.
</event>
<event>
11    1  0.8328696E-009  0.1526402E+03  0.7561462E-02  0.1094211E+00
         22   -1    0    0    0    0  0.00000000000E+00  0.00000000000E+00  0.14251166806E+04  0.14251166806E+04  0.00000000000E+00 0.  1.
         22   -1    0    0    0    0 -0.00000000000E+00 -0.00000000000E+00 -0.11861197264E+04  0.11861197264E+04  0.00000000000E+00 0. -1.
        -24    2    1    2    0    0 -0.79741123263E+02 -0.14178503785E+02 -0.57122139622E+03  0.58271793412E+03  0.81894020103E+02 0.  0.
         25    2    1    2    0    0  0.10256766460E+03 -0.44911901916E+02 -0.59570797051E+03  0.61891290897E+03  0.12509195821E+03 0.  0.
         24    2    1    2    0    0 -0.22826541334E+02  0.59090405702E+02  0.14059263209E+04  0.14096055640E+04  0.79663662793E+02 0.  0.
        -11    1    5    5    0    0  0.13919794084E+02  0.53078071383E+02  0.11085373963E+04  0.11098946803E+04  0.00000000000E+00 0.  1.
         12    1    5    5    0    0 -0.36746335418E+02  0.60123343188E+01  0.29738892457E+03  0.29971088366E+03  0.00000000000E+00 0. -1.
         11    1    3    3    0    0 -0.72183474414E+02 -0.39002871797E+02 -0.32758133063E+03  0.33769987587E+03  0.00000000000E+00 0. -1.
        -12    1    3    3    0    0 -0.75576488490E+01  0.24824368012E+02 -0.24364006560E+03  0.24501805825E+03  0.00000000000E+00 0.  1.
          5    1    4    4  501    0  0.12335804015E+03 -0.60024012991E+02 -0.54362156361E+03  0.56067991316E+03  0.41800000000E+01 0. -1.
         -5    1    4    4    0  501 -0.20790375555E+02  0.15112111075E+02 -0.52086406899E+02  0.58232995806E+02  0.41800000000E+01 0. -1.
</event>
<event>
11    1  0.8328696E-009  0.1251352E+03  0.7561462E-02  0.1125395E+00
         22   -1    0    0    0    0  0.00000000000E+00  0.00000000000E+00  0.15750523216E+03  0.15750523216E+03  0.00000000000E+00 0. -1.
         22   -1    0    0    0    0 -0.00000000000E+00 -0.00000000000E+00 -0.34332172547E+03  0.34332172547E+03  0.00000000000E+00 0. -1.
         24    2    1    2    0    0 -0.34089489078E+02 -0.26542560381E+02 -0.24849569364E+03  0.26400006572E+03  0.77970020927E+02 0.  0.
         25    2    1    2    0    0  0.22299008000E+02  0.21600937889E+02  0.20250519386E+01  0.12890000478E+03  0.12508902478E+03 0.  0.
        -24    2    1    2    0    0  0.11790481078E+02  0.49416224915E+01  0.60654148395E+02  0.10792688714E+03  0.88350733855E+02 0.  0.
        -11    1    3    3    0    0 -0.22192191615E+02 -0.23302443638E+02 -0.26566544519E+02  0.41728629691E+02  0.00000000000E+00 0.  1.
         12    1    3    3    0    0 -0.11897297464E+02 -0.32401167427E+01 -0.22192914912E+03  0.22227143602E+03  0.00000000000E+00 0. -1.
         11    1    5    5    0    0  0.43970978109E+02 -0.73567209040E+01  0.58304956483E+02  0.73396431853E+02  0.00000000000E+00 0. -1.
        -12    1    5    5    0    0 -0.32180497031E+02  0.12298343396E+02  0.23491919125E+01  0.34530455284E+02  0.00000000000E+00 0.  1.
          5    1    4    4  501    0  0.19999001533E+02  0.61299646919E+02  0.38130291778E+02  0.75026650770E+02  0.41800000000E+01 0. -1.
         -5    1    4    4    0  501  0.23000064674E+01 -0.39698709030E+02 -0.36105239839E+02  0.53873354009E+02  0.41800000000E+01 0. -1.
</event>
<event>
11    1  0.8328696E-009  0.2465117E+03  0.7561462E-02  0.1025774E+00
         22   -1    0    0    0    0  0.00000000000E+00  0.00000000000E+00  0.15607092023E+04  0.15607092023E+04  0.00000000000E+00 0.  1.
         22   -1    0    0    0    0 -0.00000000000E+00 -0.00000000000E+00 -0.16481381571E+03  0.16481381571E+03  0.00000000000E+00 0.  1.
         24    2    1    2    0    0 -0.81126318400E+02 -0.74363861295E+02  0.12950031990E+03  0.18754999512E+03  0.79329719604E+02 0.  0.
         25    2    1    2    0    0  0.51992420191E+02  0.27991250095E+03  0.67055766737E+02  0.31811647339E+03  0.12508954729E+03 0.  0.
        -24    2    1    2    0    0  0.29133898208E+02 -0.20554863965E+03  0.11993392999E+04  0.12198565495E+04  0.80846877915E+02 0.  0.
        -11    1    3    3    0    0  0.99609686284E+01  0.78542282364E+01  0.15823612225E+02  0.20280446273E+02  0.00000000000E+00 0.  1.
         12    1    3    3    0    0 -0.91087287028E+02 -0.82218089532E+02  0.11367670768E+03  0.16726954885E+03  0.00000000000E+00 0. -1.
         11    1    5    5    0    0  0.11369339136E+02  0.38256731607E+01  0.46398012492E+02  0.47923618506E+02  0.00000000000E+00 0. -1.
        -12    1    5    5    0    0  0.17764559072E+02 -0.20937431281E+03  0.11529412874E+04  0.11719329310E+04  0.00000000000E+00 0.  1.
          5    1    4    4  501    0  0.74456671341E+02  0.19373020128E+03  0.89679958648E+02  0.22613083420E+03  0.41800000000E+01 0.  1.
         -5    1    4    4    0  501 -0.22464251150E+02  0.86182299671E+02 -0.22624191910E+02  0.91985639183E+02  0.41800000000E+01 0.  1.
</event>
<event>
11    1  0.8328696E-009  0.1472751E+03  0.7561462E-02  0.1099696E+00
         22   -1    0    0    0    0  0.00000000000E+00  0.00000000000E+00  0.57373528614E+03  0.57373528614E+03  0.00000000000E+00 0.  1.
         22   -1    0    0    0    0 -0.00000000000E+00 -0.00000000000E+00 -0.20601506377E+04  0.20601506377E+04  0.00000000000E+00 0. -1.
         24    2    1    2    0    0 -0.18413698485E+02 -0.73499319728E+02 -0.18504696628E+04  0.18538355686E+04  0.82019070732E+02 0.  0.
         25    2    1    2    0    0  0.54294524255E+02  0.11307664033E+03 -0.16460671648E+03  0.24181631712E+03  0.12508212569E+03 0.  0.
        -24    2    1    2    0    0 -0.35880825770E+02 -0.39577320598E+02  0.52866102773E+03  0.53823403816E+03  0.85788108943E+02 0.  0.
        -11    1    3    3    0    0  0.27138863045E+02 -0.40794323884E+02 -0.55699349264E+03  0.55914438707E+03  0.00000000000E+00 0.  1.
         12    1    3    3    0    0 -0.45552561531E+02 -0.32704995844E+02 -0.12934761702E+04  0.12946911815E+04  0.00000000000E+00 0. -1.
         13    1    5    5    0    0 -0.43864333818E+02  0.14575742187E+02  0.23013287090E+03  0.23472892943E+03  0.00000000000E+00 0. -1.
        -14    1    5    5    0    0  0.79835080483E+01 -0.54153062785E+02  0.29852815683E+03  0.30350510873E+03  0.00000000000E+00 0.  1.
          5    1    4    4  501    0 -0.45003285619E+01  0.11528683277E+03 -0.88174030953E+02  0.14527022717E+03  0.41800000000E+01 0. -1.
         -5    1    4    4    0  501  0.58794852817E+02 -0.22101924471E+01 -0.76432685526E+02  0.96546089952E+02  0.41800000000E+01 0. -1.
</event>
<event>
11    1  0.8328696E-009  0.1300439E+03  0.7561462E-02  0.1119215E+00
         22   -1    0    0    0    0  0.00000000000E+00  0.00000000000E+00  0.31441962311E+03  0.31441962311E+03  0.00000000000E+00 0.  1.
         22   -1    0    0    0    0 -0.00000000000E+00 -0.00000000000E+00 -0.69240227401E+03  0.69240227401E+03  0.00000000000E+00 0.  1.
         24    2    1    2    0    0  0.14558722862E+01  0.64093086601E+01 -0.57583464883E+03  0.58175029911E+03  0.82490417115E+02 0.  0.
         25    2    1    2    0    0 -0.34696283819E+02 -0.18661118854E+02 -0.65140531424E+02  0.14640365787E+03  0.12505467898E+03 0.  0.
        -24    2    1    2    0    0  0.33240411533E+02  0.12251810194E+02  0.26299252935E+03  0.27866794014E+03  0.85063026964E+02 0.  0.
        -11    1    3    3    0    0 -0.22052076846E+02  0.29257280767E+02 -0.14101470821E+03  0.14569636407E+03  0.00000000000E+00 0.  1.
         12    1    3    3    0    0  0.23507949132E+02 -0.22847972107E+02 -0.43481994062E+03  0.43605393504E+03  0.00000000000E+00 0. -1.
         13    1    5    5    0    0  0.26463989204E+02  0.44838886032E+02  0.10491089508E+03  0.11712029855E+03  0.00000000000E+00 0. -1.
        -14    1    5    5    0    0  0.67764223289E+01 -0.32587075837E+02  0.15808163427E+03  0.16154764159E+03  0.00000000000E+00 0.  1.
          5    1    4    4  501    0  0.33630475354E+02  0.90872419264E+00 -0.67102071559E+02  0.75179751660E+02  0.41800000000E+01 0. -1.
         -5    1    4    4    0  501 -0.68326759173E+02 -0.19569843047E+02  0.19615401352E+01  0.71223906209E+02  0.41800000000E+01 0. -1.
</event>
<event>
11    1  0.8328696E-009  0.1707144E+03  0.7561462E-02  0.1077412E+00
         22   -1    0    0    0    0  0.00000000000E+00  0.00000000000E+00  0.51220466509E+03  0.51220466509E+03  0.00000000000E+00 0. -1.
         22   -1    0    0    0    0 -0.00000000000E+00 -0.00000000000E+00 -0.27009655298E+03  0.27009655298E+03  0.00000000000E+00 0. -1.
         24    2    1    2    0    0 -0.10648573807E+03 -0.50044753681E+02 -0.20263206256E+03  0.24893414487E+03  0.84052161933E+02 0.  0.
         25    2    1    2    0    0  0.98351728002E+02  0.37885929832E+02  0.13243140785E+03  0.21046147010E+03  0.12509015361E+03 0.  0.
        -24    2    1    2    0    0  0.81340100643E+01  0.12158823849E+02  0.31230876682E+03  0.32290560309E+03  0.80729570547E+02 0.  0.
        -11    1    3    3    0    0 -0.26300659853E+02 -0.55545343498E+02 -0.64292335194E+02  0.88941071827E+02  0.00000000000E+00 0.  1.
         12    1    3    3    0    0 -0.80185078212E+02  0.55005898165E+01 -0.13833972736E+03  0.15999307305E+03  0.00000000000E+00 0. -1.
         11    1    5    5    0    0 -0.10410267575E+02 -0.25345606278E+02  0.21822536286E+03  0.21993881519E+03  0.00000000000E+00 0. -1.
        -12    1    5    5    0    0  0.18544277639E+02  0.37504430127E+02  0.94083403955E+02  0.10296678791E+03  0.00000000000E+00 0.  1.
          5    1    4    4  501    0 -0.15607344903E+02  0.64429841391E+01 -0.13922315607E+02  0.22280137599E+02  0.41800000000E+01 0.  1.
         -5    1    4    4    0  501  0.11395907290E+03  0.31442945693E+02  0.14635372346E+03  0.18818133250E+03  0.41800000000E+01 0.  1.
</event>
<event>
11    1  0.8328696E-009  0.1572673E+03  0.7561462E-02  0.1089676E+00
         22   -1    0    0    0    0  0.00000000000E+00  0.00000000000E+00  0.36385592878E+03  0.36385592878E+03  0.00000000000E+00 0. -1.
         22   -1    0    0    0    0 -0.00000000000E+00 -0.00000000000E+00 -0.87496685557E+03  0.87496685557E+03  0.00000000000E+00 0.  1.
        -24    2    1    2    0    0 -0.29580186012E+01 -0.60890461740E+02 -0.80613223603E+03  0.81237850234E+03  0.79957807018E+02 0.  0.
         25    2    1    2    0    0  0.79703323102E+02  0.99807396722E+02  0.11882080219E+03  0.21466974631E+03  0.12510228133E+03 0.  0.
         24    2    1    2    0    0 -0.76745304501E+02 -0.38916934982E+02  0.17620050705E+03  0.21177453570E+03  0.79984159034E+02 0.  0.
        -13    1    5    5    0    0 -0.84403451141E+02 -0.70833843542E+01  0.12950767986E+03  0.15474610186E+03  0.00000000000E+00 0.  1.
         14    1    5    5    0    0  0.76581466398E+01 -0.31833550628E+02  0.46692827187E+02  0.57028433840E+02  0.00000000000E+00 0. -1.
         11    1    3    3    0    0  0.37198011590E+01 -0.26932626334E+02 -0.65242223355E+02  0.70680626696E+02  0.00000000000E+00 0. -1.
        -12    1    3    3    0    0 -0.66778197602E+01 -0.33957835406E+02 -0.74089001267E+03  0.74169787565E+03  0.00000000000E+00 0.  1.
          5    1    4    4  501    0  0.19120028329E+02  0.77234554726E+02  0.39031160063E+00  0.79676700925E+02  0.41800000000E+01 0. -1.
         -5    1    4    4    0  501  0.60583294773E+02  0.22572841996E+02  0.11843049059E+03  0.13499304539E+03  0.41800000000E+01 0. -1.
</event>
<event>
11    1  0.8328696E-009  0.1588750E+03  0.7561462E-02  0.1088140E+00
         22   -1    0    0    0    0  0.00000000000E+00  0.00000000000E+00  0.15231744671E+03  0.15231744671E+03  0.00000000000E+00 0.  1.
         22   -1    0    0    0    0 -0.00000000000E+00 -0.00000000000E+00 -0.26930766873E+04  0.26930766873E+04  0.00000000000E+00 0. -1.
        -24    2    1    2    0    0 -0.74903613371E+02  0.56652539217E+02 -0.20207075814E+04  0.20245038126E+04  0.80848598999E+02 0.  0.
         25    2    1    2    0    0  0.13321062753E+03 -0.28957791201E+02 -0.63807405859E+03  0.66435728198E+03  0.12509384043E+03 0.  0.
         24    2    1    2    0    0 -0.58307014163E+02 -0.27694748016E+02  0.11802239949E+03  0.15653303941E+03  0.80041231102E+02 0.  0.
        -11    1    5    5    0    0 -0.44818633639E+02 -0.13762002831E+02  0.12684201938E+03  0.13522943660E+03  0.00000000000E+00 0.  1.
         12    1    5    5    0    0 -0.13488380525E+02 -0.13932745186E+02 -0.88196198880E+01  0.21303602807E+02  0.00000000000E+00 0. -1.
         11    1    3    3    0    0 -0.85439673755E+02  0.67216883997E+02 -0.17279793108E+04  0.17313955486E+04  0.00000000000E+00 0. -1.
        -12    1    3    3    0    0  0.10536060384E+02 -0.10564344780E+02 -0.29272827067E+03  0.29310826395E+03  0.00000000000E+00 0.  1.
          5    1    4    4  501    0  0.15703004054E+03 -0.32426537114E+02 -0.56347427626E+03  0.58585889628E+03  0.41800000000E+01 0. -1.
         -5    1    4    4    0  501 -0.23819413003E+02  0.34687459137E+01 -0.74599782333E+02  0.78498385704E+02  0.41800000000E+01 0. -1.
</event>
<event>
11    1  0.8328696E-009  0.1727315E+03  0.7561462E-02  0.1075679E+00
         22   -1    0    0    0    0  0.00000000000E+00  0.00000000000E+00  0.26884436368E+04  0.26884436368E+04  0.00000000000E+00 0.  1.
         22   -1    0    0    0    0 -0.00000000000E+00 -0.00000000000E+00 -0.75042780256E+03  0.75042780256E+03  0.00000000000E+00 0. -1.
         24    2    1    2    0    0 -0.87864062280E+02  0.80773722486E+02 -0.73440653383E+03  0.74839551477E+03  0.80612665987E+02 0.  0.
         25    2    1    2    0    0  0.10392658840E+03 -0.25435831965E+02  0.88221822146E+03  0.89743851405E+03  0.12505670274E+03 0.  0.
        -24    2    1    2    0    0 -0.16062526124E+02 -0.55337890521E+02  0.17902041466E+04  0.17930374105E+04  0.82655805478E+02 0.  0.
        -13    1    3    3    0    0  0.67396227541E+01 -0.70443590886E+00 -0.51056285313E+01  0.84844674268E+01  0.00000000000E+00 0.  1.
         14    1    3    3    0    0 -0.94603685034E+02  0.81478158395E+02 -0.72930090530E+03  0.73991104735E+03  0.00000000000E+00 0. -1.
         13    1    5    5    0    0 -0.37246786804E+02  0.29097439493E+01  0.53413521206E+03  0.53544020628E+03  0.00000000000E+00 0. -1.
        -14    1    5    5    0    0  0.21184260680E+02 -0.58247634470E+02  0.12560689345E+04  0.12575972042E+04  0.00000000000E+00 0.  1.
          5    1    4    4  501    0 -0.18342277732E+02 -0.33402720597E+02  0.30094614291E+03  0.30337803847E+03  0.41800000000E+01 0. -1.
         -5    1    4    4    0  501  0.12226886614E+03  0.79668886320E+01  0.58127207855E+03  0.59406047558E+03  0.41800000000E+01 0. -1.
</event>
<event>
11    1  0.8328696E-009  0.1402714E+03  0.7561462E-02  0.1107256E+00
         22   -1    0    0    0    0  0.00000000000E+00  0.00000000000E+00  0.15139945730E+03  0.15139945730E+03  0.00000000000E+00 0. -1.
         22   -1    0    0    0    0 -0.00000000000E+00 -0.00000000000E+00 -0.88833655896E+03  0.88833655896E+03  0.00000000000E+00 0. -1.
         24    2    1    2    0    0 -0.21748618282E+02  0.49944896819E+01 -0.76827987009E+03  0.77228188871E+03  0.75282199220E+02 0.  0.
         25    2    1    2    0    0 -0.46754538534E+02  0.28500412748E+01 -0.38727772441E+02  0.13907073123E+03  0.12508684310E+03 0.  0.
        -24    2    1    2    0    0  0.68503156815E+02 -0.78445309567E+01  0.70070540872E+02  0.12838339633E+03  0.82572371862E+02 0.  0.
        -11    1    3    3    0    0 -0.38088390565E+01  0.35190757899E+02 -0.21552893539E+03  0.21841615940E+03  0.00000000000E+00 0.  1.
         12    1    3    3    0    0 -0.17939779225E+02 -0.30196268217E+02 -0.55275093470E+03  0.55386572931E+03  0.00000000000E+00 0. -1.
         13    1    5    5    0    0  0.83598367615E+02 -0.10443334275E+02  0.74473584581E+02  0.11244583184E+03  0.00000000000E+00 0. -1.
        -14    1    5    5    0    0 -0.15095210799E+02  0.25988033187E+01 -0.44030437098E+01  0.15937564484E+02  0.00000000000E+00 0.  1.
          5    1    4    4  501    0 -0.86704370020E+02  0.18328009324E+02 -0.15192789353E+02  0.90010315823E+02  0.41800000000E+01 0.  1.
         -5    1    4    4    0  501  0.39949831486E+02 -0.15477968049E+02 -0.23534983088E+02  0.49060415404E+02  0.41800000000E+01 0.  1.
</event>
<event>
11    1  0.8328696E-009  0.1519494E+03  0.7561462E-02  0.1094903E+00
         22   -1    0    0    0    0  0.00000000000E+00  0.00000000000E+00  0.16213179298E+03  0.16213179298E+03  0.00000000000E+00 0. -1.
         22   -1    0    0    0    0 -0.00000000000E+00 -0.00000000000E+00 -0.64901571729E+03  0.64901571729E+03  0.00000000000E+00 0. -1.
        -24    2    1    2    0    0 -0.44807106147E+02 -0.34700012021E+02 -0.46975763446E+03  0.48025453076E+03  0.82221722081E+02 0.  0.
         25    2    1    2    0    0  0.11441760232E+03  0.68991190514E+02 -0.89897109531E+02  0.20391033029E+03  0.12508701135E+03 0.  0.
         24    2    1    2    0    0 -0.69610496174E+02 -0.34291178493E+02  0.72770819684E+02  0.12698264923E+03  0.69336101038E+02 0.  0.
        -11    1    5    5    0    0 -0.37242565048E+02 -0.15182169279E+02 -0.50750632064E+01  0.40537182709E+02  0.00000000000E+00 0.  1.
         12    1    5    5    0    0 -0.32367931125E+02 -0.19109009214E+02  0.77845882891E+02  0.86445466518E+02  0.00000000000E+00 0. -1.
         13    1    3    3    0    0 -0.58325392817E+02 -0.42716771758E+02 -0.44565215267E+03  0.45147803404E+03  0.00000000000E+00 0. -1.
        -14    1    3    3    0    0  0.13518286670E+02  0.80167597362E+01 -0.24105481789E+02  0.28776496719E+02  0.00000000000E+00 0.  1.
          5    1    4    4  501    0 -0.20570119716E+02 -0.65032879315E+01 -0.31772973244E+02  0.38631810827E+02  0.41800000000E+01 0.  1.
         -5    1    4    4    0  501  0.13498772204E+03  0.75494478446E+02 -0.58124136287E+02  0.16527851946E+03  0.41800000000E+01 0.  1.
</event>
<event>
11    1  0.8328696E-009  0.1459351E+03  0.7561462E-02  0.1101106E+00
         22   -1    0    0    0    0  0.00000000000E+00  0.00000000000E+00  0.12339488072E+04  0.12339488072E+04  0.00000000000E+00 0. -1.
         22   -1    0    0    0    0 -0.00000000000E+00 -0.00000000000E+00 -0.40958220195E+03  0.40958220195E+03  0.00000000000E+00 0.  1.
        -24    2    1    2    0    0  0.38878237268E+02 -0.64030486000E+02 -0.38659052344E+03  0.40054528362E+03  0.73299870016E+02 0.  0.
         25    2    1    2    0    0 -0.32643947491E+02  0.86902416139E+02  0.41808414987E+03  0.44615990162E+03  0.12508654683E+03 0.  0.
         24    2    1    2    0    0 -0.62342897769E+01 -0.22871930139E+02  0.79287297879E+03  0.79682582387E+03  0.75642855227E+02 0.  0.
        -11    1    5    5    0    0  0.10789471168E+02 -0.24103234996E+02  0.91228498363E+02  0.94973772900E+02  0.00000000000E+00 0.  1.
         12    1    5    5    0    0 -0.17023760945E+02  0.12313048575E+01  0.70164448042E+03  0.70185205097E+03  0.00000000000E+00 0. -1.
         11    1    3    3    0    0 -0.17237555681E+02 -0.26847673409E+02 -0.70757854051E+02  0.77618327753E+02  0.00000000000E+00 0. -1.
        -12    1    3    3    0    0  0.56115792949E+02 -0.37182812591E+02 -0.31583266939E+03  0.32292695587E+03  0.00000000000E+00 0.  1.
          5    1    4    4  501    0 -0.21237916350E+02  0.68341591568E+02  0.80282675975E+02  0.10763086309E+03  0.41800000000E+01 0. -1.
         -5    1    4    4    0  501 -0.11406031142E+02  0.18560824571E+02  0.33780147390E+03  0.33852903852E+03  0.41800000000E+01 0. -1.
</event>
<event>
11    1  0.8328696E-009  0.1556615E+03  0.7561462E-02  0.1091230E+00
         22   -1    0    0    0    0  0.00000000000E+00  0.00000000000E+00  0.17311708582E+03  0.17311708582E+03  0.00000000000E+00 0.  1.
         22   -1    0    0    0    0 -0.00000000000E+00 -0.00000000000E+00 -0.22730940024E+04  0.22730940024E+04  0.00000000000E+00 0.  1.
        -24    2    1    2    0    0  0.92812666718E+02 -0.39436928914E+01 -0.20813290003E+04  0.20849422980E+04  0.80151323464E+02 0.  0.
         25    2    1    2    0    0 -0.80650621942E+02  0.93372905371E+02 -0.11216417577E+03  0.20844684004E+03  0.12508501316E+03 0.  0.
         24    2    1    2    0    0 -0.12162044776E+02 -0.89429212479E+02  0.93516259522E+02  0.15282195016E+03  0.80397501688E+02 0.  0.
        -13    1    5    5    0    0  0.14274020915E+02 -0.87180979415E+02  0.89907524045E+02  0.12604615712E+03  0.00000000000E+00 0.  1.
         14    1    5    5    0    0 -0.26436065691E+02 -0.22482330641E+01  0.36087354778E+01  0.26775793040E+02  0.00000000000E+00 0. -1.
         13    1    3    3    0    0  0.31360370768E+02  0.19303695070E+02 -0.13925223577E+04  0.13930091967E+04  0.00000000000E+00 0. -1.
        -14    1    3    3    0    0  0.61452295950E+02 -0.23247387961E+02 -0.68880664262E+03  0.69193310127E+03  0.00000000000E+00 0.  1.
          5    1    4    4  501    0 -0.10642544633E+01 -0.28717469744E+02 -0.11309879931E+02  0.31164266237E+02  0.41800000000E+01 0.  1.
         -5    1    4    4    0  501 -0.79586367479E+02  0.12209037511E+03 -0.10085429584E+03  0.17728257380E+03  0.41800000000E+01 0.  1.
</event>
<event>
11    1  0.8328696E-009  0.1584286E+03  0.7561462E-02  0.1088565E+00
         22   -1    0    0    0    0  0.00000000000E+00  0.00000000000E+00  0.84091466718E+03  0.84091466718E+03  0.00000000000E+00 0.  1.
         22   -1    0    0    0    0 -0.00000000000E+00 -0.00000000000E+00 -0.23351500511E+03  0.23351500511E+03  0.00000000000E+00 0.  1.
        -24    2    1    2    0    0 -0.13302432087E+02 -0.13276924802E+02 -0.16530581890E+03  0.18746781621E+03  0.86399866440E+02 0.  0.
         25    2    1    2    0    0  0.55021951678E+02  0.99171852909E+02  0.86659800290E+02  0.18978937991E+03  0.12509043195E+03 0.  0.
         24    2    1    2    0    0 -0.41719519590E+02 -0.85894928107E+02  0.68604568069E+03  0.69717247617E+03  0.79198033733E+02 0.  0.
        -11    1    5    5    0    0 -0.24807550421E+02 -0.97775519323E+02  0.50697867251E+03  0.51691666748E+03  0.00000000000E+00 0.  1.
         12    1    5    5    0    0 -0.16911969169E+02  0.11880591216E+02  0.17906700818E+03  0.18025580869E+03  0.00000000000E+00 0. -1.
         11    1    3    3    0    0 -0.16064349017E+02 -0.24506355786E+02 -0.88844566529E+01  0.30619574675E+02  0.00000000000E+00 0. -1.
        -12    1    3    3    0    0  0.27619169296E+01  0.11229430984E+02 -0.15642136225E+03  0.15684824154E+03  0.00000000000E+00 0.  1.
          5    1    4    4  501    0 -0.18996467096E+02  0.90360620537E+02  0.34250393048E+02  0.98572152913E+02  0.41800000000E+01 0.  1.
         -5    1    4    4    0  501  0.74018418774E+02  0.88112323719E+01  0.52409407242E+02  0.91217226998E+02  0.41800000000E+01 0.  1.
</event>
<event>
11    1  0.8328696E-009  0.2600860E+03  0.7561462E-02  0.1018659E+00
         22   -1    0    0    0    0  0.00000000000E+00  0.00000000000E+00  0.29153858892E+03  0.29153858892E+03  0.00000000000E+00 0. -1.
         22   -1    0    0    0    0 -0.00000000000E+00 -0.00000000000E+00 -0.10238642349E+04  0.10238642349E+04  0.00000000000E+00 0. -1.
        -24    2    1    2    0    0  0.14305649036E+03  0.70914483021E+01 -0.50053983891E+03  0.52642585533E+03  0.77901237091E+02 0.  0.
         25    2    1    2    0    0 -0.35306663597E+03  0.36469448562E+01 -0.36835031146E+03  0.52535553613E+03  0.12508851966E+03 0.  0.
         24    2    1    2    0    0  0.21001014560E+03 -0.10738393158E+02  0.13656450439E+03  0.26362143237E+03  0.81405290989E+02 0.  0.
        -13    1    5    5    0    0  0.14451119340E+03  0.27991640835E+02  0.10703929971E+03  0.18200117763E+03  0.00000000000E+00 0.  1.
         14    1    5    5    0    0  0.65498952207E+02 -0.38730033993E+02  0.29525204673E+02  0.81620254743E+02  0.00000000000E+00 0. -1.
         11    1    3    3    0    0  0.14134368212E+03  0.28593604904E+01 -0.50208288804E+03  0.52160659398E+03  0.00000000000E+00 0. -1.
        -12    1    3    3    0    0  0.17128082406E+01  0.42320878117E+01  0.15430491269E+01  0.48192613462E+01  0.00000000000E+00 0.  1.
          5    1    4    4  501    0 -0.37525279973E+00 -0.70349183849E+01  0.65608917687E+01  0.10495169944E+02  0.41800000000E+01 0.  1.
         -5    1    4    4    0  501 -0.35269138317E+03  0.10681863241E+02 -0.37491120323E+03  0.51486036619E+03  0.41800000000E+01 0.  1.
</event>
<event>
11    1  0.8328696E-009  0.1287245E+03  0.7561462E-02  0.1120846E+00
         22   -1    0    0    0    0  0.00000000000E+00  0.00000000000E+00  0.16988242461E+03  0.16988242461E+03  0.00000000000E+00 0. -1.
         22   -1    0    0    0    0 -0.00000000000E+00 -0.00000000000E+00 -0.12929053113E+04  0.12929053113E+04  0.00000000000E+00 0. -1.
         24    2    1    2    0    0  0.14438044147E+02  0.25664513786E+02 -0.11575252202E+04  0.11606677055E+04  0.80110940610E+02 0.  0.
         25    2    1    2    0    0 -0.18834733271E+02 -0.50327730235E+02 -0.82155517302E+02  0.15901050842E+03  0.12508870916E+03 0.  0.
        -24    2    1    2    0    0  0.43966891242E+01  0.24663216448E+02  0.11665785080E+03  0.14310952200E+03  0.79016934970E+02 0.  0.
        -11    1    3    3    0    0  0.12874560889E+02 -0.26659543228E+02 -0.27441973682E+03  0.27601209669E+03  0.00000000000E+00 0.  1.
         12    1    3    3    0    0  0.15634832574E+01  0.52324057015E+02 -0.88310548334E+03  0.88465560877E+03  0.00000000000E+00 0. -1.
         11    1    5    5    0    0 -0.22351530455E+02 -0.14495708924E+02  0.76373100268E+02  0.80886135619E+02  0.00000000000E+00 0. -1.
        -12    1    5    5    0    0  0.26748219579E+02  0.39158925372E+02  0.40284750535E+02  0.62223386380E+02  0.00000000000E+00 0.  1.
          5    1    4    4  501    0 -0.54817018893E+02  0.16599161119E+02 -0.50909707674E+02  0.76744435926E+02  0.41800000000E+01 0.  1.
         -5    1    4    4    0  501  0.35982285622E+02 -0.66926891354E+02 -0.31245809628E+02  0.82266072498E+02  0.41800000000E+01 0.  1.
</event>
<event>
11    1  0.8328696E-009  0.1262172E+03  0.7561462E-02  0.1124006E+00
         22   -1    0    0    0    0  0.00000000000E+00  0.00000000000E+00  0.14896799415E+03  0.14896799415E+03  0.00000000000E+00 0.  1.
         22   -1    0    0    0    0 -0.00000000000E+00 -0.00000000000E+00 -0.12587899531E+04  0.12587899531E+04  0.00000000000E+00 0. -1.
        -24    2    1    2    0    0  0.62855620878E+01 -0.15677830677E+02 -0.10860824362E+04  0.10892258700E+04  0.80948348037E+02 0.  0.
         25    2    1    2    0    0 -0.15844630923E+01  0.16216755677E+02 -0.13199333462E+03  0.18258040888E+03  0.12509145309E+03 0.  0.
         24    2    1    2    0    0 -0.47010989956E+01 -0.53892500067E+00  0.10825381192E+03  0.13595166830E+03  0.82107110207E+02 0.  0.
        -13    1    5    5    0    0 -0.10568920183E+02  0.39931349291E+02  0.52186837644E+02  0.66555846876E+02  0.00000000000E+00 0.  1.
         14    1    5    5    0    0  0.58678211879E+01 -0.40470274292E+02  0.56066974272E+02  0.69395821421E+02  0.00000000000E+00 0. -1.
         11    1    3    3    0    0 -0.29369013411E+01  0.90778754600E+01 -0.97494830556E+03  0.97499499061E+03  0.00000000000E+00 0. -1.
        -12    1    3    3    0    0  0.92224634289E+01 -0.24755706137E+02 -0.11113413064E+03  0.11423087941E+03  0.00000000000E+00 0.  1.
          5    1    4    4  501    0  0.51014442799E+02 -0.18609853682E+02 -0.28927731444E+02  0.61669166321E+02  0.41800000000E+01 0.  1.
         -5    1    4    4    0  501 -0.52598905892E+02  0.34826609359E+02 -0.10306560318E+03  0.12091124256E+03  0.41800000000E+01 0.  1.
</event>
<event>
11    1  0.8328696E-009  0.1419268E+03  0.7561462E-02  0.1105426E+00
         22   -1    0    0    0    0  0.00000000000E+00  0.00000000000E+00  0.58004411997E+03  0.58004411997E+03  0.00000000000E+00 0.  1.
         22   -1    0    0    0    0 -0.00000000000E+00 -0.00000000000E+00 -0.19495110248E+03  0.19495110248E+03  0.00000000000E+00 0.  1.
        -24    2    1    2    0    0  0.59634682041E+00  0.33115382230E+01 -0.15380731577E+03  0.17239926729E+03  0.77804209788E+02 0.  0.
         25    2    1    2    0    0 -0.32135060135E+01 -0.69257261369E+02  0.21211421265E+03  0.25582756727E+03  0.12509360533E+03 0.  0.
         24    2    1    2    0    0  0.26171591931E+01  0.65945723146E+02  0.32678612062E+03  0.34676838790E+03  0.95412044816E+02 0.  0.
        -13    1    5    5    0    0  0.63449371111E+01  0.88669475586E+02  0.29045509790E+03  0.30375433828E+03  0.00000000000E+00 0.  1.
         14    1    5    5    0    0 -0.37277779180E+01 -0.22723752439E+02  0.36331022714E+02  0.43014049618E+02  0.00000000000E+00 0. -1.
         13    1    3    3    0    0 -0.29860325081E+02  0.54821722190E+01 -0.23033723856E+02  0.38108341093E+02  0.00000000000E+00 0. -1.
        -14    1    3    3    0    0  0.30456671901E+02 -0.21706339960E+01 -0.13077359192E+03  0.13429092620E+03  0.00000000000E+00 0.  1.
          5    1    4    4  501    0  0.52396725475E+02 -0.10446284171E+02  0.44543078007E+02  0.69685722295E+02  0.41800000000E+01 0. -1.
         -5    1    4    4    0  501 -0.55610231489E+02 -0.58810977198E+02  0.16757113464E+03  0.18614184497E+03  0.41800000000E+01 0. -1.
</event>
<event>
11    1  0.8328696E-009  0.2763542E+03  0.7561462E-02  0.1010727E+00
         22   -1    0    0    0    0  0.00000000000E+00  0.00000000000E+00  0.15680202260E+04  0.15680202260E+04  0.00000000000E+00 0.  1.
         22   -1    0    0    0    0 -0.00000000000E+00 -0.00000000000E+00 -0.10600802804E+03  0.10600802804E+03  0.00000000000E+00 0. -1.
         24    2    1    2    0    0  0.31791934686E+02  0.18353992293E+03  0.14400720626E+03  0.24875044769E+03  0.80256335271E+02 0.  0.
         25    2    1    2    0    0  0.13848107692E+03  0.68759084469E+02  0.30444463485E+03  0.36364711772E+03  0.12509144727E+03 0.  0.
        -24    2    1    2    0    0 -0.17027301161E+03 -0.25229900740E+03  0.10135603568E+04  0.10616306886E+04  0.84305601366E+02 0.  0.
        -13    1    3    3    0    0 -0.26457380567E+02  0.44253212307E+02  0.42572856875E+02  0.66863950889E+02  0.00000000000E+00 0.  1.
         14    1    3    3    0    0  0.58249315253E+02  0.13928671062E+03  0.10143434938E+03  0.18188649680E+03  0.00000000000E+00 0. -1.
         13    1    5    5    0    0 -0.11945636362E+03 -0.10537592006E+03  0.46893483924E+03  0.49525124007E+03  0.00000000000E+00 0. -1.
        -14    1    5    5    0    0 -0.50816647986E+02 -0.14692308734E+03  0.54462551759E+03  0.56637944853E+03  0.00000000000E+00 0.  1.
          5    1    4    4  501    0  0.24207999170E+02  0.43625224382E+02  0.16345837239E+02  0.52667316442E+02  0.41800000000E+01 0. -1.
         -5    1    4    4    0  501  0.11427307775E+03  0.25133860087E+02  0.28809879761E+03  0.31097980128E+03  0.41800000000E+01 0. -1.
</event>
<event>
11    1  0.8328696E-009  0.2336354E+03  0.7561462E-02  0.1032997E+00
         22   -1    0    0    0    0  0.00000000000E+00  0.00000000000E+00  0.59232923930E+03  0.59232923930E+03  0.00000000000E+00 0. -1.
         22   -1    0    0    0    0 -0.00000000000E+00 -0.00000000000E+00 -0.40725339988E+03  0.40725339988E+03  0.00000000000E+00 0. -1.
         24    2    1    2    0    0 -0.36065511075E+02  0.41666411768E+02 -0.30664400653E+03  0.32167885545E+03  0.80062028120E+02 0.  0.
         25    2    1    2    0    0 -0.67862537248E+02 -0.20204656086E+03  0.19116248586E+03  0.31244039778E+03  0.12509104464E+03 0.  0.
        -24    2    1    2    0    0  0.10392804832E+03  0.16038014909E+03  0.30055736009E+03  0.36546338594E+03  0.81889732642E+02 0.  0.
        -11    1    3    3    0    0  0.24566154881E+01  0.23185512807E+02 -0.16886235657E+02  0.28787982187E+02  0.00000000000E+00 0.  1.
         12    1    3    3    0    0 -0.38522126563E+02  0.18480898961E+02 -0.28975777087E+03  0.29289087327E+03  0.00000000000E+00 0. -1.
         11    1    5    5    0    0  0.62253959056E+02  0.14250520493E+03  0.26724101129E+03  0.30919418973E+03  0.00000000000E+00 0. -1.
        -12    1    5    5    0    0  0.41674089266E+02  0.17874944166E+02  0.33316348798E+02  0.56269196212E+02  0.00000000000E+00 0.  1.
          5    1    4    4  501    0 -0.10271663787E+02 -0.65647490583E+02 -0.48547447495E+01  0.66754333517E+02  0.41800000000E+01 0.  1.
         -5    1    4    4    0  501 -0.57590873461E+02 -0.13639907028E+03  0.19601723061E+03  0.24568606426E+03  0.41800000000E+01 0.  1.
</event>
<event>
11    1  0.8328696E-009  0.2174164E+03  0.7561462E-02  0.1042848E+00
         22   -1    0    0    0    0  0.00000000000E+00  0.00000000000E+00  0.14744569464E+04  0.14744569464E+04  0.00000000000E+00 0.  1.
         22   -1    0    0    0    0 -0.00000000000E+00 -0.00000000000E+00 -0.18530376881E+03  0.18530376881E+03  0.00000000000E+00 0.  1.
        -24    2    1    2    0    0  0.19245816793E+03 -0.22495312746E+02 -0.93773838194E+02  0.22926560850E+03  0.78886000113E+02 0.  0.
         25    2    1    2    0    0 -0.10047111522E+03 -0.33696795690E+02  0.32469627478E+03  0.36373812979E+03  0.12509131532E+03 0.  0.
         24    2    1    2    0    0 -0.91987052703E+02  0.56192108436E+02  0.10582307410E+04  0.10667569769E+04  0.80616224678E+02 0.  0.
        -13    1    5    5    0    0  0.53745890591E+01  0.20624668157E+02  0.38537464241E+03  0.38596357102E+03  0.00000000000E+00 0.  1.
         14    1    5    5    0    0 -0.97361641762E+02  0.35567440278E+02  0.67285609855E+03  0.68079340585E+03  0.00000000000E+00 0. -1.
         13    1    3    3    0    0  0.34358298072E+02 -0.32949639047E+02 -0.55837157222E+01  0.47930671193E+02  0.00000000000E+00 0. -1.
        -14    1    3    3    0    0  0.15809986985E+03  0.10454326301E+02 -0.88190122472E+02  0.18133493731E+03  0.00000000000E+00 0.  1.
          5    1    4    4  501    0 -0.11678390341E+03 -0.71589928872E+01  0.17348272377E+03  0.20929275936E+03  0.41800000000E+01 0. -1.
         -5    1    4    4    0  501  0.16312788183E+02 -0.26537802803E+02  0.15121355101E+03  0.15444537042E+03  0.41800000000E+01 0. -1.
</event>
<event>
11    1  0.8328696E-009  0.1431055E+03  0.7561462E-02  0.1104139E+00
         22   -1    0    0    0    0  0.00000000000E+00  0.00000000000E+00  0.26499178707E+04  0.26499178707E+04  0.00000000000E+00 0.  1.
         22   -1    0    0    0    0 -0.00000000000E+00 -0.00000000000E+00 -0.25577446520E+03  0.25577446520E+03  0.00000000000E+00 0. -1.
        -24    2    1    2    0    0 -0.56708852731E+01  0.69184847281E+02 -0.23773763780E+03  0.26182340506E+03  0.84932967553E+02 0.  0.
         25    2    1    2    0    0  0.47499896590E+01 -0.77468448080E+02  0.10708592103E+04  0.10809307417E+04  0.12509155563E+03 0.  0.
         24    2    1    2    0    0  0.92089561403E+00  0.82836007989E+01  0.15610218330E+04  0.15629381891E+04  0.76923038327E+02 0.  0.
        -11    1    5    5    0    0 -0.23449413154E-01 -0.32906965868E+02  0.92368941876E+03  0.92427539797E+03  0.00000000000E+00 0.  1.
         12    1    5    5    0    0  0.94434502719E+00  0.41190566667E+02  0.63733241424E+03  0.63866279116E+03  0.00000000000E+00 0. -1.
         11    1    3    3    0    0 -0.44173723961E+02  0.34059387310E+02 -0.99202305110E+02  0.11380886210E+03  0.00000000000E+00 0. -1.
        -12    1    3    3    0    0  0.38502838688E+02  0.35125459971E+02 -0.13853533269E+03  0.14801454296E+03  0.00000000000E+00 0.  1.
          5    1    4    4  501    0  0.14522402632E+02 -0.20802365339E+02  0.90447957340E+03  0.90484496444E+03  0.41800000000E+01 0.  1.
         -5    1    4    4    0  501 -0.97724129729E+01 -0.56666082741E+02  0.16637963691E+03  0.17608577730E+03  0.41800000000E+01 0.  1.
</event>
<event>
11    1  0.1157367E-008  0.1524173E+03  0.7561462E-02  0.1094434E+00
         22   -1    0    0    0    0  0.00000000000E+00  0.00000000000E+00  0.33485788055E+03  0.33485788055E+03  0.00000000000E+00 0. -1.
         22   -1    0    0    0    0 -0.00000000000E+00 -0.00000000000E+00 -0.11027152370E+04  0.11027152370E+04  0.00000000000E+00 0.  1.
        -24    2    1    2    0    0  0.44414682668E+02  0.56975010821E+02 -0.98168018240E+03  0.98885202551E+03  0.94411503231E+02 0.  0.
         25    2    1    2    0    0  0.45702199921E+02 -0.31345769068E+02 -0.58897782899E+02  0.14893867599E+03  0.12507010858E+03 0.  0.
         24    2    1    2    0    0 -0.90116882589E+02 -0.25629241753E+02  0.27272060886E+03  0.29978241603E+03  0.81945444681E+02 0.  0.
        -13    1    5    5    0    0 -0.70694101709E+01  0.22286277565E+02  0.25376344846E+02  0.34505269244E+02  0.00000000000E+00 0.  1.
         14    1    5    5    0    0 -0.83047472418E+02 -0.47915519318E+02  0.24734426401E+03  0.26527714679E+03  0.00000000000E+00 0. -1.
         13    1    3    3    0    0  0.31846042177E+01 -0.21605160528E+02 -0.83857172271E+02  0.86654197860E+02  0.00000000000E+00 0. -1.
        -14    1    3    3    0    0  0.41230078451E+02  0.78580171348E+02 -0.89782301013E+03  0.90219782765E+03  0.00000000000E+00 0.  1.
          5    1    4    4  501    0  0.28161574064E+02  0.26517720265E+02 -0.76500865657E+02  0.85826095030E+02  0.41800000000E+01 0.  1.
         -5    1    4    4    0  501  0.17540625857E+02 -0.57863489333E+02  0.17603082758E+02  0.63112580963E+02  0.41800000000E+01 0.  1.
</event>
<event>
11    1  0.8328696E-009  0.1391305E+03  0.7561462E-02  0.1108533E+00
         22   -1    0    0    0    0  0.00000000000E+00  0.00000000000E+00  0.31451953151E+03  0.31451953151E+03  0.00000000000E+00 0.  1.
         22   -1    0    0    0    0 -0.00000000000E+00 -0.00000000000E+00 -0.12437109835E+04  0.12437109835E+04  0.00000000000E+00 0. -1.
         24    2    1    2    0    0 -0.58916879352E+02 -0.17479079214E+02 -0.11978462570E+04  0.12020275752E+04  0.79107010893E+02 0.  0.
         25    2    1    2    0    0  0.22454587602E+02  0.23556349263E+02  0.92690594415E+02  0.15905217914E+03  0.12508772643E+03 0.  0.
        -24    2    1    2    0    0  0.36462291749E+02 -0.60772700488E+01  0.17596421058E+03  0.19715076072E+03  0.80861530519E+02 0.  0.
        -11    1    3    3    0    0 -0.64350957135E+02  0.90280293093E+01 -0.58767940301E+03  0.59126105209E+03  0.00000000000E+00 0.  1.
         12    1    3    3    0    0  0.54340777835E+01 -0.26507108524E+02 -0.61016685398E+03  0.61076652306E+03  0.00000000000E+00 0. -1.
         11    1    5    5    0    0  0.11992225096E+02 -0.24467857547E+02  0.11024010406E+02  0.29394188561E+02  0.00000000000E+00 0. -1.
        -12    1    5    5    0    0  0.24470066653E+02  0.18390587498E+02  0.16494020017E+03  0.16775657216E+03  0.00000000000E+00 0.  1.
          5    1    4    4  501    0  0.23145771378E+02 -0.12017359348E+02 -0.24794201917E+02  0.36226627045E+02  0.41800000000E+01 0. -1.
         -5    1    4    4    0  501 -0.69118377568E+00  0.35573708611E+02  0.11748479633E+03  0.12282555210E+03  0.41800000000E+01 0. -1.
</event>
<event>
11    1  0.8328696E-009  0.1982582E+03  0.7561462E-02  0.1055762E+00
         22   -1    0    0    0    0  0.00000000000E+00  0.00000000000E+00  0.11862719695E+03  0.11862719695E+03  0.00000000000E+00 0.  1.
         22   -1    0    0    0    0 -0.00000000000E+00 -0.00000000000E+00 -0.15454152952E+04  0.15454152952E+04  0.00000000000E+00 0.  1.
        -24    2    1    2    0    0 -0.10237378169E+01  0.26818626947E+02 -0.11699010112E+04  0.11729267830E+04  0.79803354910E+02 0.  0.
         25    2    1    2    0    0 -0.10787718014E+03 -0.12901929051E+03 -0.24271804755E+03  0.32071163023E+03  0.12514166308E+03 0.  0.
         24    2    1    2    0    0  0.10890091796E+03  0.10220066356E+03 -0.14169039519E+02  0.17040407895E+03  0.80823281767E+02 0.  0.
        -11    1    5    5    0    0  0.10802068641E+03  0.97950599209E+02  0.97035342191E+01  0.14614016270E+03  0.00000000000E+00 0.  1.
         12    1    5    5    0    0  0.88023154636E+00  0.42500643532E+01 -0.23872573738E+02  0.24263916243E+02  0.00000000000E+00 0. -1.
         11    1    3    3    0    0 -0.11269864686E+02  0.19980350016E+02 -0.87541467458E+02  0.90497142283E+02  0.00000000000E+00 0. -1.
        -12    1    3    3    0    0  0.10246126869E+02  0.68382769312E+01 -0.10823595438E+04  0.10824296407E+04  0.00000000000E+00 0.  1.
          5    1    4    4  501    0 -0.12304552821E+03 -0.93303106296E+02 -0.23453045185E+03  0.28083389557E+03  0.41800000000E+01 0.  1.
         -5    1    4    4    0  501  0.15168348066E+02 -0.35716184214E+02 -0.81875956966E+01  0.39877734654E+02  0.41800000000E+01 0.  1.
</event>
<event>
11    1  0.8328696E-009  0.1492819E+03  0.7561462E-02  0.1097615E+00
         22   -1    0    0    0    0  0.00000000000E+00  0.00000000000E+00  0.31698221331E+04  0.31698221331E+04  0.00000000000E+00 0.  1.
         22   -1    0    0    0    0 -0.00000000000E+00 -0.00000000000E+00 -0.39791101886E+03  0.39791101886E+03  0.00000000000E+00 0. -1.
        -24    2    1    2    0    0 -0.43283785137E+02 -0.21582274308E+02 -0.36440275065E+03  0.37702230489E+03  0.83768568613E+02 0.  0.
         25    2    1    2    0    0 -0.10860735602E+01  0.90152395766E+02  0.20207094185E+03  0.25418248855E+03  0.12508971951E+03 0.  0.
         24    2    1    2    0    0  0.44369858697E+02 -0.68570121458E+02  0.29342429230E+04  0.29365283585E+04  0.82138438260E+02 0.  0.
        -13    1    5    5    0    0  0.26400108790E+02 -0.35943797326E+02  0.25697983399E+04  0.25701852910E+04  0.00000000000E+00 0.  1.
         14    1    5    5    0    0  0.17969749908E+02 -0.32626324132E+02  0.36444458312E+03  0.36634306750E+03  0.00000000000E+00 0. -1.
         13    1    3    3    0    0 -0.52568019386E+02 -0.29233435872E+02 -0.14097401766E+03  0.15326990602E+03  0.00000000000E+00 0. -1.
        -14    1    3    3    0    0  0.92842342484E+01  0.76511615643E+01 -0.22342873299E+03  0.22375239888E+03  0.00000000000E+00 0.  1.
          5    1    4    4  501    0  0.39569730695E+02 -0.14071788189E+02  0.52798634162E+02  0.67593986268E+02  0.41800000000E+01 0.  1.
         -5    1    4    4    0  501 -0.40655804255E+02  0.10422418395E+03  0.14927230769E+03  0.18658850228E+03  0.41800000000E+01 0.  1.
</event>
<event>
11    1  0.8328696E-009  0.1280614E+03  0.7561462E-02  0.1121674E+00
         22   -1    0    0    0    0  0.00000000000E+00  0.00000000000E+00  0.32141785339E+03  0.32141785339E+03  0.00000000000E+00 0.  1.
         22   -1    0    0    0    0 -0.00000000000E+00 -0.00000000000E+00 -0.30995291979E+03  0.30995291979E+03  0.00000000000E+00 0. -1.
         24    2    1    2    0    0 -0.24876686946E+02 -0.18563453448E+01 -0.24156015243E+03  0.25915214285E+03  0.90477789153E+02 0.  0.
         25    2    1    2    0    0  0.55308919110E+02 -0.25988443326E+02  0.46142096839E+02  0.14666677991E+03  0.12509026944E+03 0.  0.
        -24    2    1    2    0    0 -0.30432232164E+02  0.27844788671E+02  0.20688298918E+03  0.22555185043E+03  0.79822384119E+02 0.  0.
        -13    1    3    3    0    0 -0.24302860425E+02  0.83548374373E+01 -0.10332220123E+02  0.27698142647E+02  0.00000000000E+00 0.  1.
         14    1    3    3    0    0 -0.57382652078E+00 -0.10211182782E+02 -0.23122793230E+03  0.23145400020E+03  0.00000000000E+00 0. -1.
         11    1    5    5    0    0 -0.17116706665E+02 -0.17685069478E+02  0.17198049297E+02  0.30025259851E+02  0.00000000000E+00 0. -1.
        -12    1    5    5    0    0 -0.13315525500E+02  0.45529858148E+02  0.18968493989E+03  0.19552659058E+03  0.00000000000E+00 0.  1.
          5    1    4    4  501    0 -0.33087970695E+02 -0.54624605492E+01  0.44408440342E+02  0.55805324599E+02  0.41800000000E+01 0. -1.
         -5    1    4    4    0  501  0.88396889806E+02 -0.20525982777E+02  0.17336564963E+01  0.90861455310E+02  0.41800000000E+01 0. -1.
</event>
<event>
11    1  0.8328696E-009  0.2016221E+03  0.7561462E-02  0.1053383E+00
         22   -1    0    0    0    0  0.00000000000E+00  0.00000000000E+00  0.90696183499E+03  0.90696183499E+03  0.00000000000E+00 0. -1.
         22   -1    0    0    0    0 -0.00000000000E+00 -0.00000000000E+00 -0.32662930905E+03  0.32662930905E+03  0.00000000000E+00 0.  1.
        -24    2    1    2    0    0 -0.51086238321E+02 -0.16018878535E+03 -0.26748329812E+03  0.32558686356E+03  0.78671724606E+02 0.  0.
         25    2    1    2    0    0 -0.15885893703E+02  0.82607617686E+02  0.21939536581E+03  0.26619438638E+03  0.12509494268E+03 0.  0.
         24    2    1    2    0    0  0.66972132023E+02  0.77581167662E+02  0.62842045825E+03  0.64180989410E+03  0.80644675990E+02 0.  0.
        -13    1    5    5    0    0 -0.15988870285E+02  0.26428179973E+02  0.20521221839E+03  0.20752384742E+03  0.00000000000E+00 0.  1.
         14    1    5    5    0    0  0.82961002309E+02  0.51152987689E+02  0.42320823986E+03  0.43428604668E+03  0.00000000000E+00 0. -1.
         11    1    3    3    0    0  0.24700988372E+01  0.72272373323E+01 -0.24696687540E+02  0.25850739316E+02  0.00000000000E+00 0. -1.
        -12    1    3    3    0    0 -0.53556337158E+02 -0.16741602268E+03 -0.24278661058E+03  0.29973612424E+03  0.00000000000E+00 0.  1.
          5    1    4    4  501    0  0.16315200217E+02  0.43680023532E+02  0.64003340630E+01  0.47250046455E+02  0.41800000000E+01 0.  1.
         -5    1    4    4    0  501 -0.32201093919E+02  0.38927594155E+02  0.21299503175E+03  0.21894433993E+03  0.41800000000E+01 0.  1.
</event>
<event>
11    1  0.8328696E-009  0.2569568E+03  0.7561462E-02  0.1020257E+00
         22   -1    0    0    0    0  0.00000000000E+00  0.00000000000E+00  0.71257263097E+03  0.71257263097E+03  0.00000000000E+00 0. -1.
         22   -1    0    0    0    0 -0.00000000000E+00 -0.00000000000E+00 -0.87617850628E+03  0.87617850628E+03  0.00000000000E+00 0.  1.
         24    2    1    2    0    0  0.21129379643E+03 -0.26234444993E+02 -0.36973543692E+03  0.43412169952E+03  0.80150122686E+02 0.  0.
         25    2    1    2    0    0 -0.37668110927E+03  0.16476812270E+03 -0.34902299768E+03  0.55362494761E+03  0.12508532032E+03 0.  0.
        -24    2    1    2    0    0  0.16538731284E+03 -0.13853367771E+03  0.55515255930E+03  0.60100449012E+03  0.80420705921E+02 0.  0.
        -11    1    3    3    0    0  0.11359363002E+03  0.62109511353E+01 -0.25922732831E+03  0.28309167497E+03  0.00000000000E+00 0.  1.
         12    1    3    3    0    0  0.97700166415E+02 -0.32445396128E+02 -0.11050810861E+03  0.15103002455E+03  0.00000000000E+00 0. -1.
         11    1    5    5    0    0  0.13819289562E+03 -0.86359875285E+02  0.47043961014E+03  0.49786416948E+03  0.00000000000E+00 0. -1.
        -12    1    5    5    0    0  0.27194417220E+02 -0.52173802426E+02  0.84712949157E+02  0.10314032064E+03  0.00000000000E+00 0.  1.
          5    1    4    4  501    0 -0.26502982456E+03  0.16543751110E+03 -0.21571352430E+03  0.37968430959E+03  0.41800000000E+01 0. -1.
         -5    1    4    4    0  501 -0.11165128471E+03 -0.66938839517E+00 -0.13330947338E+03  0.17394063801E+03  0.41800000000E+01 0. -1.
</event>
<event>
11    1  0.8328696E-009  0.1569660E+03  0.7561462E-02  0.1089966E+00
         22   -1    0    0    0    0  0.00000000000E+00  0.00000000000E+00  0.11340020407E+04  0.11340020407E+04  0.00000000000E+00 0. -1.
         22   -1    0    0    0    0 -0.00000000000E+00 -0.00000000000E+00 -0.43895677144E+03  0.43895677144E+03  0.00000000000E+00 0. -1.
         24    2    1    2    0    0  0.39777586199E+02 -0.86138316433E+02 -0.40116551761E+03  0.42008077998E+03  0.80820933386E+02 0.  0.
         25    2    1    2    0    0 -0.78111580771E+02  0.66218788064E+02  0.22618506694E+03  0.27801737545E+03  0.12509048567E+03 0.  0.
        -24    2    1    2    0    0  0.38333994572E+02  0.19919528370E+02  0.87002571990E+03  0.87486065667E+03  0.81056354088E+02 0.  0.
        -13    1    3    3    0    0  0.51582499536E+02 -0.22079711555E+02 -0.13792822029E+03  0.14890420367E+03  0.00000000000E+00 0.  1.
         14    1    3    3    0    0 -0.11804913337E+02 -0.64058604879E+02 -0.26323729732E+03  0.27117657631E+03  0.00000000000E+00 0. -1.
         13    1    5    5    0    0  0.61897657988E+02  0.18177507826E+01  0.61500666286E+03  0.61811634799E+03  0.00000000000E+00 0. -1.
        -14    1    5    5    0    0 -0.23563663417E+02  0.18101777587E+02  0.25501905704E+03  0.25674430868E+03  0.00000000000E+00 0.  1.
          5    1    4    4  501    0  0.89755172627E+01 -0.30130802141E+02  0.44972810564E+02  0.55031365946E+02  0.41800000000E+01 0.  1.
         -5    1    4    4    0  501 -0.87087098033E+02  0.96349590205E+02  0.18121225637E+03  0.22298600951E+03  0.41800000000E+01 0.  1.
</event>
<event>
11    1  0.8328696E-009  0.3528082E+03  0.7561462E-02  0.9800277E-01
         22   -1    0    0    0    0  0.00000000000E+00  0.00000000000E+00  0.89663939002E+03  0.89663939002E+03  0.00000000000E+00 0.  1.
         22   -1    0    0    0    0 -0.00000000000E+00 -0.00000000000E+00 -0.11767422086E+04  0.11767422086E+04  0.00000000000E+00 0. -1.
         24    2    1    2    0    0  0.29003533401E+03  0.52620220091E+02 -0.66844598441E+03  0.73448421648E+03  0.75879164799E+02 0.  0.
         25    2    1    2    0    0 -0.47142927974E+03 -0.79522056205E+01 -0.33221412536E+03  0.59018816765E+03  0.12508814800E+03 0.  0.
        -24    2    1    2    0    0  0.18139394573E+03 -0.44668014470E+02  0.72055729124E+03  0.74870921444E+03  0.80397032040E+02 0.  0.
        -13    1    3    3    0    0  0.42824081182E+02  0.29457831665E+02 -0.75613650090E+02  0.91755598497E+02  0.00000000000E+00 0.  1.
         14    1    3    3    0    0  0.24721125283E+03  0.23162388425E+02 -0.59283233432E+03  0.64272861799E+03  0.00000000000E+00 0. -1.
         13    1    5    5    0    0 -0.29389339563E+01 -0.13105699534E+02  0.24210196699E+02  0.27686283919E+02  0.00000000000E+00 0. -1.
        -14    1    5    5    0    0  0.18433287969E+03 -0.31562314937E+02  0.69634709454E+03  0.72102293052E+03  0.00000000000E+00 0.  1.
          5    1    4    4  501    0 -0.19396194476E+03  0.48582280302E+02 -0.98159497319E+02  0.22278741726E+03  0.41800000000E+01 0.  1.
         -5    1    4    4    0  501 -0.27746733499E+03 -0.56534485922E+02 -0.23405462804E+03  0.36740075039E+03  0.41800000000E+01 0.  1.
</event>
<event>
11    1  0.8328696E-009  0.1867965E+03  0.7561462E-02  0.1064274E+00
         22   -1    0    0    0    0  0.00000000000E+00  0.00000000000E+00  0.92633376290E+03  0.92633376290E+03  0.00000000000E+00 0. -1.
         22   -1    0    0    0    0 -0.00000000000E+00 -0.00000000000E+00 -0.47367303602E+03  0.47367303602E+03  0.00000000000E+00 0. -1.
         24    2    1    2    0    0 -0.11541919822E+03  0.74183874604E+02 -0.42305816665E+03  0.45332519648E+03  0.87753534551E+02 0.  0.
         25    2    1    2    0    0  0.20124475870E+03 -0.59547729195E+02  0.60261379780E+03  0.65025883799E+03  0.12509109529E+03 0.  0.
        -24    2    1    2    0    0 -0.85825560479E+02 -0.14636145409E+02  0.27310509573E+03  0.29642276445E+03  0.75497141578E+02 0.  0.
        -11    1    3    3    0    0 -0.50014887843E+02 -0.41965082800E+01 -0.22472744280E+03  0.23026402940E+03  0.00000000000E+00 0.  1.
         12    1    3    3    0    0 -0.65404310379E+02  0.78380382884E+02 -0.19833072385E+03  0.22306116708E+03  0.00000000000E+00 0. -1.
         11    1    5    5    0    0 -0.66721232275E+02  0.20684545738E+02  0.12749814737E+03  0.14538002219E+03  0.00000000000E+00 0. -1.
        -12    1    5    5    0    0 -0.19104328204E+02 -0.35320691147E+02  0.14560694836E+03  0.15104274226E+03  0.00000000000E+00 0.  1.
          5    1    4    4  501    0 -0.26620462194E+01  0.97099647067E+01  0.64949219493E+00  0.10920812460E+02  0.41800000000E+01 0. -1.
         -5    1    4    4    0  501  0.20390680492E+03 -0.69257693902E+02  0.60196430561E+03  0.63933802553E+03  0.41800000000E+01 0. -1.
</event>
<event>
11    1  0.8328696E-009  0.1352703E+03  0.7561462E-02  0.1112958E+00
         22   -1    0    0    0    0  0.00000000000E+00  0.00000000000E+00  0.12904231969E+04  0.12904231969E+04  0.00000000000E+00 0. -1.
         22   -1    0    0    0    0 -0.00000000000E+00 -0.00000000000E+00 -0.17728694851E+03  0.17728694851E+03  0.00000000000E+00 0.  1.
        -24    2    1    2    0    0 -0.61296976381E+01  0.19446078235E+02 -0.11330292987E+03  0.14084171223E+03  0.81136371846E+02 0.  0.
         25    2    1    2    0    0 -0.81843234815E+01 -0.68207046642E+02  0.57216247163E+02  0.15375681236E+03  0.12509306154E+03 0.  0.
         24    2    1    2    0    0  0.14314021120E+02  0.48760968407E+02  0.11692229311E+04  0.11731116208E+04  0.80784213087E+02 0.  0.
        -11    1    5    5    0    0 -0.12358725775E+02  0.24572560323E+02  0.11388022886E+03  0.11715483494E+03  0.00000000000E+00 0.  1.
         12    1    5    5    0    0  0.26672746895E+02  0.24188408084E+02  0.10553427022E+04  0.10559567859E+04  0.00000000000E+00 0. -1.
         11    1    3    3    0    0  0.13868866650E+02 -0.54152338091E+01  0.69478855155E+01  0.16429952297E+02  0.00000000000E+00 0. -1.
        -12    1    3    3    0    0 -0.19998564288E+02  0.24861312044E+02 -0.12025081538E+03  0.12441175993E+03  0.00000000000E+00 0.  1.
          5    1    4    4  501    0 -0.19725667289E-01 -0.92885449162E+02  0.24738344130E+01  0.93012361070E+02  0.41800000000E+01 0.  1.
         -5    1    4    4    0  501 -0.81645978142E+01  0.24678402520E+02  0.54742412750E+02  0.60744451287E+02  0.41800000000E+01 0.  1.
</event>
<event>
11    1  0.1069075E-008  0.3138637E+03  0.7561462E-02  0.9944887E-01
         22   -1    0    0    0    0  0.00000000000E+00  0.00000000000E+00  0.14435453079E+04  0.14435453079E+04  0.00000000000E+00 0. -1.
         22   -1    0    0    0    0 -0.00000000000E+00 -0.00000000000E+00 -0.11412379565E+04  0.11412379565E+04  0.00000000000E+00 0. -1.
        -24    2    1    2    0    0 -0.90615104935E+02 -0.83340027103E+02 -0.72560959889E+03  0.74263292963E+03  0.99185285274E+02 0.  0.
         25    2    1    2    0    0 -0.15097547865E+03  0.24200057431E+03 -0.32858097945E+03  0.45273691864E+03  0.12508950527E+03 0.  0.
         24    2    1    2    0    0  0.24159058359E+03 -0.15866054721E+03  0.13564979297E+04  0.13894134161E+04  0.82727433274E+02 0.  0.
        -11    1    5    5    0    0 -0.29957518105E+01 -0.66127778576E+00  0.82760746483E+02  0.82817588564E+02  0.00000000000E+00 0.  1.
         12    1    5    5    0    0  0.24458633540E+03 -0.15799926942E+03  0.12737371833E+04  0.13065958276E+04  0.00000000000E+00 0. -1.
         13    1    3    3    0    0 -0.87924738918E+02 -0.93602129440E+02 -0.71844253436E+03  0.72982997577E+03  0.00000000000E+00 0. -1.
        -14    1    3    3    0    0 -0.26903660164E+01  0.10262102337E+02 -0.71670645236E+01  0.12802953861E+02  0.00000000000E+00 0.  1.
          5    1    4    4  501    0 -0.65435597347E+02  0.14130845488E+03 -0.89801734385E+02  0.17981023530E+03  0.41800000000E+01 0.  1.
         -5    1    4    4    0  501 -0.85539881304E+02  0.10069211944E+03 -0.23877924506E+03  0.27292668335E+03  0.41800000000E+01 0.  1.
</event>
<event>
11    1  0.8328696E-009  0.1945293E+03  0.7561462E-02  0.1058461E+00
         22   -1    0    0    0    0  0.00000000000E+00  0.00000000000E+00  0.19831792035E+03  0.19831792035E+03  0.00000000000E+00 0. -1.
         22   -1    0    0    0    0 -0.00000000000E+00 -0.00000000000E+00 -0.13602161646E+04  0.13602161646E+04  0.00000000000E+00 0. -1.
         24    2    1    2    0    0 -0.68839913422E+02 -0.13398684201E+03 -0.12527690597E+04  0.12642712234E+04  0.79120174021E+02 0.  0.
         25    2    1    2    0    0  0.64507743661E+02  0.10441348699E+03  0.87546229349E+01  0.17546508634E+03  0.12509167775E+03 0.  0.
        -24    2    1    2    0    0  0.43321697617E+01  0.29573355025E+02  0.82116192477E+02  0.11879777523E+03  0.80476650712E+02 0.  0.
        -11    1    3    3    0    0 -0.63698079288E+02 -0.55606215201E+02 -0.46764661154E+03  0.47522926021E+03  0.00000000000E+00 0.  1.
         12    1    3    3    0    0 -0.51418341340E+01 -0.78380626810E+02 -0.78512244814E+03  0.78904196320E+03  0.00000000000E+00 0. -1.
         11    1    5    5    0    0  0.21980126367E+02  0.23756349055E+02  0.92158109663E+02  0.97676032128E+02  0.00000000000E+00 0. -1.
        -12    1    5    5    0    0 -0.17647956605E+02  0.58170059699E+01 -0.10041917186E+02  0.21121743100E+02  0.00000000000E+00 0.  1.
          5    1    4    4  501    0  0.65070867658E+01  0.29074596153E+02  0.60185586795E+02  0.67286340200E+02  0.41800000000E+01 0. -1.
         -5    1    4    4    0  501  0.58000656895E+02  0.75338890834E+02 -0.51430963860E+02  0.10817874614E+03  0.41800000000E+01 0. -1.
</event>
<event>
11    1  0.8328696E-009  0.2087043E+03  0.7561462E-02  0.1048533E+00
         22   -1    0    0    0    0  0.00000000000E+00  0.00000000000E+00  0.14293645713E+04  0.14293645713E+04  0.00000000000E+00 0.  1.
         22   -1    0    0    0    0 -0.00000000000E+00 -0.00000000000E+00 -0.30121577535E+03  0.30121577535E+03  0.00000000000E+00 0. -1.
        -24    2    1    2    0    0  0.12414571604E+03 -0.93139422458E+02 -0.84838552140E+02  0.19456827545E+03  0.81068631757E+02 0.  0.
         25    2    1    2    0    0 -0.28593097595E+03  0.84550066388E+02  0.14174838852E+02  0.32366123797E+03  0.12510169534E+03 0.  0.
         24    2    1    2    0    0  0.16178525991E+03  0.85893560703E+01  0.11988125092E+04  0.12123508332E+04  0.79967888174E+02 0.  0.
        -13    1    5    5    0    0  0.70972636410E+02  0.13831303681E+02  0.28529316122E+03  0.29431379158E+03  0.00000000000E+00 0.  1.
         14    1    5    5    0    0  0.90812623502E+02 -0.52419476111E+01  0.91351934799E+03  0.91803704161E+03  0.00000000000E+00 0. -1.
         11    1    3    3    0    0  0.11567400016E+03 -0.10327792593E+03 -0.59692463839E+02  0.16616255456E+03  0.00000000000E+00 0. -1.
        -12    1    3    3    0    0  0.84717158778E+01  0.10138503471E+02 -0.25146088301E+02  0.28405720892E+02  0.00000000000E+00 0.  1.
          5    1    4    4  501    0 -0.25465696658E+03  0.10635878946E+03  0.37845561928E+02  0.27858952184E+03  0.41800000000E+01 0. -1.
         -5    1    4    4    0  501 -0.31274009368E+02 -0.21808723072E+02 -0.23670723076E+02  0.45071716130E+02  0.41800000000E+01 0. -1.
</event>
<event>
11    1  0.8328696E-009  0.2905224E+03  0.7561462E-02  0.1004284E+00
         22   -1    0    0    0    0  0.00000000000E+00  0.00000000000E+00  0.17178554112E+03  0.17178554112E+03  0.00000000000E+00 0. -1.
         22   -1    0    0    0    0 -0.00000000000E+00 -0.00000000000E+00 -0.26178957890E+04  0.26178957890E+04  0.00000000000E+00 0.  1.
         24    2    1    2    0    0 -0.18146757474E+03  0.16752064619E+03 -0.13959461869E+04  0.14200355898E+04  0.82714401576E+02 0.  0.
         25    2    1    2    0    0  0.25629980171E+03 -0.14445381815E+03 -0.11652717927E+04  0.12083312885E+04  0.12509859328E+03 0.  0.
        -24    2    1    2    0    0 -0.74832226967E+02 -0.23066828044E+02  0.11510773167E+03  0.16131445176E+03  0.81490009863E+02 0.  0.
        -11    1    3    3    0    0 -0.91702101247E+02  0.67480588570E+02 -0.85945631446E+03  0.86696485608E+03  0.00000000000E+00 0.  1.
         12    1    3    3    0    0 -0.89765473497E+02  0.10004005762E+03 -0.53648987240E+03  0.55307073376E+03  0.00000000000E+00 0. -1.
         11    1    5    5    0    0 -0.75010015499E+02 -0.45546264406E+02  0.75462197429E+02  0.11573896434E+03  0.00000000000E+00 0. -1.
        -12    1    5    5    0    0  0.17778853230E+00  0.22479436362E+02  0.39645534245E+02  0.45575487419E+02  0.00000000000E+00 0.  1.
          5    1    4    4  501    0  0.20043814489E+03 -0.12217266619E+03 -0.68125313290E+03  0.72057262908E+03  0.41800000000E+01 0. -1.
         -5    1    4    4    0  501  0.55861656824E+02 -0.22281151962E+02 -0.48401865979E+03  0.48775865944E+03  0.41800000000E+01 0. -1.
</event>
<event>
11    1  0.8328696E-009  0.1361157E+03  0.7561462E-02  0.1111975E+00
         22   -1    0    0    0    0  0.00000000000E+00  0.00000000000E+00  0.11509439624E+04  0.11509439624E+04  0.00000000000E+00 0. -1.
         22   -1    0    0    0    0 -0.00000000000E+00 -0.00000000000E+00 -0.33179073100E+03  0.33179073100E+03  0.00000000000E+00 0.  1.
        -24    2    1    2    0    0 -0.37339824508E+02 -0.23247449137E+02 -0.14740908573E+03  0.17265901250E+03  0.78402740121E+02 0.  0.
         25    2    1    2    0    0  0.68823814934E+02  0.37387051394E+02 -0.13805668706E+03  0.20209107629E+03  0.12508655067E+03 0.  0.
         24    2    1    2    0    0 -0.31483990426E+02 -0.14139602257E+02  0.11046190042E+04  0.11079846046E+04  0.79092158931E+02 0.  0.
        -13    1    5    5    0    0 -0.33076842458E+02 -0.48856328134E+00  0.16595085185E+03  0.16921584273E+03  0.00000000000E+00 0.  1.
         14    1    5    5    0    0  0.15928520318E+01 -0.13651038976E+02  0.93866815232E+03  0.93876876185E+03  0.00000000000E+00 0. -1.
         13    1    3    3    0    0 -0.48100745957E+02  0.48301144032E+01 -0.45429827820E+02  0.66339136432E+02  0.00000000000E+00 0. -1.
        -14    1    3    3    0    0  0.10760921449E+02 -0.28077563540E+02 -0.10197925791E+03  0.10631987607E+03  0.00000000000E+00 0.  1.
          5    1    4    4  501    0  0.57983567731E+02  0.97598949895E+01 -0.15627124464E+03  0.16701953173E+03  0.41800000000E+01 0.  1.
         -5    1    4    4    0  501  0.10840247203E+02  0.27627156404E+02  0.18214557575E+02  0.35071544563E+02  0.41800000000E+01 0.  1.
</event>
<event>
11    1  0.8328696E-009  0.2195589E+03  0.7561462E-02  0.1041494E+00
         22   -1    0    0    0    0  0.00000000000E+00  0.00000000000E+00  0.89287060248E+02  0.89287060248E+02  0.00000000000E+00 0. -1.
         22   -1    0    0    0    0 -0.00000000000E+00 -0.00000000000E+00 -0.11653868092E+04  0.11653868092E+04  0.00000000000E+00 0. -1.
         24    2    1    2    0    0  0.10820404055E+03  0.11694788697E+03 -0.58683080273E+03  0.61421297981E+03  0.86615650300E+02 0.  0.
         25    2    1    2    0    0 -0.14240023304E+03 -0.19738110530E+03 -0.42736996518E+03  0.50747393244E+03  0.12509027888E+03 0.  0.
        -24    2    1    2    0    0  0.34196192483E+02  0.80433218329E+02 -0.61898981041E+02  0.13298695720E+03  0.78836316124E+02 0.  0.
        -13    1    3    3    0    0  0.87967625769E+02  0.42931406283E+02 -0.40869310250E+03  0.42025166372E+03  0.00000000000E+00 0.  1.
         14    1    3    3    0    0  0.20236414783E+02  0.74016480683E+02 -0.17813770023E+03  0.19396131609E+03  0.00000000000E+00 0. -1.
         13    1    5    5    0    0  0.58226446988E+02  0.70416278705E+02 -0.52013846995E+02  0.10513901138E+03  0.00000000000E+00 0. -1.
        -14    1    5    5    0    0 -0.24030254505E+02  0.10016939625E+02 -0.98851340455E+01  0.27847945815E+02  0.00000000000E+00 0.  1.
          5    1    4    4  501    0 -0.22310346285E+02 -0.10083625151E+03 -0.26075295408E+03  0.28049113468E+03  0.41800000000E+01 0. -1.
         -5    1    4    4    0  501 -0.12008988675E+03 -0.96544853785E+02 -0.16661701110E+03  0.22698279776E+03  0.41800000000E+01 0. -1.
</event>
<event>
11    1  0.8328696E-009  0.1438965E+03  0.7561462E-02  0.1103284E+00
         22   -1    0    0    0    0  0.00000000000E+00  0.00000000000E+00  0.23356731702E+03  0.23356731702E+03  0.00000000000E+00 0. -1.
         22   -1    0    0    0    0 -0.00000000000E+00 -0.00000000000E+00 -0.17450268815E+04  0.17450268815E+04  0.00000000000E+00 0. -1.
         24    2    1    2    0    0  0.29478914793E+02  0.30016839038E+02 -0.15193663253E+04  0.15217959434E+04  0.74958960434E+02 0.  0.
         25    2    1    2    0    0  0.40355659070E+02 -0.73601375725E+01 -0.19000391854E+03  0.23115340892E+03  0.12509060136E+03 0.  0.
        -24    2    1    2    0    0 -0.69834573863E+02 -0.22656701465E+02  0.19791067940E+03  0.22564484619E+03  0.79729328111E+02 0.  0.
        -11    1    3    3    0    0 -0.21203319793E+02  0.24159161068E+02 -0.41054064256E+03  0.41179711634E+03  0.00000000000E+00 0.  1.
         12    1    3    3    0    0  0.50682234585E+02  0.58576779701E+01 -0.11088256828E+04  0.11099988270E+04  0.00000000000E+00 0. -1.
         13    1    5    5    0    0 -0.56432613430E+02 -0.47600666591E+02  0.10387376144E+03  0.12743712816E+03  0.00000000000E+00 0. -1.
        -14    1    5    5    0    0 -0.13401960433E+02  0.24943965126E+02  0.94036917966E+02  0.98207718027E+02  0.00000000000E+00 0.  1.
          5    1    4    4  501    0  0.61073358012E+02  0.93077868549E+01 -0.19427125296E+03  0.20390042198E+03  0.41800000000E+01 0.  1.
         -5    1    4    4    0  501 -0.20717698941E+02 -0.16667924427E+02  0.42673344210E+01  0.27252986941E+02  0.41800000000E+01 0.  1.
</event>
<event>
11    1  0.8328696E-009  0.1531728E+03  0.7561462E-02  0.1093680E+00
         22   -1    0    0    0    0  0.00000000000E+00  0.00000000000E+00  0.17885369049E+04  0.17885369049E+04  0.00000000000E+00 0. -1.
         22   -1    0    0    0    0 -0.00000000000E+00 -0.00000000000E+00 -0.11687340795E+04  0.11687340795E+04  0.00000000000E+00 0.  1.
         24    2    1    2    0    0 -0.55496261007E+02  0.69036418846E+02 -0.89611603335E+03  0.90403088416E+03  0.80012700069E+02 0.  0.
         25    2    1    2    0    0  0.18468665424E+02 -0.94833562564E+02 -0.24409833841E+03  0.29081121447E+03  0.12511062086E+03 0.  0.
        -24    2    1    2    0    0  0.37027595584E+02  0.25797143717E+02  0.17600171971E+04  0.17624288857E+04  0.80364841198E+02 0.  0.
        -13    1    3    3    0    0 -0.64027723086E+02  0.67097223546E+02 -0.54711356546E+03  0.55491876904E+03  0.00000000000E+00 0.  1.
         14    1    3    3    0    0  0.85314620787E+01  0.19391952998E+01 -0.34900246789E+03  0.34911211511E+03  0.00000000000E+00 0. -1.
         13    1    5    5    0    0  0.31586976980E+01  0.16914469526E+02  0.14961195247E+04  0.14962184697E+04  0.00000000000E+00 0. -1.
        -14    1    5    5    0    0  0.33868897886E+02  0.88826741911E+01  0.26389767239E+03  0.26621041610E+03  0.00000000000E+00 0.  1.
          5    1    4    4  501    0  0.12832377310E+01 -0.60361291549E+01 -0.17933894868E+03  0.17949376721E+03  0.41800000000E+01 0.  1.
         -5    1    4    4    0  501  0.17185427693E+02 -0.88797433409E+02 -0.64759389735E+02  0.11131744726E+03  0.41800000000E+01 0.  1.
</event>
<event>
11    1  0.8328696E-009  0.1376051E+03  0.7561462E-02  0.1110263E+00
         22   -1    0    0    0    0  0.00000000000E+00  0.00000000000E+00  0.36539751573E+03  0.36539751573E+03  0.00000000000E+00 0.  1.
         22   -1    0    0    0    0 -0.00000000000E+00 -0.00000000000E+00 -0.32665193271E+03  0.32665193271E+03  0.00000000000E+00 0.  1.
        -24    2    1    2    0    0  0.28449827989E+02  0.53144236716E+02 -0.26018418694E+03  0.27845968915E+03  0.78805359832E+02 0.  0.
         25    2    1    2    0    0 -0.18319291877E+02  0.12775030050E+02  0.36625885586E+02  0.13223788180E+03  0.12508638632E+03 0.  0.
         24    2    1    2    0    0 -0.10130536113E+02 -0.65919266766E+02  0.26230388438E+03  0.28135187748E+03  0.76860742322E+02 0.  0.
        -13    1    5    5    0    0 -0.30683503728E+01 -0.56366189232E+02  0.26343767864E+03  0.26941784014E+03  0.00000000000E+00 0.  1.
         14    1    5    5    0    0 -0.70621857397E+01 -0.95530775348E+01 -0.11337942574E+01  0.11934037340E+02  0.00000000000E+00 0. -1.
         13    1    3    3    0    0  0.27326857042E+02  0.86358738885E+01 -0.21944941069E+02  0.36095925977E+02  0.00000000000E+00 0. -1.
        -14    1    3    3    0    0  0.11229709470E+01  0.44508362828E+02 -0.23823924587E+03  0.24236376317E+03  0.00000000000E+00 0.  1.
          5    1    4    4  501    0 -0.64367458227E+01  0.54428774341E+01 -0.46704324734E+02  0.47642659040E+02  0.41800000000E+01 0.  1.
         -5    1    4    4    0  501 -0.11882546054E+02  0.73321526158E+01  0.83330210320E+02  0.84595222765E+02  0.41800000000E+01 0.  1.
</event>
<event>
11    1  0.8328696E-009  0.1297755E+03  0.7561462E-02  0.1119545E+00
         22   -1    0    0    0    0  0.00000000000E+00  0.00000000000E+00  0.10000529893E+04  0.10000529893E+04  0.00000000000E+00 0. -1.
         22   -1    0    0    0    0 -0.00000000000E+00 -0.00000000000E+00 -0.21702359823E+03  0.21702359823E+03  0.00000000000E+00 0.  1.
         24    2    1    2    0    0  0.20227545622E+02  0.33333009345E+02 -0.14830199531E+03  0.17302777997E+03  0.80155397286E+02 0.  0.
         25    2    1    2    0    0  0.79933274278E+01 -0.13979140002E+02  0.19024905507E+02  0.12755121009E+03  0.12509218412E+03 0.  0.
        -24    2    1    2    0    0 -0.28220873050E+02 -0.19353869343E+02  0.91230648086E+03  0.91649759745E+03  0.80583752591E+02 0.  0.
        -13    1    3    3    0    0  0.51446090462E+02  0.20536230618E+02 -0.92789103040E+02  0.10806597353E+03  0.00000000000E+00 0.  1.
         14    1    3    3    0    0 -0.31218544840E+02  0.12796778727E+02 -0.55512892272E+02  0.64961806441E+02  0.00000000000E+00 0. -1.
         11    1    5    5    0    0 -0.21596013079E+02 -0.10566733003E+02  0.89859305027E+03  0.89891463089E+03  0.00000000000E+00 0. -1.
        -12    1    5    5    0    0 -0.66248599706E+01 -0.87871363403E+01  0.13713430587E+02  0.17582966563E+02  0.00000000000E+00 0.  1.
          5    1    4    4  501    0 -0.34586724268E+02  0.33844328422E+02 -0.19910931865E+02  0.52493786962E+02  0.41800000000E+01 0.  1.
         -5    1    4    4    0  501  0.42580051696E+02 -0.47823468424E+02  0.38935837372E+02  0.75057423126E+02  0.41800000000E+01 0.  1.
</event>
<event>
11    1  0.8328696E-009  0.1598891E+03  0.7561462E-02  0.1087182E+00
         22   -1    0    0    0    0  0.00000000000E+00  0.00000000000E+00  0.10820506770E+03  0.10820506770E+03  0.00000000000E+00 0. -1.
         22   -1    0    0    0    0 -0.00000000000E+00 -0.00000000000E+00 -0.79808793941E+03  0.79808793941E+03  0.00000000000E+00 0. -1.
         24    2    1    2    0    0  0.36287100328E+02  0.87087159098E+02 -0.53011779990E+03  0.54453195317E+03  0.81174129648E+02 0.  0.
         25    2    1    2    0    0 -0.11787817206E+03 -0.92375305874E+02 -0.15260291052E+03  0.24771646251E+03  0.12508931575E+03 0.  0.
        -24    2    1    2    0    0  0.81591071736E+02  0.52881467757E+01 -0.71621612743E+01  0.11404459142E+03  0.79182098959E+02 0.  0.
        -13    1    3    3    0    0  0.82113047490E+01 -0.13841601901E+02 -0.12734518301E+03  0.12835813611E+03  0.00000000000E+00 0.  1.
         14    1    3    3    0    0  0.28075795579E+02  0.10092876100E+03 -0.40277261689E+03  0.41617381707E+03  0.00000000000E+00 0. -1.
         13    1    5    5    0    0  0.45276396444E+02  0.41585984254E+02 -0.11402846340E+02  0.62524963543E+02  0.00000000000E+00 0. -1.
        -14    1    5    5    0    0  0.36314675291E+02 -0.36297837478E+02  0.42406850655E+01  0.51519627881E+02  0.00000000000E+00 0.  1.
          5    1    4    4  501    0 -0.13526580875E+03 -0.45925548047E+02 -0.12944399182E+03  0.19281912353E+03  0.41800000000E+01 0. -1.
         -5    1    4    4    0  501  0.17387636687E+02 -0.46449757827E+02 -0.23158918707E+02  0.54897338983E+02  0.41800000000E+01 0. -1.
</event>
<event>
11    1  0.8328696E-009  0.1898374E+03  0.7561462E-02  0.1061952E+00
         22   -1    0    0    0    0  0.00000000000E+00  0.00000000000E+00  0.33777703100E+04  0.33777703100E+04  0.00000000000E+00 0. -1.
         22   -1    0    0    0    0 -0.00000000000E+00 -0.00000000000E+00 -0.12929064130E+03  0.12929064130E+03  0.00000000000E+00 0. -1.
        -24    2    1    2    0    0  0.44117051079E+02 -0.13479867373E+03 -0.49636812323E+02  0.17047735316E+03  0.80509118531E+02 0.  0.
         25    2    1    2    0    0 -0.22403344001E+02  0.15150374467E+03  0.50801227944E+03  0.54514098702E+03  0.12508767004E+03 0.  0.
         24    2    1    2    0    0 -0.21713707077E+02 -0.16705070940E+02  0.27901042016E+04  0.27914426111E+04  0.81974697401E+02 0.  0.
        -11    1    5    5    0    0 -0.49425522111E+02 -0.16227738883E+00  0.12103250715E+04  0.12113338463E+04  0.00000000000E+00 0.  1.
         12    1    5    5    0    0  0.27711815034E+02 -0.16542793552E+02  0.15797791301E+04  0.15801087648E+04  0.00000000000E+00 0. -1.
         13    1    3    3    0    0  0.63389830470E+02 -0.12702950674E+03 -0.39519114257E+02  0.14736528282E+03  0.00000000000E+00 0. -1.
        -14    1    3    3    0    0 -0.19272779392E+02 -0.77691669986E+01 -0.10117698066E+02  0.23112070342E+02  0.00000000000E+00 0.  1.
          5    1    4    4  501    0 -0.47188604153E+01  0.15644853652E+03  0.32066979211E+03  0.35685431228E+03  0.41800000000E+01 0.  1.
         -5    1    4    4    0  501 -0.17684483586E+02 -0.49447918438E+01  0.18734248732E+03  0.18828667473E+03  0.41800000000E+01 0.  1.
</event>
<event>
11    1  0.8328696E-009  0.1437298E+03  0.7561462E-02  0.1103464E+00
         22   -1    0    0    0    0  0.00000000000E+00  0.00000000000E+00  0.12797268283E+04  0.12797268283E+04  0.00000000000E+00 0.  1.
         22   -1    0    0    0    0 -0.00000000000E+00 -0.00000000000E+00 -0.52867649905E+03  0.52867649905E+03  0.00000000000E+00 0. -1.
         24    2    1    2    0    0 -0.42024890386E+02 -0.59055003709E+02 -0.48365612689E+03  0.49568319190E+03  0.80777427429E+02 0.  0.
         25    2    1    2    0    0  0.49276307500E+02  0.88902147690E+01  0.85794463744E+02  0.15973465600E+03  0.12508908793E+03 0.  0.
        -24    2    1    2    0    0 -0.72514171136E+01  0.50164788940E+02  0.11489119924E+04  0.11529854795E+04  0.82508547979E+02 0.  0.
        -11    1    3    3    0    0 -0.25593895520E+02 -0.44751061703E+02 -0.11096350393E+03  0.12235442050E+03  0.00000000000E+00 0.  1.
         12    1    3    3    0    0 -0.16430994866E+02 -0.14303942007E+02 -0.37269262295E+03  0.37332877139E+03  0.00000000000E+00 0. -1.
         11    1    5    5    0    0 -0.19520871415E+02  0.54430696553E+02  0.42046156114E+03  0.42441923796E+03  0.00000000000E+00 0. -1.
        -12    1    5    5    0    0  0.12269454302E+02 -0.42659076125E+01  0.72845043124E+03  0.72856624150E+03  0.00000000000E+00 0.  1.
          5    1    4    4  501    0  0.89812359575E+02  0.18051380723E+02  0.48498374651E+02  0.10373850308E+03  0.41800000000E+01 0.  1.
         -5    1    4    4    0  501 -0.40536052075E+02 -0.91611659541E+01  0.37296089093E+02  0.55996152913E+02  0.41800000000E+01 0.  1.
</event>
<event>
11    1  0.8731000E-009  0.1733632E+03  0.7561462E-02  0.1075141E+00
         22   -1    0    0    0    0  0.00000000000E+00  0.00000000000E+00  0.14974001871E+03  0.14974001871E+03  0.00000000000E+00 0. -1.
         22   -1    0    0    0    0 -0.00000000000E+00 -0.00000000000E+00 -0.29936808454E+04  0.29936808454E+04  0.00000000000E+00 0.  1.
         24    2    1    2    0    0 -0.60533678403E+02  0.25368525793E+02 -0.25283933622E+04  0.25306211530E+04  0.83441823126E+02 0.  0.
         25    2    1    2    0    0 -0.43095275283E+02 -0.92035308079E+02 -0.40776454874E+03  0.43846082675E+03  0.12509304016E+03 0.  0.
        -24    2    1    2    0    0  0.10362895369E+03  0.66666782286E+02  0.92217084265E+02  0.17433888431E+03  0.81894053809E+02 0.  0.
        -11    1    3    3    0    0  0.27771357791E+01  0.16532982842E+02 -0.15740513426E+04  0.15741406167E+04  0.00000000000E+00 0.  1.
         12    1    3    3    0    0 -0.63310814182E+02  0.88355429506E+01 -0.95434201953E+03  0.95648053626E+03  0.00000000000E+00 0. -1.
         11    1    5    5    0    0  0.10023849005E+03  0.77393800420E+02  0.59845183209E+02  0.14006784494E+03  0.00000000000E+00 0. -1.
        -12    1    5    5    0    0  0.33904636314E+01 -0.10727018134E+02  0.32371901055E+02  0.34271039372E+02  0.00000000000E+00 0.  1.
          5    1    4    4  501    0 -0.72580572371E+02 -0.71192464332E+02 -0.37807194557E+03  0.39152544603E+03  0.41800000000E+01 0.  1.
         -5    1    4    4    0  501  0.29485297088E+02 -0.20842843747E+02 -0.29692603173E+02  0.46935380717E+02  0.41800000000E+01 0.  1.
</event>
<event>
11    1  0.8328696E-009  0.1397179E+03  0.7561462E-02  0.1107874E+00
         22   -1    0    0    0    0  0.00000000000E+00  0.00000000000E+00  0.35792575898E+03  0.35792575898E+03  0.00000000000E+00 0. -1.
         22   -1    0    0    0    0 -0.00000000000E+00 -0.00000000000E+00 -0.11545989932E+04  0.11545989932E+04  0.00000000000E+00 0.  1.
        -24    2    1    2    0    0 -0.21209498366E+02 -0.23500582222E+02 -0.11114597936E+04  0.11148533536E+04  0.80950646357E+02 0.  0.
         25    2    1    2    0    0 -0.38553778400E+02  0.49807026870E+02  0.20286356743E+03  0.24651243059E+03  0.12509043805E+03 0.  0.
         24    2    1    2    0    0  0.59763276766E+02 -0.26306444649E+02  0.11192299196E+03  0.15115896795E+03  0.77837003949E+02 0.  0.
        -11    1    5    5    0    0  0.47375198386E+02 -0.11913746091E-01  0.14578508830E+02  0.49567554749E+02  0.00000000000E+00 0.  1.
         12    1    5    5    0    0  0.12388078380E+02 -0.26294530903E+02  0.97344483128E+02  0.10159141320E+03  0.00000000000E+00 0. -1.
         11    1    3    3    0    0  0.18143391625E+02  0.20838493013E+02 -0.34726829736E+03  0.34836575004E+03  0.00000000000E+00 0. -1.
        -12    1    3    3    0    0 -0.39352889991E+02 -0.44339075235E+02 -0.76419149622E+03  0.76648760358E+03  0.00000000000E+00 0.  1.
          5    1    4    4  501    0  0.11606750321E+02  0.79922103119E+02  0.10689583157E+03  0.13403898846E+03  0.41800000000E+01 0.  1.
         -5    1    4    4    0  501 -0.50160528721E+02 -0.30115076249E+02  0.95967735854E+02  0.11247344213E+03  0.41800000000E+01 0.  1.
</event>
<event>
11    1  0.8328696E-009  0.1618862E+03  0.7561462E-02  0.1085317E+00
         22   -1    0    0    0    0  0.00000000000E+00  0.00000000000E+00  0.13385339535E+04  0.13385339535E+04  0.00000000000E+00 0. -1.
         22   -1    0    0    0    0 -0.00000000000E+00 -0.00000000000E+00 -0.53937678123E+03  0.53937678123E+03  0.00000000000E+00 0.  1.
         24    2    1    2    0    0 -0.23738289241E+02  0.10525312847E+03 -0.48904796177E+03  0.50737197658E+03  0.81343016164E+02 0.  0.
         25    2    1    2    0    0  0.45139204329E+02 -0.25956397949E+02  0.80882203337E+02  0.15780376895E+03  0.12509522899E+03 0.  0.
        -24    2    1    2    0    0 -0.21400915088E+02 -0.79296730524E+02  0.12073229307E+04  0.12127349892E+04  0.79696451698E+02 0.  0.
        -11    1    3    3    0    0 -0.44858718276E+02  0.42748100967E+02 -0.15608387715E+03  0.16793415807E+03  0.00000000000E+00 0.  1.
         12    1    3    3    0    0  0.21120429035E+02  0.62505027506E+02 -0.33296408462E+03  0.33943781851E+03  0.00000000000E+00 0. -1.
         11    1    5    5    0    0 -0.68954318010E+01 -0.88377540666E+02  0.11332084602E+04  0.11366703792E+04  0.00000000000E+00 0. -1.
        -12    1    5    5    0    0 -0.14505483287E+02  0.90808101421E+01  0.74114470425E+02  0.76064609935E+02  0.00000000000E+00 0.  1.
          5    1    4    4  501    0  0.75723647058E+02 -0.54550501291E+02  0.56168367628E+02  0.10900543948E+03  0.41800000000E+01 0. -1.
         -5    1    4    4    0  501 -0.30584442728E+02  0.28594103343E+02  0.24713835708E+02  0.48798329463E+02  0.41800000000E+01 0. -1.
</event>
<event>
11    1  0.8328696E-009  0.3123959E+03  0.7561462E-02  0.9950773E-01
         22   -1    0    0    0    0  0.00000000000E+00  0.00000000000E+00  0.86079884596E+03  0.86079884596E+03  0.00000000000E+00 0. -1.
         22   -1    0    0    0    0 -0.00000000000E+00 -0.00000000000E+00 -0.37662878925E+03  0.37662878925E+03  0.00000000000E+00 0. -1.
        -24    2    1    2    0    0 -0.84911402296E+01 -0.26691729494E+02 -0.49760526883E+02  0.10215024971E+03  0.84699560768E+02 0.  0.
         25    2    1    2    0    0  0.26288700499E+03  0.15361643488E+03 -0.17051865262E+03  0.37071720510E+03  0.12508816414E+03 0.  0.
         24    2    1    2    0    0 -0.25439586476E+03 -0.12692470539E+03  0.70444923622E+03  0.76456018039E+03  0.86466214147E+02 0.  0.
        -11    1    5    5    0    0 -0.76270152887E+02 -0.75882849750E+02  0.19907618557E+03  0.22628890996E+03  0.00000000000E+00 0.  1.
         12    1    5    5    0    0 -0.17812571188E+03 -0.51041855638E+02  0.50537305064E+03  0.53827127043E+03  0.00000000000E+00 0. -1.
         13    1    3    3    0    0 -0.12255493245E+02 -0.48186523326E+02 -0.60101510934E+02  0.78002113827E+02  0.00000000000E+00 0. -1.
        -14    1    3    3    0    0  0.37643530151E+01  0.21494793831E+02  0.10340984052E+02  0.24148135883E+02  0.00000000000E+00 0.  1.
          5    1    4    4  501    0  0.23625857369E+03  0.15345182187E+03 -0.10641401363E+03  0.30117601162E+03  0.41800000000E+01 0. -1.
         -5    1    4    4    0  501  0.26628431304E+02  0.16461301290E+00 -0.64104638996E+02  0.69541193489E+02  0.41800000000E+01 0. -1.
</event>
<event>
11    1  0.8328696E-009  0.1437708E+03  0.7561462E-02  0.1103419E+00
         22   -1    0    0    0    0  0.00000000000E+00  0.00000000000E+00  0.18994641877E+04  0.18994641877E+04  0.00000000000E+00 0. -1.
         22   -1    0    0    0    0 -0.00000000000E+00 -0.00000000000E+00 -0.76433560428E+02  0.76433560428E+02  0.00000000000E+00 0. -1.
         24    2    1    2    0    0  0.55143870942E+02  0.49814661687E+02 -0.24307383250E+02  0.11234178595E+03  0.80668959145E+02 0.  0.
         25    2    1    2    0    0 -0.23371995691E+02 -0.75236035614E+00  0.67084840802E+03  0.68281168536E+03  0.12508954749E+03 0.  0.
        -24    2    1    2    0    0 -0.31771875250E+02 -0.49062301331E+02  0.11764896025E+04  0.11807442768E+04  0.81318515518E+02 0.  0.
        -13    1    3    3    0    0  0.38059748599E+02  0.13725038391E+02  0.26016261549E+02  0.48101632065E+02  0.00000000000E+00 0.  1.
         14    1    3    3    0    0  0.17084122342E+02  0.36089623296E+02 -0.50323644799E+02  0.64240153890E+02  0.00000000000E+00 0. -1.
         11    1    5    5    0    0 -0.55215642830E+02 -0.44091810437E+02  0.67638851904E+03  0.68006932268E+03  0.00000000000E+00 0. -1.
        -12    1    5    5    0    0  0.23443767580E+02 -0.49704908938E+01  0.50010108345E+03  0.50067495413E+03  0.00000000000E+00 0.  1.
          5    1    4    4  501    0  0.20365994767E+02 -0.54101701877E+02  0.28776891198E+03  0.29354758897E+03  0.41800000000E+01 0.  1.
         -5    1    4    4    0  501 -0.43737990458E+02  0.53349341520E+02  0.38307949604E+03  0.38926409638E+03  0.41800000000E+01 0.  1.
</event>
<event>
11    1  0.8328696E-009  0.1748856E+03  0.7561462E-02  0.1073857E+00
         22   -1    0    0    0    0  0.00000000000E+00  0.00000000000E+00  0.23114768286E+03  0.23114768286E+03  0.00000000000E+00 0. -1.
         22   -1    0    0    0    0 -0.00000000000E+00 -0.00000000000E+00 -0.50103095209E+03  0.50103095209E+03  0.00000000000E+00 0.  1.
         24    2    1    2    0    0  0.38119489071E+02 -0.41516030547E+02 -0.18066474232E+03  0.20573860895E+03  0.80696653322E+02 0.  0.
         25    2    1    2    0    0 -0.15261508810E+03  0.69836421982E+02 -0.24093187902E+03  0.31916205991E+03  0.12509100369E+03 0.  0.
        -24    2    1    2    0    0  0.11449559903E+03 -0.28320391435E+02  0.15171335211E+03  0.20727796610E+03  0.77691230217E+02 0.  0.
        -11    1    3    3    0    0  0.38188343475E+02  0.15116639427E+02 -0.63836948143E+02  0.75907959485E+02  0.00000000000E+00 0.  1.
         12    1    3    3    0    0 -0.68854404444E-01 -0.56632669974E+02 -0.11682779417E+03  0.12983064947E+03  0.00000000000E+00 0. -1.
         11    1    5    5    0    0  0.76859690443E+02  0.78294720752E+01  0.12899779869E+03  0.15036337558E+03  0.00000000000E+00 0. -1.
        -12    1    5    5    0    0  0.37635908586E+02 -0.36149863510E+02  0.22715553421E+02  0.56914590521E+02  0.00000000000E+00 0.  1.
          5    1    4    4  501    0 -0.16949191040E+02 -0.55663114162E+01  0.12335660809E+02  0.22088454615E+02  0.41800000000E+01 0.  1.
         -5    1    4    4    0  501 -0.13566589706E+03  0.75402733398E+02 -0.25326753983E+03  0.29707360529E+03  0.41800000000E+01 0.  1.
</event>
<event>
11    1  0.8328696E-009  0.1375456E+03  0.7561462E-02  0.1110331E+00
         22   -1    0    0    0    0  0.00000000000E+00  0.00000000000E+00  0.15098001656E+04  0.15098001656E+04  0.00000000000E+00 0. -1.
         22   -1    0    0    0    0 -0.00000000000E+00 -0.00000000000E+00 -0.29250832587E+03  0.29250832587E+03  0.00000000000E+00 0.  1.
         24    2    1    2    0    0  0.13814531152E+01  0.30483370699E+02 -0.25425095927E+03  0.26857153685E+03  0.80968980580E+02 0.  0.
         25    2    1    2    0    0  0.54743900822E+02 -0.40218944692E+02  0.14347294536E+03  0.20210069541E+03  0.12508295985E+03 0.  0.
        -24    2    1    2    0    0 -0.56125353937E+02  0.97355739933E+01  0.13280698536E+04  0.13316362592E+04  0.78998442461E+02 0.  0.
        -13    1    3    3    0    0 -0.36186665020E+02 -0.27826389631E+01 -0.10200939349E+03  0.10827342317E+03  0.00000000000E+00 0.  1.
         14    1    3    3    0    0  0.37568118136E+02  0.33266009662E+02 -0.15224156578E+03  0.16029811369E+03  0.00000000000E+00 0. -1.
         13    1    5    5    0    0 -0.20782194360E+02  0.25992315627E+02  0.10818759054E+04  0.10823876269E+04  0.00000000000E+00 0. -1.
        -14    1    5    5    0    0 -0.35343159577E+02 -0.16256741634E+02  0.24619394820E+03  0.24924863230E+03  0.00000000000E+00 0.  1.
          5    1    4    4  501    0  0.22382430059E+01 -0.17271415667E+01 -0.22871227789E+02  0.23421319568E+02  0.41800000000E+01 0.  1.
         -5    1    4    4    0  501  0.52505657816E+02 -0.38491803125E+02  0.16634417315E+03  0.17867937585E+03  0.41800000000E+01 0.  1.
</event>
<event>
11    1  0.8328696E-009  0.1503392E+03  0.7561462E-02  0.1096533E+00
         22   -1    0    0    0    0  0.00000000000E+00  0.00000000000E+00  0.41869582579E+03  0.41869582579E+03  0.00000000000E+00 0.  1.
         22   -1    0    0    0    0 -0.00000000000E+00 -0.00000000000E+00 -0.22533346903E+04  0.22533346903E+04  0.00000000000E+00 0. -1.
         24    2    1    2    0    0 -0.77273357648E+02  0.40207122989E+02 -0.20900778746E+04  0.20933160462E+04  0.77193023008E+02 0.  0.
         25    2    1    2    0    0  0.44671824649E+01 -0.35245694920E+02 -0.12679359327E+03  0.18162075807E+03  0.12508904723E+03 0.  0.
        -24    2    1    2    0    0  0.72806175184E+02 -0.49614280695E+01  0.38223260333E+03  0.39709371186E+03  0.79096763753E+02 0.  0.
        -13    1    3    3    0    0 -0.38793636680E+00 -0.17461432986E+02 -0.52463952994E+03  0.52493017489E+03  0.00000000000E+00 0.  1.
         14    1    3    3    0    0 -0.76885421282E+02  0.57668555975E+02 -0.15654383446E+04  0.15683858713E+04  0.00000000000E+00 0. -1.
         13    1    5    5    0    0 -0.16875836897E+02 -0.11567239607E+01  0.43605055419E+02  0.46771067332E+02  0.00000000000E+00 0. -1.
        -14    1    5    5    0    0  0.89682012080E+02 -0.38047041088E+01  0.33862754791E+03  0.35032264453E+03  0.00000000000E+00 0.  1.
          5    1    4    4  501    0  0.76354786855E+01  0.18856796474E+02 -0.12554391787E+03  0.12725025353E+03  0.41800000000E+01 0. -1.
         -5    1    4    4    0  501 -0.31682962205E+01 -0.54102491393E+02 -0.12496754019E+01  0.54370504545E+02  0.41800000000E+01 0. -1.
</event>
<event>
11    1  0.8328696E-009  0.1398701E+03  0.7561462E-02  0.1107703E+00
         22   -1    0    0    0    0  0.00000000000E+00  0.00000000000E+00  0.40891117064E+03  0.40891117064E+03  0.00000000000E+00 0. -1.
         22   -1    0    0    0    0 -0.00000000000E+00 -0.00000000000E+00 -0.24637843225E+04  0.24637843225E+04  0.00000000000E+00 0.  1.
         24    2    1    2    0    0  0.25756877867E+02  0.28334965594E+02 -0.20678684064E+04  0.20697789019E+04  0.80241320059E+02 0.  0.
         25    2    1    2    0    0 -0.80049156815E+02  0.25316620120E+01 -0.37472176558E+03  0.40308500586E+03  0.12508734360E+03 0.  0.
        -24    2    1    2    0    0  0.54292278948E+02 -0.30866627606E+02  0.38771702014E+03  0.39983158539E+03  0.75102654509E+02 0.  0.
        -11    1    3    3    0    0  0.47497848603E+02  0.28025221076E+02 -0.18514058683E+04  0.18522270779E+04  0.00000000000E+00 0.  1.
         12    1    3    3    0    0 -0.21740970736E+02  0.30974451832E+00 -0.21646253803E+03  0.21755182399E+03  0.00000000000E+00 0. -1.
         11    1    5    5    0    0  0.22621670559E+02 -0.46768412398E+02  0.31119559111E+03  0.31550233010E+03  0.00000000000E+00 0. -1.
        -12    1    5    5    0    0  0.31670608389E+02  0.15901784792E+02  0.76521429035E+02  0.84329255285E+02  0.00000000000E+00 0.  1.
          5    1    4    4  501    0 -0.58444139131E+02  0.44363664839E+02 -0.32975493678E+03  0.33784559031E+03  0.41800000000E+01 0. -1.
         -5    1    4    4    0  501 -0.21605017684E+02 -0.41832002827E+02 -0.44966828799E+02  0.65239415554E+02  0.41800000000E+01 0. -1.
</event>
<event>
11    1  0.8328696E-009  0.1924462E+03  0.7561462E-02  0.1059998E+00
         22   -1    0    0    0    0  0.00000000000E+00  0.00000000000E+00  0.70430798222E+03  0.70430798222E+03  0.00000000000E+00 0. -1.
         22   -1    0    0    0    0 -0.00000000000E+00 -0.00000000000E+00 -0.27457476039E+03  0.27457476039E+03  0.00000000000E+00 0. -1.
         24    2    1    2    0    0  0.96399534902E+02  0.93050171295E+02 -0.15673790695E+03  0.22138644885E+03  0.80585256405E+02 0.  0.
         25    2    1    2    0    0 -0.15355711901E+03 -0.18690932819E+03  0.17408953694E+03  0.32321718967E+03  0.12508916446E+03 0.  0.
        -24    2    1    2    0    0  0.57157584106E+02  0.93859156891E+02  0.41238159184E+03  0.43427910409E+03  0.80394229929E+02 0.  0.
        -13    1    3    3    0    0  0.30451013098E+02  0.67540478055E+01 -0.61042420964E+00  0.31197018738E+02  0.00000000000E+00 0.  1.
         14    1    3    3    0    0  0.65948521804E+02  0.86296123490E+02 -0.15612748274E+03  0.19018943011E+03  0.00000000000E+00 0. -1.
         13    1    5    5    0    0  0.56383820400E+02  0.18469583792E+02  0.15089730530E+03  0.16214270713E+03  0.00000000000E+00 0. -1.
        -14    1    5    5    0    0  0.77376370584E+00  0.75389573099E+02  0.26148428654E+03  0.27213639696E+03  0.00000000000E+00 0.  1.
          5    1    4    4  501    0  0.26462291927E+01 -0.56892971308E+02  0.24344533448E+01  0.57159528307E+02  0.41800000000E+01 0. -1.
         -5    1    4    4    0  501 -0.15620334820E+03 -0.13001635688E+03  0.17165508360E+03  0.26605766136E+03  0.41800000000E+01 0. -1.
</event>
<event>
11    1  0.8328696E-009  0.1511904E+03  0.7561462E-02  0.1095669E+00
         22   -1    0    0    0    0  0.00000000000E+00  0.00000000000E+00  0.28691501899E+03  0.28691501899E+03  0.00000000000E+00 0.  1.
         22   -1    0    0    0    0 -0.00000000000E+00 -0.00000000000E+00 -0.28563011674E+03  0.28563011674E+03  0.00000000000E+00 0.  1.
        -24    2    1    2    0    0  0.52041319721E+02 -0.64423323970E+02 -0.20261739475E+03  0.23386832491E+03  0.82352420194E+02 0.  0.
         25    2    1    2    0    0 -0.84875927877E+02  0.60616251634E+02  0.65280436086E+02  0.17546776979E+03  0.12509656192E+03 0.  0.
         24    2    1    2    0    0  0.32834608156E+02  0.38070723360E+01  0.13862186091E+03  0.16320904103E+03  0.79552281296E+02 0.  0.
        -11    1    5    5    0    0  0.14773530651E+01  0.75526629338E+01  0.13033191218E+03  0.13055892394E+03  0.00000000000E+00 0.  1.
         12    1    5    5    0    0  0.31357255091E+02 -0.37455905978E+01  0.82899487311E+01  0.32650117086E+02  0.00000000000E+00 0. -1.
         11    1    3    3    0    0  0.60420259704E+02 -0.54270447799E+02 -0.93028615881E+02  0.12349175138E+03  0.00000000000E+00 0. -1.
        -12    1    3    3    0    0 -0.83789399825E+01 -0.10152876171E+02 -0.10958877887E+03  0.11037657353E+03  0.00000000000E+00 0.  1.
          5    1    4    4  501    0 -0.62508383930E+02  0.88486430626E+02  0.81860327247E+02  0.13585187538E+03  0.41800000000E+01 0. -1.
         -5    1    4    4    0  501 -0.22367543947E+02 -0.27870178992E+02 -0.16579891161E+02  0.39615894413E+02  0.41800000000E+01 0. -1.
</event>
<event>
11    1  0.8328696E-009  0.1612835E+03  0.7561462E-02  0.1085876E+00
         22   -1    0    0    0    0  0.00000000000E+00  0.00000000000E+00  0.57880055632E+03  0.57880055632E+03  0.00000000000E+00 0.  1.
         22   -1    0    0    0    0 -0.00000000000E+00 -0.00000000000E+00 -0.21803349612E+03  0.21803349612E+03  0.00000000000E+00 0. -1.
         24    2    1    2    0    0  0.88573477334E+02  0.38835452434E+02 -0.94977081297E+02  0.15865118329E+03  0.82438454220E+02 0.  0.
         25    2    1    2    0    0 -0.88611156732E+02 -0.80927675106E+02 -0.70327823045E+00  0.17334740181E+03  0.12509037301E+03 0.  0.
        -24    2    1    2    0    0  0.37679398209E-01  0.42092222672E+02  0.45644741973E+03  0.46483546734E+03  0.77175177938E+02 0.  0.
        -13    1    3    3    0    0  0.53489715317E+01 -0.18791199039E+02 -0.37395619586E+02  0.42191859665E+02  0.00000000000E+00 0.  1.
         14    1    3    3    0    0  0.83224505802E+02  0.57626651472E+02 -0.57581461711E+02  0.11645932362E+03  0.00000000000E+00 0. -1.
         11    1    5    5    0    0 -0.29289461446E+01  0.59667914825E+02  0.22809298251E+03  0.23578644460E+03  0.00000000000E+00 0. -1.
        -12    1    5    5    0    0  0.29666255428E+01 -0.17575692153E+02  0.22835443722E+03  0.22904902275E+03  0.00000000000E+00 0.  1.
          5    1    4    4  501    0 -0.12317935558E+02  0.22251327614E+02 -0.32106790121E+02  0.41172460321E+02  0.41800000000E+01 0.  1.
         -5    1    4    4    0  501 -0.76293221174E+02 -0.10317900272E+03  0.31403511890E+02  0.13217494149E+03  0.41800000000E+01 0.  1.
</event>
<event>
11    1  0.1080955E-008  0.2169395E+03  0.7561462E-02  0.1043152E+00
         22   -1    0    0    0    0  0.00000000000E+00  0.00000000000E+00  0.25466955557E+03  0.25466955557E+03  0.00000000000E+00 0.  1.
         22   -1    0    0    0    0 -0.00000000000E+00 -0.00000000000E+00 -0.23455186742E+04  0.23455186742E+04  0.00000000000E+00 0.  1.
         24    2    1    2    0    0  0.56169173046E+02 -0.73266116725E+02 -0.19746005432E+04  0.19784002343E+04  0.80605718194E+02 0.  0.
         25    2    1    2    0    0  0.12242111561E+03  0.20369312938E+02 -0.29985983634E+03  0.34780171306E+03  0.12509305217E+03 0.  0.
        -24    2    1    2    0    0 -0.17859028865E+03  0.52896803787E+02  0.18361126093E+03  0.27398628244E+03  0.81626128020E+02 0.  0.
        -13    1    3    3    0    0  0.59509430017E+02 -0.82507124993E+02 -0.19321943801E+04  0.19348705177E+04  0.00000000000E+00 0.  1.
         14    1    3    3    0    0 -0.33402569711E+01  0.92410082685E+01 -0.42406163194E+02  0.43529716600E+02  0.00000000000E+00 0. -1.
         11    1    5    5    0    0 -0.34893562759E+02 -0.14653037970E+02  0.10911955941E+02  0.39387092127E+02  0.00000000000E+00 0. -1.
        -12    1    5    5    0    0 -0.14369672589E+03  0.67549841758E+02  0.17269930498E+03  0.23459919031E+03  0.00000000000E+00 0.  1.
          5    1    4    4  501    0  0.11331628224E+03  0.39342106703E+02 -0.30319598141E+03  0.32608841856E+03  0.41800000000E+01 0.  1.
         -5    1    4    4    0  501  0.91048333705E+01 -0.18972793765E+02  0.33361450677E+01  0.21713294496E+02  0.41800000000E+01 0.  1.
</event>
<event>
11    1  0.8328696E-009  0.6198097E+03  0.7561462E-02  0.9159611E-01
         22   -1    0    0    0    0  0.00000000000E+00  0.00000000000E+00  0.15109024394E+04  0.15109024394E+04  0.00000000000E+00 0.  1.
         22   -1    0    0    0    0 -0.00000000000E+00 -0.00000000000E+00 -0.69961444654E+03  0.69961444654E+03  0.00000000000E+00 0.  1.
         24    2    1    2    0    0  0.71266956004E+02 -0.51039379771E+03 -0.54221842166E+02  0.52438629247E+03  0.80375169055E+02 0.  0.
         25    2    1    2    0    0 -0.43660716325E+03  0.82526691465E+03  0.44763935946E+03  0.10429386344E+04  0.12509477847E+03 0.  0.
        -24    2    1    2    0    0  0.36534020725E+03 -0.31487311694E+03  0.41787047560E+03  0.64319195908E+03  0.80384171641E+02 0.  0.
        -13    1    3    3    0    0  0.40427840871E+02 -0.43749443616E+03 -0.66244558352E+02  0.44432435619E+03  0.00000000000E+00 0.  1.
         14    1    3    3    0    0  0.30839115133E+02 -0.72899361546E+02  0.12022716186E+02  0.80061936277E+02  0.00000000000E+00 0. -1.
         13    1    5    5    0    0  0.20214606601E+03 -0.16746271334E+03  0.17465288855E+03  0.31529418618E+03  0.00000000000E+00 0. -1.
        -14    1    5    5    0    0  0.16319414124E+03 -0.14741040360E+03  0.24321758705E+03  0.32789777290E+03  0.00000000000E+00 0.  1.
          5    1    4    4  501    0 -0.40267457459E+03  0.72119038622E+03  0.35337749718E+03  0.89841834025E+03  0.41800000000E+01 0. -1.
         -5    1    4    4    0  501 -0.33932588669E+02  0.10407652843E+03  0.94261862282E+02  0.14452029416E+03  0.41800000000E+01 0. -1.
</event>
<event>
11    1  0.8328696E-009  0.2328218E+03  0.7561462E-02  0.1033470E+00
         22   -1    0    0    0    0  0.00000000000E+00  0.00000000000E+00  0.13187645259E+04  0.13187645259E+04  0.00000000000E+00 0. -1.
         22   -1    0    0    0    0 -0.00000000000E+00 -0.00000000000E+00 -0.57844105528E+03  0.57844105528E+03  0.00000000000E+00 0. -1.
        -24    2    1    2    0    0  0.16713163162E+03  0.10134651550E+03 -0.52734081849E+03  0.56818869232E+03  0.80907062366E+02 0.  0.
         25    2    1    2    0    0 -0.21188073777E+03 -0.81142023379E+02  0.58394630760E+03  0.63884191633E+03  0.12509288112E+03 0.  0.
         24    2    1    2    0    0  0.44749106158E+02 -0.20204492121E+02  0.68371798153E+03  0.69017497254E+03  0.80377300634E+02 0.  0.
        -11    1    5    5    0    0  0.18327178574E+02 -0.46459962871E+01  0.28267514708E+02  0.34007692421E+02  0.00000000000E+00 0.  1.
         12    1    5    5    0    0  0.26421927584E+02 -0.15558495834E+02  0.65545046682E+03  0.65616728012E+03  0.00000000000E+00 0. -1.
         13    1    3    3    0    0  0.17433583030E+03  0.10329543068E+03 -0.49252974592E+03  0.53258659234E+03  0.00000000000E+00 0. -1.
        -14    1    3    3    0    0 -0.72041986869E+01 -0.19489151824E+01 -0.34811072569E+02  0.35602099974E+02  0.00000000000E+00 0.  1.
          5    1    4    4  501    0 -0.19429210744E+03 -0.28109060206E+02  0.50668372368E+03  0.54340170273E+03  0.41800000000E+01 0. -1.
         -5    1    4    4    0  501 -0.17588630334E+02 -0.53032963174E+02  0.77262583913E+02  0.95440213605E+02  0.41800000000E+01 0. -1.
</event>
<event>
11    1  0.8328696E-009  0.1791705E+03  0.7561462E-02  0.1070316E+00
         22   -1    0    0    0    0  0.00000000000E+00  0.00000000000E+00  0.14220109625E+04  0.14220109625E+04  0.00000000000E+00 0. -1.
         22   -1    0    0    0    0 -0.00000000000E+00 -0.00000000000E+00 -0.92195355611E+02  0.92195355611E+02  0.00000000000E+00 0.  1.
         24    2    1    2    0    0  0.42487463355E+02  0.11020308225E+03  0.28824606247E+02  0.14602898990E+03  0.80893164641E+02 0.  0.
         25    2    1    2    0    0 -0.14957891383E+03 -0.13885063064E+03  0.48505761726E+03  0.54090790043E+03  0.12508843111E+03 0.  0.
        -24    2    1    2    0    0  0.10709145047E+03  0.28647548392E+02  0.81593338335E+03  0.82726942775E+03  0.79612556995E+02 0.  0.
        -13    1    3    3    0    0  0.39609163897E+01  0.15391160120E+01 -0.20276567520E+02  0.20717068498E+02  0.00000000000E+00 0.  1.
         14    1    3    3    0    0  0.38526546966E+02  0.10866396624E+03  0.49101173768E+02  0.12531192140E+03  0.00000000000E+00 0. -1.
         13    1    5    5    0    0  0.11357761682E+03  0.14355275486E+02  0.77536262490E+03  0.78376855580E+03  0.00000000000E+00 0. -1.
        -14    1    5    5    0    0 -0.64861663497E+01  0.14292272905E+02  0.40570758448E+02  0.43500871943E+02  0.00000000000E+00 0.  1.
          5    1    4    4  501    0  0.82426307254E+01 -0.56777047556E+02  0.80424485468E+02  0.98879443532E+02  0.41800000000E+01 0.  1.
         -5    1    4    4    0  501 -0.15782154455E+03 -0.82073583085E+02  0.40463313179E+03  0.44202845690E+03  0.41800000000E+01 0.  1.
</event>
<event>
11    1  0.8328696E-009  0.1477794E+03  0.7561462E-02  0.1099170E+00
         22   -1    0    0    0    0  0.00000000000E+00  0.00000000000E+00  0.11550197788E+03  0.11550197788E+03  0.00000000000E+00 0.  1.
         22   -1    0    0    0    0 -0.00000000000E+00 -0.00000000000E+00 -0.80254901674E+03  0.80254901674E+03  0.00000000000E+00 0.  1.
         24    2    1    2    0    0  0.16075287241E+02  0.76223337424E+02 -0.61715285611E+03  0.62636126850E+03  0.73364697518E+02 0.  0.
         25    2    1    2    0    0 -0.86072278457E+01 -0.84821309173E+02 -0.12270254600E+03  0.19486447838E+03  0.12509001269E+03 0.  0.
        -24    2    1    2    0    0 -0.74680593955E+01  0.85979717487E+01  0.52808363260E+02  0.96825247739E+02  0.80353645470E+02 0.  0.
        -11    1    3    3    0    0  0.39286016697E+02  0.73709297557E+02 -0.49497673237E+03  0.50197451852E+03  0.00000000000E+00 0.  1.
         12    1    3    3    0    0 -0.23210729456E+02  0.25140398667E+01 -0.12217612374E+03  0.12438674998E+03  0.00000000000E+00 0. -1.
         11    1    5    5    0    0 -0.38686379671E+01  0.19968499171E+02 -0.16690026788E+02  0.26310916234E+02  0.00000000000E+00 0. -1.
        -12    1    5    5    0    0 -0.35994214284E+01 -0.11370527423E+02  0.69498390047E+02  0.70514331506E+02  0.00000000000E+00 0.  1.
          5    1    4    4  501    0  0.29905477450E+02 -0.10247703379E+03 -0.72850287083E+02  0.12930783721E+03  0.41800000000E+01 0.  1.
         -5    1    4    4    0  501 -0.38512705296E+02  0.17655724620E+02 -0.49852258922E+02  0.65556641164E+02  0.41800000000E+01 0.  1.
</event>
<event>
11    1  0.8328696E-009  0.1364788E+03  0.7561462E-02  0.1111555E+00
         22   -1    0    0    0    0  0.00000000000E+00  0.00000000000E+00  0.11023812102E+04  0.11023812102E+04  0.00000000000E+00 0.  1.
         22   -1    0    0    0    0 -0.00000000000E+00 -0.00000000000E+00 -0.85265873531E+02  0.85265873531E+02  0.00000000000E+00 0. -1.
        -24    2    1    2    0    0 -0.29084197225E+02  0.12999657219E+02 -0.24799156031E+02  0.88068079010E+02  0.78269449880E+02 0.  0.
         25    2    1    2    0    0 -0.21908243583E+02  0.13719379944E+02  0.12999395451E+03  0.18224600787E+03  0.12508791569E+03 0.  0.
         24    2    1    2    0    0  0.50992440809E+02 -0.26719037163E+02  0.91192053821E+03  0.91733299687E+03  0.81158013591E+02 0.  0.
        -13    1    5    5    0    0  0.60451253658E+02  0.81189766114E+01  0.66440643678E+03  0.66720025860E+03  0.00000000000E+00 0.  1.
         14    1    5    5    0    0 -0.94588128495E+01 -0.34838013774E+02  0.24751410143E+03  0.25013273827E+03  0.00000000000E+00 0. -1.
         11    1    3    3    0    0 -0.42595454987E+01  0.43266532994E+02 -0.22253737207E+02  0.48840202957E+02  0.00000000000E+00 0. -1.
        -12    1    3    3    0    0 -0.24824651727E+02 -0.30266875776E+02 -0.25454188238E+01  0.39227876052E+02  0.00000000000E+00 0.  1.
          5    1    4    4  501    0  0.90496935625E+01  0.61764328915E+02  0.98950965603E+02  0.11707047140E+03  0.41800000000E+01 0. -1.
         -5    1    4    4    0  501 -0.30957937146E+02 -0.48044948971E+02  0.31042988905E+02  0.65175536469E+02  0.41800000000E+01 0. -1.
</event>
<event>
11    1  0.8328696E-009  0.1688777E+03  0.7561462E-02  0.1079013E+00
         22   -1    0    0    0    0  0.00000000000E+00  0.00000000000E+00  0.38736307761E+04  0.38736307761E+04  0.00000000000E+00 0. -1.
         22   -1    0    0    0    0 -0.00000000000E+00 -0.00000000000E+00 -0.29143231524E+03  0.29143231524E+03  0.00000000000E+00 0. -1.
         24    2    1    2    0    0 -0.55007476087E+02  0.10590117976E+03 -0.24883245129E+03  0.28760496649E+03  0.80982378540E+02 0.  0.
         25    2    1    2    0    0  0.37591370909E+02 -0.38011037396E+02  0.18295166158E+03  0.22798346398E+03  0.12508876545E+03 0.  0.
        -24    2    1    2    0    0  0.17416105178E+02 -0.67890142369E+02  0.36480792506E+04  0.36494746608E+04  0.72599515538E+02 0.  0.
        -13    1    3    3    0    0 -0.16210148358E+02 -0.87223981826E+01 -0.64699429518E+02  0.67267119158E+02  0.00000000000E+00 0.  1.
         14    1    3    3    0    0 -0.38797327729E+02  0.11462357795E+03 -0.18413302177E+03  0.22033784733E+03  0.00000000000E+00 0. -1.
         13    1    5    5    0    0  0.32257916235E+02 -0.71442363733E+02  0.34132807534E+04  0.34141807343E+04  0.00000000000E+00 0. -1.
        -14    1    5    5    0    0 -0.14841811057E+02  0.35522213643E+01  0.23479849712E+03  0.23529392657E+03  0.00000000000E+00 0.  1.
          5    1    4    4  501    0  0.34133425018E+02 -0.93735325808E+01  0.19367436712E+03  0.19692685621E+03  0.41800000000E+01 0. -1.
         -5    1    4    4    0  501  0.34579458914E+01 -0.28637504815E+02 -0.10722705545E+02  0.31056607767E+02  0.41800000000E+01 0. -1.
</event>
<event>
11    1  0.8328696E-009  0.2168604E+03  0.7561462E-02  0.1043202E+00
         22   -1    0    0    0    0  0.00000000000E+00  0.00000000000E+00  0.64344235569E+03  0.64344235569E+03  0.00000000000E+00 0. -1.
         22   -1    0    0    0    0 -0.00000000000E+00 -0.00000000000E+00 -0.63987718673E+03  0.63987718673E+03  0.00000000000E+00 0.  1.
        -24    2    1    2    0    0  0.52354176644E+02 -0.22886099624E+02 -0.50119501061E+03  0.51059544217E+03  0.79035014636E+02 0.  0.
         25    2    1    2    0    0  0.95097930311E+02 -0.88033693687E+02 -0.46413505225E+02  0.18599839229E+03  0.12509053079E+03 0.  0.
         24    2    1    2    0    0 -0.14745210696E+03  0.11091979331E+03  0.55117368480E+03  0.58672570796E+03  0.80058111208E+02 0.  0.
        -13    1    5    5    0    0 -0.52029843712E+02  0.86391388561E+02  0.31746289517E+03  0.33309648222E+03  0.00000000000E+00 0.  1.
         14    1    5    5    0    0 -0.95422263243E+02  0.24528404750E+02  0.23371078963E+03  0.25362922574E+03  0.00000000000E+00 0. -1.
         11    1    3    3    0    0  0.43846597844E+02 -0.37643047274E+02 -0.18217579351E+03  0.19112180120E+03  0.00000000000E+00 0. -1.
        -12    1    3    3    0    0  0.85075787999E+01  0.14756947650E+02 -0.31901921709E+03  0.31947364097E+03  0.00000000000E+00 0.  1.
          5    1    4    4  501    0  0.11010046206E+03 -0.24778146736E+02 -0.15842805647E+02  0.11403742891E+03  0.41800000000E+01 0.  1.
         -5    1    4    4    0  501 -0.15002531744E+02 -0.63255546951E+02 -0.30570699578E+02  0.71960963387E+02  0.41800000000E+01 0.  1.
</event>
<event>
11    1  0.8328696E-009  0.1444712E+03  0.7561462E-02  0.1102666E+00
         22   -1    0    0    0    0  0.00000000000E+00  0.00000000000E+00  0.27437857838E+03  0.27437857838E+03  0.00000000000E+00 0. -1.
         22   -1    0    0    0    0 -0.00000000000E+00 -0.00000000000E+00 -0.94133975959E+03  0.94133975959E+03  0.00000000000E+00 0.  1.
        -24    2    1    2    0    0  0.26401469793E+01  0.34256541736E+02 -0.85620229891E+03  0.86066398626E+03  0.80496208395E+02 0.  0.
         25    2    1    2    0    0 -0.13694949471E+02 -0.99302933768E+02  0.27281132285E+02  0.16260866675E+03  0.12509474020E+03 0.  0.
         24    2    1    2    0    0  0.11054802492E+02  0.65046392032E+02  0.16195998541E+03  0.19244568495E+03  0.80318509752E+02 0.  0.
        -13    1    5    5    0    0  0.20269061415E+02  0.16437883960E+01  0.23672665723E+01  0.20472929491E+02  0.00000000000E+00 0.  1.
         14    1    5    5    0    0 -0.92142589230E+01  0.63402603636E+02  0.15959271884E+03  0.17197275546E+03  0.00000000000E+00 0. -1.
         11    1    3    3    0    0  0.86616781851E+00 -0.18530117986E+02 -0.62207952952E+02  0.64914905297E+02  0.00000000000E+00 0. -1.
        -12    1    3    3    0    0  0.17739791608E+01  0.52786659723E+02 -0.79399434596E+03  0.79574908097E+03  0.00000000000E+00 0.  1.
          5    1    4    4  501    0 -0.65886096350E+02 -0.45237239170E+02  0.34193664001E+02  0.87029101786E+02  0.41800000000E+01 0. -1.
         -5    1    4    4    0  501  0.52191146879E+02 -0.54065694598E+02 -0.69125317161E+01  0.75579564961E+02  0.41800000000E+01 0. -1.
</event>
<event>
11    1  0.8328696E-009  0.1991936E+03  0.7561462E-02  0.1055095E+00
         22   -1    0    0    0    0  0.00000000000E+00  0.00000000000E+00  0.11235232073E+04  0.11235232073E+04  0.00000000000E+00 0. -1.
         22   -1    0    0    0    0 -0.00000000000E+00 -0.00000000000E+00 -0.47491676627E+03  0.47491676627E+03  0.00000000000E+00 0. -1.
        -24    2    1    2    0    0 -0.91335450668E+02  0.12456237778E+03 -0.42546107409E+03  0.46146606168E+03  0.89865733213E+02 0.  0.
         25    2    1    2    0    0  0.11564083201E+03 -0.12196040022E+03  0.35076926597E+03  0.40857496979E+03  0.12508911516E+03 0.  0.
         24    2    1    2    0    0 -0.24305381345E+02 -0.26019775620E+01  0.72329824915E+03  0.72839894212E+03  0.82505392556E+02 0.  0.
        -13    1    5    5    0    0 -0.43658432639E+02 -0.10302411845E+02  0.66464732474E+03  0.66615933884E+03  0.00000000000E+00 0.  1.
         14    1    5    5    0    0  0.19353051294E+02  0.77004342833E+01  0.58650924412E+02  0.62239603284E+02  0.00000000000E+00 0. -1.
         11    1    3    3    0    0  0.18063265331E+01  0.38214788513E+02 -0.19119964831E+03  0.19498958534E+03  0.00000000000E+00 0. -1.
        -12    1    3    3    0    0 -0.93141777201E+02  0.86347589269E+02 -0.23426142578E+03  0.26647647634E+03  0.00000000000E+00 0.  1.
          5    1    4    4  501    0  0.13484403348E+03 -0.70952628132E+02  0.28365301241E+03  0.32201505035E+03  0.41800000000E+01 0. -1.
         -5    1    4    4    0  501 -0.19203201465E+02 -0.51007772088E+02  0.67116253565E+02  0.86559919435E+02  0.41800000000E+01 0. -1.
</event>
<event>
11    1  0.8328696E-009  0.1940162E+03  0.7561462E-02  0.1058838E+00
         22   -1    0    0    0    0  0.00000000000E+00  0.00000000000E+00  0.15076185937E+04  0.15076185937E+04  0.00000000000E+00 0. -1.
         22   -1    0    0    0    0 -0.00000000000E+00 -0.00000000000E+00 -0.87711874732E+03  0.87711874732E+03  0.00000000000E+00 0.  1.
         24    2    1    2    0    0 -0.18276756570E+02 -0.42029436040E+02 -0.85005591836E+03  0.85521496080E+03  0.81835515019E+02 0.  0.
         25    2    1    2    0    0  0.14276624413E+03  0.99894418968E+02  0.66668475949E+03  0.70034052888E+03  0.12508873829E+03 0.  0.
        -24    2    1    2    0    0 -0.12448948756E+03 -0.57864982929E+02  0.81387100521E+03  0.82918185130E+03  0.79438911449E+02 0.  0.
        -13    1    3    3    0    0  0.11914595948E+02 -0.57939308081E+02 -0.49460001642E+03  0.49812458006E+03  0.00000000000E+00 0.  1.
         14    1    3    3    0    0 -0.30191352518E+02  0.15909872041E+02 -0.35545590194E+03  0.35709038074E+03  0.00000000000E+00 0. -1.
         11    1    5    5    0    0 -0.21525384128E+02 -0.73079398029E+01  0.37104225607E+03  0.37173795063E+03  0.00000000000E+00 0. -1.
        -12    1    5    5    0    0 -0.10296410343E+03 -0.50557043126E+02  0.44282874914E+03  0.45744390068E+03  0.00000000000E+00 0.  1.
          5    1    4    4  501    0  0.35103867990E+02 -0.27212207522E+02  0.19658511768E+03  0.20158364686E+03  0.41800000000E+01 0. -1.
         -5    1    4    4    0  501  0.10766237614E+03  0.12710662649E+03  0.47009964181E+03  0.49875688202E+03  0.41800000000E+01 0. -1.
</event>
<event>
11    1  0.8328696E-009  0.1345562E+03  0.7561462E-02  0.1113794E+00
         22   -1    0    0    0    0  0.00000000000E+00  0.00000000000E+00  0.81595609905E+03  0.81595609905E+03  0.00000000000E+00 0. -1.
         22   -1    0    0    0    0 -0.00000000000E+00 -0.00000000000E+00 -0.55719683948E+03  0.55719683948E+03  0.00000000000E+00 0.  1.
         24    2    1    2    0    0 -0.50618303965E+02  0.94387004293E+00 -0.52435553043E+03  0.53279408449E+03  0.79735253080E+02 0.  0.
         25    2    1    2    0    0  0.10942610636E+02 -0.14627137678E+01  0.12940162245E+03  0.18031727747E+03  0.12509060877E+03 0.  0.
        -24    2    1    2    0    0  0.39675693329E+02  0.51884372483E+00  0.65371316755E+03  0.66004157657E+03  0.82094747261E+02 0.  0.
        -13    1    3    3    0    0 -0.52217398165E+02  0.57137459823E+01 -0.52508916528E+03  0.52771008618E+03  0.00000000000E+00 0.  1.
         14    1    3    3    0    0  0.15990942005E+01 -0.47698759394E+01  0.73363484274E+00  0.50839983105E+01  0.00000000000E+00 0. -1.
         13    1    5    5    0    0  0.39891187289E+02 -0.23593469595E+02  0.59159122337E+03  0.59340385421E+03  0.00000000000E+00 0. -1.
        -14    1    5    5    0    0 -0.21549395986E+00  0.24112313320E+02  0.62121944185E+02  0.66637722355E+02  0.00000000000E+00 0.  1.
          5    1    4    4  501    0 -0.38792829287E+02 -0.37626270973E+02  0.95918157288E+02  0.11017433988E+03  0.41800000000E+01 0. -1.
         -5    1    4    4    0  501  0.49735439922E+02  0.36163557206E+02  0.33483465166E+02  0.70142937589E+02  0.41800000000E+01 0. -1.
</event>
<event>
11    1  0.8328696E-009  0.1968595E+03  0.7561462E-02  0.1056767E+00
         22   -1    0    0    0    0  0.00000000000E+00  0.00000000000E+00  0.86871080271E+03  0.86871080271E+03  0.00000000000E+00 0.  1.
         22   -1    0    0    0    0 -0.00000000000E+00 -0.00000000000E+00 -0.32023046224E+04  0.32023046224E+04  0.00000000000E+00 0.  1.
         24    2    1    2    0    0 -0.79009137075E+01 -0.15190904365E+03 -0.29363184476E+04  0.29413499017E+04  0.80214938769E+02 0.  0.
         25    2    1    2    0    0  0.47845881806E+02  0.14775921809E+03 -0.22294475909E+03  0.29912219584E+03  0.12509079704E+03 0.  0.
        -24    2    1    2    0    0 -0.39944968099E+02  0.41498255664E+01  0.82566938701E+03  0.83054332757E+03  0.80370770767E+02 0.  0.
        -13    1    3    3    0    0 -0.34785848717E+02 -0.13385291410E+03 -0.22243115871E+04  0.22286068955E+04  0.00000000000E+00 0.  1.
         14    1    3    3    0    0  0.26884935010E+02 -0.18056129547E+02 -0.71200686049E+03  0.71274300623E+03  0.00000000000E+00 0. -1.
         11    1    5    5    0    0  0.19002638200E+02 -0.17465774795E+02  0.30821451304E+03  0.30929329058E+03  0.00000000000E+00 0. -1.
        -12    1    5    5    0    0 -0.58947606299E+02  0.21615600361E+02  0.51745487397E+03  0.52125003699E+03  0.00000000000E+00 0.  1.
          5    1    4    4  501    0  0.59650412627E+02  0.92187825908E+02 -0.57236850517E+02  0.12389631322E+03  0.41800000000E+01 0.  1.
         -5    1    4    4    0  501 -0.11804530821E+02  0.55571392177E+02 -0.16570790857E+03  0.17522588262E+03  0.41800000000E+01 0.  1.
</event>
<event>
11    1  0.8328696E-009  0.1979225E+03  0.7561462E-02  0.1056003E+00
         22   -1    0    0    0    0  0.00000000000E+00  0.00000000000E+00  0.25729129436E+04  0.25729129436E+04  0.00000000000E+00 0. -1.
         22   -1    0    0    0    0 -0.00000000000E+00 -0.00000000000E+00 -0.11695633664E+04  0.11695633664E+04  0.00000000000E+00 0. -1.
         24    2    1    2    0    0  0.14650266349E+01  0.44462617692E+02 -0.11486476674E+04  0.11523239338E+04  0.80497912465E+02 0.  0.
         25    2    1    2    0    0  0.80192678046E+02 -0.16522339585E+03  0.80234806687E+03  0.83255015812E+03  0.12509080393E+03 0.  0.
        -24    2    1    2    0    0 -0.81657704681E+02  0.12076077816E+03  0.17496491777E+04  0.17576022180E+04  0.81499480655E+02 0.  0.
        -11    1    3    3    0    0 -0.17684081517E+02  0.40306682712E+02 -0.27858988133E+03  0.28204552361E+03  0.00000000000E+00 0.  1.
         12    1    3    3    0    0  0.19149108152E+02  0.41559349800E+01 -0.87005778608E+03  0.87027841020E+03  0.00000000000E+00 0. -1.
         13    1    5    5    0    0 -0.76976774685E+02  0.11501488827E+03  0.17396990980E+04  0.17451953472E+04  0.00000000000E+00 0. -1.
        -14    1    5    5    0    0 -0.46809299964E+01  0.57458898933E+01  0.99500797382E+01  0.12406870802E+02  0.00000000000E+00 0.  1.
          5    1    4    4  501    0  0.10937628844E+03 -0.92093229724E+02  0.49565111633E+03  0.51587967294E+03  0.41800000000E+01 0.  1.
         -5    1    4    4    0  501 -0.29183610396E+02 -0.73130166130E+02  0.30669695053E+03  0.31667048517E+03  0.41800000000E+01 0.  1.
</event>
<event>
11    1  0.8328696E-009  0.1657991E+03  0.7561462E-02  0.1081746E+00
         22   -1    0    0    0    0  0.00000000000E+00  0.00000000000E+00  0.90437528001E+03  0.90437528001E+03  0.00000000000E+00 0.  1.
         22   -1    0    0    0    0 -0.00000000000E+00 -0.00000000000E+00 -0.58948620186E+03  0.58948620186E+03  0.00000000000E+00 0.  1.
         24    2    1    2    0    0  0.89582952353E+02 -0.62438597074E+02 -0.51999140757E+03  0.53766489013E+03  0.82272634429E+02 0.  0.
         25    2    1    2    0    0 -0.10214426974E+03  0.34591528877E+02  0.58779145357E+02  0.17530604995E+03  0.12508875852E+03 0.  0.
        -24    2    1    2    0    0  0.12561317390E+02  0.27847068197E+02  0.77610134036E+03  0.78089054179E+03  0.80768198239E+02 0.  0.
        -13    1    3    3    0    0  0.84882018555E+02 -0.77123642450E+02 -0.49643868417E+03  0.50951386678E+03  0.00000000000E+00 0.  1.
         14    1    3    3    0    0  0.47009337978E+01  0.14685045376E+02 -0.23552723401E+02  0.28151023354E+02  0.00000000000E+00 0. -1.
         13    1    5    5    0    0 -0.14358097435E+02  0.82477583599E+01  0.31871886486E+02  0.35916536973E+02  0.00000000000E+00 0. -1.
        -14    1    5    5    0    0  0.26919414825E+02  0.19599309837E+02  0.74422945387E+03  0.74497400482E+03  0.00000000000E+00 0.  1.
          5    1    4    4  501    0 -0.25449157861E+01  0.29993271648E+02 -0.29291320215E+02  0.42208136425E+02  0.41800000000E+01 0. -1.
         -5    1    4    4    0  501 -0.99599353957E+02  0.45982572292E+01  0.88070465572E+02  0.13309791352E+03  0.41800000000E+01 0. -1.
</event>
<event>
11    1  0.8328696E-009  0.1610668E+03  0.7561462E-02  0.1086078E+00
         22   -1    0    0    0    0  0.00000000000E+00  0.00000000000E+00  0.20620774086E+04  0.20620774086E+04  0.00000000000E+00 0. -1.
         22   -1    0    0    0    0 -0.00000000000E+00 -0.00000000000E+00 -0.23108409395E+03  0.23108409395E+03  0.00000000000E+00 0. -1.
        -24    2    1    2    0    0 -0.12881559887E+03 -0.12390269934E+02 -0.98452032121E+02  0.18211724715E+03  0.82017752832E+02 0.  0.
         25    2    1    2    0    0  0.59616896693E+02  0.31245252869E+02 -0.32689550053E+02  0.14576359630E+03  0.12509188274E+03 0.  0.
         24    2    1    2    0    0  0.69198702181E+02 -0.18854982935E+02  0.19621348968E+04  0.19652806591E+04  0.84916104919E+02 0.  0.
        -13    1    5    5    0    0 -0.12443725492E+02  0.17701513618E+02  0.40860774786E+03  0.40918025551E+03  0.00000000000E+00 0.  1.
         14    1    5    5    0    0  0.81642427673E+02 -0.36556496553E+02  0.15535271490E+04  0.15561004036E+04  0.00000000000E+00 0. -1.
         13    1    3    3    0    0 -0.96169969046E+02 -0.11199791230E+02 -0.11084713893E+03  0.14717739799E+03  0.00000000000E+00 0. -1.
        -14    1    3    3    0    0 -0.32645629828E+02 -0.11904787040E+01  0.12395106814E+02  0.34939849161E+02  0.00000000000E+00 0.  1.
          5    1    4    4  501    0  0.85276172844E+02  0.44273642544E+01 -0.55565924421E+02  0.10196406998E+03  0.41800000000E+01 0.  1.
         -5    1    4    4    0  501 -0.25659276151E+02  0.26817888614E+02  0.22876374368E+02  0.43799526328E+02  0.41800000000E+01 0.  1.
</event>
<event>
11    1  0.8328696E-009  0.1984259E+03  0.7561462E-02  0.1055642E+00
         22   -1    0    0    0    0  0.00000000000E+00  0.00000000000E+00  0.40238223948E+03  0.40238223948E+03  0.00000000000E+00 0. -1.
         22   -1    0    0    0    0 -0.00000000000E+00 -0.00000000000E+00 -0.48898591358E+03  0.48898591358E+03  0.00000000000E+00 0. -1.
        -24    2    1    2    0    0 -0.37705754016E+02 -0.14803210712E+03 -0.31840561842E+03  0.36268964258E+03  0.82622093709E+02 0.  0.
         25    2    1    2    0    0  0.38463826846E+02  0.15336448263E+03 -0.71727421965E+02  0.21399202409E+03  0.12509049847E+03 0.  0.
         24    2    1    2    0    0 -0.75807283005E+00 -0.53323755056E+01  0.30352936629E+03  0.31468648639E+03  0.82876411655E+02 0.  0.
        -13    1    5    5    0    0 -0.22017260110E+02  0.75935579317E+01  0.21928944459E+02  0.31989067975E+02  0.00000000000E+00 0.  1.
         14    1    5    5    0    0  0.21259187280E+02 -0.12925933437E+02  0.28160042183E+03  0.28269741841E+03  0.00000000000E+00 0. -1.
         13    1    3    3    0    0 -0.50018903720E+02 -0.10904730304E+03 -0.28722268868E+03  0.31127171076E+03  0.00000000000E+00 0. -1.
        -14    1    3    3    0    0  0.12313149704E+02 -0.38984804087E+02 -0.31182929742E+02  0.51417931820E+02  0.00000000000E+00 0.  1.
          5    1    4    4  501    0 -0.36917182047E+02  0.13638727880E+02 -0.30344371032E+02  0.49871299179E+02  0.41800000000E+01 0. -1.
         -5    1    4    4    0  501  0.75381008893E+02  0.13972575475E+03 -0.41383050933E+02  0.16412072492E+03  0.41800000000E+01 0. -1.
</event>
<event>
11    1  0.8328696E-009  0.1330656E+03  0.7561462E-02  0.1115559E+00
         22   -1    0    0    0    0  0.00000000000E+00  0.00000000000E+00  0.27446255673E+03  0.27446255673E+03  0.00000000000E+00 0.  1.
         22   -1    0    0    0    0 -0.00000000000E+00 -0.00000000000E+00 -0.31401949618E+03  0.31401949618E+03  0.00000000000E+00 0.  1.
         24    2    1    2    0    0  0.27609911706E+02 -0.35789795885E+02 -0.25800196630E+03  0.27454286898E+03  0.82252997402E+02 0.  0.
         25    2    1    2    0    0 -0.73887677750E+01  0.55340458754E+02  0.12610312253E+03  0.18618849270E+03  0.12508795720E+03 0.  0.
        -24    2    1    2    0    0 -0.20221143931E+02 -0.19550662869E+02  0.92341904322E+02  0.12775069122E+03  0.83678484292E+02 0.  0.
        -11    1    3    3    0    0  0.51745565562E+02 -0.31854367208E+02 -0.22735477314E+03  0.23533486171E+03  0.00000000000E+00 0.  1.
         12    1    3    3    0    0 -0.24135653857E+02 -0.39354286776E+01 -0.30647193157E+02  0.39208007274E+02  0.00000000000E+00 0. -1.
         13    1    5    5    0    0 -0.30785131634E+02  0.34629808369E+01 -0.10395887804E+01  0.30996730647E+02  0.00000000000E+00 0. -1.
        -14    1    5    5    0    0  0.10563987703E+02 -0.23013643706E+02  0.93381493102E+02  0.96753960575E+02  0.00000000000E+00 0.  1.
          5    1    4    4  501    0  0.47846966599E+02  0.39765509536E+02  0.19994486966E+02  0.65481904908E+02  0.41800000000E+01 0. -1.
         -5    1    4    4    0  501 -0.55235734374E+02  0.15574949218E+02  0.10610863557E+03  0.12070658779E+03  0.41800000000E+01 0. -1.
</event>
<event>
11    1  0.8328696E-009  0.1413473E+03  0.7561462E-02  0.1106063E+00
         22   -1    0    0    0    0  0.00000000000E+00  0.00000000000E+00  0.35571410828E+03  0.35571410828E+03  0.00000000000E+00 0.  1.
         22   -1    0    0    0    0 -0.00000000000E+00 -0.00000000000E+00 -0.10420792788E+04  0.10420792788E+04  0.00000000000E+00 0. -1.
        -24    2    1    2    0    0 -0.66488691151E+02 -0.58230795747E+01 -0.92723239446E+03  0.93306273322E+03  0.79946835336E+02 0.  0.
         25    2    1    2    0    0  0.52072128014E+02  0.28252409555E+01 -0.63433322284E+02  0.14963441575E+03  0.12508870253E+03 0.  0.
         24    2    1    2    0    0  0.14416563136E+02  0.29978386192E+01  0.30430054623E+03  0.31509623811E+03  0.80436263615E+02 0.  0.
        -13    1    5    5    0    0 -0.30799917160E+02  0.47171561067E+01  0.18293904178E+03  0.18557364971E+03  0.00000000000E+00 0.  1.
         14    1    5    5    0    0  0.45216480297E+02 -0.17193174876E+01  0.12136150445E+03  0.12952258840E+03  0.00000000000E+00 0. -1.
         11    1    3    3    0    0 -0.41641532723E+02 -0.31061224313E+02 -0.77606751135E+03  0.77780434498E+03  0.00000000000E+00 0. -1.
        -12    1    3    3    0    0 -0.24847158428E+02  0.25238144738E+02 -0.15116488311E+03  0.15525838824E+03  0.00000000000E+00 0.  1.
          5    1    4    4  501    0  0.80890659974E+02 -0.34437498530E+02 -0.37198036161E+02  0.95553160441E+02  0.41800000000E+01 0. -1.
         -5    1    4    4    0  501 -0.28818531959E+02  0.37262739485E+02 -0.26235286123E+02  0.54081255313E+02  0.41800000000E+01 0. -1.
</event>
<event>
11    1  0.8328696E-009  0.1842846E+03  0.7561462E-02  0.1066229E+00
         22   -1    0    0    0    0  0.00000000000E+00  0.00000000000E+00  0.52006259085E+03  0.52006259085E+03  0.00000000000E+00 0.  1.
         22   -1    0    0    0    0 -0.00000000000E+00 -0.00000000000E+00 -0.12487556764E+04  0.12487556764E+04  0.00000000000E+00 0.  1.
        -24    2    1    2    0    0 -0.76119357935E+02 -0.11103826971E+03 -0.11296787651E+04  0.11406499850E+04  0.82368817523E+02 0.  0.
         25    2    1    2    0    0  0.11692332844E+03  0.97366292902E+02 -0.19594623528E+02  0.19794468459E+03  0.12508752600E+03 0.  0.
         24    2    1    2    0    0 -0.40803970506E+02  0.13671976803E+02  0.42058030305E+03  0.43022359764E+03  0.79703611540E+02 0.  0.
        -13    1    5    5    0    0 -0.26256303585E+01 -0.93634589879E+01  0.32063961622E+03  0.32078705054E+03  0.00000000000E+00 0.  1.
         14    1    5    5    0    0 -0.38178340148E+02  0.23035435791E+02  0.99940686824E+02  0.10943654710E+03  0.00000000000E+00 0. -1.
         13    1    3    3    0    0  0.87131497577E+01 -0.40642774174E+02 -0.18796665660E+03  0.19250770911E+03  0.00000000000E+00 0. -1.
        -14    1    3    3    0    0 -0.84832507693E+02 -0.70395495532E+02 -0.94171210845E+03  0.94814227591E+03  0.00000000000E+00 0.  1.
          5    1    4    4  501    0 -0.17543326138E+02  0.46195069429E+02  0.10995846934E+02  0.50795017288E+02  0.41800000000E+01 0.  1.
         -5    1    4    4    0  501  0.13446665458E+03  0.51171223473E+02 -0.30590470463E+02  0.14714966731E+03  0.41800000000E+01 0.  1.
</event>
<event>
11    1  0.8328696E-009  0.1272479E+03  0.7561462E-02  0.1122697E+00
         22   -1    0    0    0    0  0.00000000000E+00  0.00000000000E+00  0.70587297025E+03  0.70587297025E+03  0.00000000000E+00 0.  1.
         22   -1    0    0    0    0 -0.00000000000E+00 -0.00000000000E+00 -0.17301840359E+03  0.17301840359E+03  0.00000000000E+00 0. -1.
         24    2    1    2    0    0 -0.22690589413E+02  0.60725594575E+01 -0.14086204461E+03  0.16675269313E+03  0.86096493714E+02 0.  0.
         25    2    1    2    0    0  0.23024485217E+02  0.59495683102E+01  0.24828181696E+03  0.27902594600E+03  0.12508434604E+03 0.  0.
        -24    2    1    2    0    0 -0.33389580427E+00 -0.12022127768E+02  0.42543479430E+03  0.43311273471E+03  0.80294668066E+02 0.  0.
        -11    1    3    3    0    0 -0.13419509006E+02 -0.25039071184E+01  0.90054810309E+01  0.16353943298E+02  0.00000000000E+00 0.  1.
         12    1    3    3    0    0 -0.92710804075E+01  0.85764665759E+01 -0.14986752564E+03  0.15039874983E+03  0.00000000000E+00 0. -1.
         11    1    5    5    0    0  0.30765064601E+02  0.19310036422E+02  0.22107644165E+03  0.22404053151E+03  0.00000000000E+00 0. -1.
        -12    1    5    5    0    0 -0.31098960405E+02 -0.31332164189E+02  0.20435835265E+03  0.20907220320E+03  0.00000000000E+00 0.  1.
          5    1    4    4  501    0 -0.12592823803E+02 -0.20574258908E+02  0.22921211210E+03  0.23051582174E+03  0.41800000000E+01 0. -1.
         -5    1    4    4    0  501  0.35617309021E+02  0.26523827218E+02  0.19069704868E+02  0.48510124262E+02  0.41800000000E+01 0. -1.
</event>
<event>
11    1  0.8328696E-009  0.1599767E+03  0.7561462E-02  0.1087099E+00
         22   -1    0    0    0    0  0.00000000000E+00  0.00000000000E+00  0.91292170262E+03  0.91292170262E+03  0.00000000000E+00 0. -1.
         22   -1    0    0    0    0 -0.00000000000E+00 -0.00000000000E+00 -0.36793264293E+03  0.36793264293E+03  0.00000000000E+00 0.  1.
        -24    2    1    2    0    0 -0.13959756371E+02  0.50589189337E+02 -0.31558333234E+03  0.32966074029E+03  0.79556414939E+02 0.  0.
         25    2    1    2    0    0 -0.61048491557E+02  0.23407644330E+02  0.86027826894E+02  0.16529765845E+03  0.12509073808E+03 0.  0.
         24    2    1    2    0    0  0.75008247928E+02 -0.73996833666E+02  0.77454456514E+03  0.78589594681E+03  0.81310437067E+02 0.  0.
        -11    1    5    5    0    0 -0.15276705052E+02 -0.22802996259E+01  0.53295402125E+02  0.55488533692E+02  0.00000000000E+00 0.  1.
         12    1    5    5    0    0  0.90284952980E+02 -0.71716534041E+02  0.72124916302E+03  0.73040741312E+03  0.00000000000E+00 0. -1.
         13    1    3    3    0    0 -0.21639495883E+02 -0.13802171931E+02 -0.49136451240E+02  0.55436076454E+02  0.00000000000E+00 0. -1.
        -14    1    3    3    0    0  0.76797395117E+01  0.64391361268E+02 -0.26644688110E+03  0.27422466383E+03  0.00000000000E+00 0.  1.
          5    1    4    4  501    0 -0.88899702063E+02  0.46781134318E+02  0.44522402201E+02  0.10996066684E+03  0.41800000000E+01 0.  1.
         -5    1    4    4    0  501  0.27851210506E+02 -0.23373489988E+02  0.41505424693E+02  0.55336991604E+02  0.41800000000E+01 0.  1.
</event>
<event>
11    1  0.8905124E-009  0.1725057E+03  0.7561462E-02  0.1075871E+00
         22   -1    0    0    0    0  0.00000000000E+00  0.00000000000E+00  0.14334542954E+04  0.14334542954E+04  0.00000000000E+00 0.  1.
         22   -1    0    0    0    0 -0.00000000000E+00 -0.00000000000E+00 -0.63105145388E+03  0.63105145388E+03  0.00000000000E+00 0. -1.
        -24    2    1    2    0    0 -0.87422869694E+02 -0.10084825355E+03 -0.50191874026E+03  0.52604279152E+03  0.83579114040E+02 0.  0.
         25    2    1    2    0    0 -0.51456114464E+01  0.80194548736E+02 -0.65851152515E+02  0.16261053346E+03  0.12509263903E+03 0.  0.
         24    2    1    2    0    0  0.92568481140E+02  0.20653704813E+02  0.13701727343E+04  0.13758524243E+04  0.81246983993E+02 0.  0.
        -11    1    5    5    0    0  0.71091403679E+02  0.13030160101E+02  0.48212859929E+03  0.48751590641E+03  0.00000000000E+00 0.  1.
         12    1    5    5    0    0  0.21477077461E+02  0.76235447117E+01  0.88804413499E+03  0.88833651787E+03  0.00000000000E+00 0. -1.
         11    1    3    3    0    0 -0.42152430980E+02 -0.35302532919E+02 -0.35205884910E+03  0.35632643670E+03  0.00000000000E+00 0. -1.
        -12    1    3    3    0    0 -0.45270438714E+02 -0.65545720630E+02 -0.14985989116E+03  0.16971635482E+03  0.00000000000E+00 0.  1.
          5    1    4    4  501    0  0.12287704614E+02  0.27449416405E+01 -0.80661640104E+02  0.81745305514E+02  0.41800000000E+01 0.  1.
         -5    1    4    4    0  501 -0.17433316060E+02  0.77449607096E+02  0.14810487588E+02  0.80865227946E+02  0.41800000000E+01 0.  1.
</event>
<event>
11    1  0.8328696E-009  0.1279459E+03  0.7561462E-02  0.1121819E+00
         22   -1    0    0    0    0  0.00000000000E+00  0.00000000000E+00  0.15168339623E+04  0.15168339623E+04  0.00000000000E+00 0. -1.
         22   -1    0    0    0    0 -0.00000000000E+00 -0.00000000000E+00 -0.60231450039E+03  0.60231450039E+03  0.00000000000E+00 0.  1.
        -24    2    1    2    0    0  0.19775086334E+01  0.26663365032E+02 -0.58790820233E+03  0.59404419435E+03  0.80855456830E+02 0.  0.
         25    2    1    2    0    0  0.12780372498E+02 -0.45030319917E+02  0.44897170909E+03  0.46841843347E+03  0.12509662514E+03 0.  0.
         24    2    1    2    0    0 -0.14757881132E+02  0.18366954885E+02  0.10534559552E+04  0.10566858349E+04  0.79122462569E+02 0.  0.
        -11    1    5    5    0    0 -0.43764779484E+02  0.11387760242E+02  0.39981554202E+03  0.40236488993E+03  0.00000000000E+00 0.  1.
         12    1    5    5    0    0  0.29006898352E+02  0.69791946425E+01  0.65364041314E+03  0.65432094495E+03  0.00000000000E+00 0. -1.
         11    1    3    3    0    0 -0.36495882656E+02  0.18630839596E+02 -0.39850137707E+03  0.40060255261E+03  0.00000000000E+00 0. -1.
        -12    1    3    3    0    0  0.38473391290E+02  0.80325254366E+01 -0.18940682526E+03  0.19344164174E+03  0.00000000000E+00 0.  1.
          5    1    4    4  501    0 -0.13421065976E+02  0.18962864267E+02  0.12942223531E+02  0.26920044262E+02  0.41800000000E+01 0.  1.
         -5    1    4    4    0  501  0.26201438474E+02 -0.63993184184E+02  0.43602948556E+03  0.44149838921E+03  0.41800000000E+01 0.  1.
</event>
<event>
11    1  0.8328696E-009  0.1504170E+03  0.7561462E-02  0.1096453E+00
         22   -1    0    0    0    0  0.00000000000E+00  0.00000000000E+00  0.11804082510E+04  0.11804082510E+04  0.00000000000E+00 0. -1.
         22   -1    0    0    0    0 -0.00000000000E+00 -0.00000000000E+00 -0.10115192116E+04  0.10115192116E+04  0.00000000000E+00 0. -1.
        -24    2    1    2    0    0 -0.79883427502E+02 -0.22884793067E+02 -0.92493817229E+03  0.93119538791E+03  0.68623262570E+02 0.  0.
         25    2    1    2    0    0  0.74998109658E+02  0.82652902218E+02  0.52962615316E+01  0.16772551483E+03  0.12509028436E+03 0.  0.
         24    2    1    2    0    0  0.48853178444E+01 -0.59768109151E+02  0.10885309502E+04  0.10930065598E+04  0.78534178072E+02 0.  0.
        -13    1    5    5    0    0  0.17171190467E+02 -0.37875771992E+02  0.20793230778E+03  0.21205015563E+03  0.00000000000E+00 0.  1.
         14    1    5    5    0    0 -0.12285872622E+02 -0.21892337159E+02  0.88059864239E+03  0.88095640418E+03  0.00000000000E+00 0. -1.
         11    1    3    3    0    0 -0.61816877739E+02 -0.41078100590E+02 -0.81191908534E+03  0.81530444490E+03  0.00000000000E+00 0. -1.
        -12    1    3    3    0    0 -0.18066549763E+02  0.18193307523E+02 -0.11301908695E+03  0.11589094302E+03  0.00000000000E+00 0.  1.
          5    1    4    4  501    0  0.93514956399E+02  0.10314788210E+03 -0.72130015768E-02  0.13929108049E+03  0.41800000000E+01 0.  1.
         -5    1    4    4    0  501 -0.18516846741E+02 -0.20494979886E+02  0.53034745331E+01  0.28434434334E+02  0.41800000000E+01 0.  1.
</event>
<event>
11    1  0.8328696E-009  0.1276422E+03  0.7561462E-02  0.1122200E+00
         22   -1    0    0    0    0  0.00000000000E+00  0.00000000000E+00  0.18813089273E+03  0.18813089273E+03  0.00000000000E+00 0.  1.
         22   -1    0    0    0    0 -0.00000000000E+00 -0.00000000000E+00 -0.12812414112E+04  0.12812414112E+04  0.00000000000E+00 0. -1.
         24    2    1    2    0    0 -0.10736547601E+02  0.21577234517E+02 -0.11747826346E+04  0.11788829932E+04  0.95236665893E+02 0.  0.
         25    2    1    2    0    0 -0.18445014116E+00 -0.68428300609E+02 -0.29288672197E+02  0.14556236491E+03  0.12509240350E+03 0.  0.
        -24    2    1    2    0    0  0.10920997743E+02  0.46851066091E+02  0.11096078830E+03  0.14492694588E+03  0.79857576442E+02 0.  0.
        -11    1    3    3    0    0 -0.10000564686E+02 -0.14726805909E+01 -0.11259391948E+02  0.15131225635E+02  0.00000000000E+00 0.  1.
         12    1    3    3    0    0 -0.73598291558E+00  0.23049915108E+02 -0.11635232427E+04  0.11637517676E+04  0.00000000000E+00 0. -1.
         13    1    5    5    0    0  0.66656895711E-01 -0.21939988613E+02  0.39242031275E+02  0.44958920829E+02  0.00000000000E+00 0. -1.
        -14    1    5    5    0    0  0.10854340847E+02  0.68791054705E+02  0.71718757029E+02  0.99968025050E+02  0.00000000000E+00 0.  1.
          5    1    4    4  501    0  0.32751538096E+02  0.58687925697E+01 -0.51274564387E+02  0.61267114564E+02  0.41800000000E+01 0. -1.
         -5    1    4    4    0  501 -0.32935988237E+02 -0.74297093178E+02  0.21985892190E+02  0.84295250348E+02  0.41800000000E+01 0. -1.
</event>
<event>
11    1  0.8328696E-009  0.1828432E+03  0.7561462E-02  0.1067366E+00
         22   -1    0    0    0    0  0.00000000000E+00  0.00000000000E+00  0.23658290275E+03  0.23658290275E+03  0.00000000000E+00 0. -1.
         22   -1    0    0    0    0 -0.00000000000E+00 -0.00000000000E+00 -0.80292004798E+03  0.80292004798E+03  0.00000000000E+00 0.  1.
        -24    2    1    2    0    0 -0.12127796509E+03  0.29910523798E+02 -0.58700219800E+03  0.60555855809E+03  0.80787391181E+02 0.  0.
         25    2    1    2    0    0  0.20849731104E+03 -0.10394502717E+03 -0.63826241986E+02  0.27202348373E+03  0.12508912483E+03 0.  0.
         24    2    1    2    0    0 -0.87219345950E+02  0.74034503376E+02  0.84491294742E+02  0.16192090891E+03  0.77403358169E+02 0.  0.
        -13    1    5    5    0    0 -0.34352459941E+02 -0.12638868335E+02  0.22129261700E+02  0.42773084062E+02  0.00000000000E+00 0.  1.
         14    1    5    5    0    0 -0.52866886009E+02  0.86673371711E+02  0.62362033042E+02  0.11914782484E+03  0.00000000000E+00 0. -1.
         11    1    3    3    0    0 -0.18473743790E+02  0.11461823335E+01 -0.15414022756E+02  0.24087030557E+02  0.00000000000E+00 0. -1.
        -12    1    3    3    0    0 -0.10280422130E+03  0.28764341464E+02 -0.57158817524E+03  0.58147152753E+03  0.00000000000E+00 0.  1.
          5    1    4    4  501    0  0.22109098639E+02 -0.49566577114E+02  0.23249751435E+02  0.59191901061E+02  0.41800000000E+01 0. -1.
         -5    1    4    4    0  501  0.18638821240E+03 -0.54378450060E+02 -0.87075993421E+02  0.21283158267E+03  0.41800000000E+01 0. -1.
</event>
<event>
11    1  0.8328696E-009  0.1536883E+03  0.7561462E-02  0.1093169E+00
         22   -1    0    0    0    0  0.00000000000E+00  0.00000000000E+00  0.44865790424E+03  0.44865790424E+03  0.00000000000E+00 0.  1.
         22   -1    0    0    0    0 -0.00000000000E+00 -0.00000000000E+00 -0.15113062726E+04  0.15113062726E+04  0.00000000000E+00 0.  1.
         24    2    1    2    0    0 -0.87619771557E+02 -0.10287955551E+02 -0.13990452232E+04  0.14041372208E+04  0.80565077011E+02 0.  0.
         25    2    1    2    0    0  0.11735174475E+03  0.81957050952E+02 -0.11390129831E+02  0.19043549289E+03  0.12509017427E+03 0.  0.
        -24    2    1    2    0    0 -0.29731973195E+02 -0.71669095400E+02  0.34778698472E+03  0.36539146320E+03  0.80837399611E+02 0.  0.
        -13    1    3    3    0    0 -0.46667467963E+02  0.76551552178E+01 -0.11589492155E+04  0.11599136770E+04  0.00000000000E+00 0.  1.
         14    1    3    3    0    0 -0.40952303593E+02 -0.17943110769E+02 -0.24009600776E+03  0.24422354378E+03  0.00000000000E+00 0. -1.
         13    1    5    5    0    0  0.23349225513E+02 -0.37259137196E+02  0.19746563217E+03  0.20230201562E+03  0.00000000000E+00 0. -1.
        -14    1    5    5    0    0 -0.53081198707E+02 -0.34409958204E+02  0.15032135255E+03  0.16308944758E+03  0.00000000000E+00 0.  1.
          5    1    4    4  501    0  0.72773023275E+02 -0.18271031803E+02 -0.26377290050E+02  0.79642811039E+02  0.41800000000E+01 0. -1.
         -5    1    4    4    0  501  0.44578721476E+02  0.10022808275E+03  0.14987160219E+02  0.11079268185E+03  0.41800000000E+01 0. -1.
</event>
<event>
11    1  0.8328696E-009  0.1431101E+03  0.7561462E-02  0.1104134E+00
         22   -1    0    0    0    0  0.00000000000E+00  0.00000000000E+00  0.12213564176E+04  0.12213564176E+04  0.00000000000E+00 0. -1.
         22   -1    0    0    0    0 -0.00000000000E+00 -0.00000000000E+00 -0.20603085015E+03  0.20603085015E+03  0.00000000000E+00 0. -1.
        -24    2    1    2    0    0  0.72907690850E+02 -0.42537503427E+01 -0.15400589070E+03  0.18904490170E+03  0.81771234012E+02 0.  0.
         25    2    1    2    0    0 -0.42872063731E+02 -0.19710865925E+01  0.10200703139E+03  0.16701053450E+03  0.12508071455E+03 0.  0.
         24    2    1    2    0    0 -0.30035627119E+02  0.62248369352E+01  0.10673244268E+04  0.10713318316E+04  0.87347431740E+02 0.  0.
        -13    1    5    5    0    0 -0.24634446245E+02 -0.86535151815E+01  0.85918306153E+02  0.89798076812E+02  0.00000000000E+00 0.  1.
         14    1    5    5    0    0 -0.54011808740E+01  0.14878352117E+02  0.98140612064E+03  0.98153375477E+03  0.00000000000E+00 0. -1.
         11    1    3    3    0    0  0.84599535607E+02 -0.17906398215E+02 -0.14527053118E+03  0.16905989398E+03  0.00000000000E+00 0. -1.
        -12    1    3    3    0    0 -0.11691844757E+02  0.13652647872E+02 -0.87353595143E+01  0.19985007720E+02  0.00000000000E+00 0.  1.
          5    1    4    4  501    0  0.29598674822E+01 -0.34560032101E+02 -0.14302084301E+02  0.37751538375E+02  0.41800000000E+01 0. -1.
         -5    1    4    4    0  501 -0.45831931213E+02  0.32588945508E+02  0.11630911569E+03  0.12925899613E+03  0.41800000000E+01 0. -1.
</event>
<event>
11    1  0.8328696E-009  0.1489775E+03  0.7561462E-02  0.1097928E+00
         22   -1    0    0    0    0  0.00000000000E+00  0.00000000000E+00  0.10701710489E+04  0.10701710489E+04  0.00000000000E+00 0. -1.
         22   -1    0    0    0    0 -0.00000000000E+00 -0.00000000000E+00 -0.17488321059E+03  0.17488321059E+03  0.00000000000E+00 0. -1.
         24    2    1    2    0    0 -0.12740253869E+02  0.75081683148E+02 -0.73285197129E+02  0.13317613214E+03  0.81028321224E+02 0.  0.
         25    2    1    2    0    0  0.37300557143E+02 -0.89466833688E+02  0.20008594647E+02  0.15950887465E+03  0.12508833415E+03 0.  0.
        -24    2    1    2    0    0 -0.24560303274E+02  0.14385150540E+02  0.94856444077E+03  0.95236925269E+03  0.80140839245E+02 0.  0.
        -13    1    3    3    0    0  0.27984135567E+02  0.41836220274E+02 -0.10729675324E+02  0.51463648363E+02  0.00000000000E+00 0.  1.
         14    1    3    3    0    0 -0.40724389436E+02  0.33245462874E+02 -0.62555521806E+02  0.81712483777E+02  0.00000000000E+00 0. -1.
         13    1    5    5    0    0 -0.45516966425E+02  0.10650601551E+01  0.31034607851E+03  0.31366800448E+03  0.00000000000E+00 0. -1.
        -14    1    5    5    0    0  0.20956663151E+02  0.13320090385E+02  0.63821836227E+03  0.63870124821E+03  0.00000000000E+00 0.  1.
          5    1    4    4  501    0  0.19505054937E+02 -0.79799895384E+02 -0.43266561095E+02  0.92940508823E+02  0.41800000000E+01 0. -1.
         -5    1    4    4    0  501  0.17795502206E+02 -0.96669383045E+01  0.63275155742E+02  0.66568365829E+02  0.41800000000E+01 0. -1.
</event>
<event>
11    1  0.8328696E-009  0.1503330E+03  0.7561462E-02  0.1096539E+00
         22   -1    0    0    0    0  0.00000000000E+00  0.00000000000E+00  0.30663166074E+03  0.30663166074E+03  0.00000000000E+00 0. -1.
         22   -1    0    0    0    0 -0.00000000000E+00 -0.00000000000E+00 -0.12631217279E+03  0.12631217279E+03  0.00000000000E+00 0.  1.
         24    2    1    2    0    0  0.25976390301E+02 -0.10389233933E+02  0.61254884399E+01  0.84965778066E+02  0.79993454725E+02 0.  0.
         25    2    1    2    0    0 -0.97661588674E+02  0.38938036181E+02  0.31207005167E+02  0.16635996820E+03  0.12509118788E+03 0.  0.
        -24    2    1    2    0    0  0.71685198373E+02 -0.28548802248E+02  0.14298699434E+03  0.18161808727E+03  0.81154465659E+02 0.  0.
        -11    1    3    3    0    0 -0.46248923778E+00 -0.27235609013E+02 -0.27698008709E+02  0.38848062771E+02  0.00000000000E+00 0.  1.
         12    1    3    3    0    0  0.26438879539E+02  0.16846375080E+02  0.33823497149E+02  0.46117715295E+02  0.00000000000E+00 0. -1.
         11    1    5    5    0    0  0.26778958689E+01 -0.28525919744E+02  0.90474120733E+02  0.94902401160E+02  0.00000000000E+00 0. -1.
        -12    1    5    5    0    0  0.69007302504E+02 -0.22882504414E-01  0.52512873609E+02  0.86715686108E+02  0.00000000000E+00 0.  1.
          5    1    4    4  501    0  0.10184926355E+02  0.30234083146E+02 -0.28262129440E+02  0.42825843472E+02  0.41800000000E+01 0.  1.
         -5    1    4    4    0  501 -0.10784651503E+03  0.87039530349E+01  0.59469134608E+02  0.12353412473E+03  0.41800000000E+01 0.  1.
</event>
<event>
11    1  0.8328696E-009  0.2099158E+03  0.7561462E-02  0.1047725E+00
         22   -1    0    0    0    0  0.00000000000E+00  0.00000000000E+00  0.99477111794E+02  0.99477111794E+02  0.00000000000E+00 0. -1.
         22   -1    0    0    0    0 -0.00000000000E+00 -0.00000000000E+00 -0.89903908693E+03  0.89903908693E+03  0.00000000000E+00 0.  1.
         24    2    1    2    0    0  0.21735357064E+02 -0.15260628637E+02 -0.37420206440E+03  0.38413801945E+03  0.82640912708E+02 0.  0.
         25    2    1    2    0    0  0.10730851065E+03  0.12619572035E+03 -0.35350098606E+03  0.40993936720E+03  0.12508741478E+03 0.  0.
        -24    2    1    2    0    0 -0.12904386772E+03 -0.11093509172E+03 -0.71858924674E+02  0.20443881208E+03  0.87593427030E+02 0.  0.
        -13    1    3    3    0    0 -0.23108515241E+02  0.11799077351E+01 -0.25000469716E+03  0.25107318507E+03  0.00000000000E+00 0.  1.
         14    1    3    3    0    0  0.44843872305E+02 -0.16440536372E+02 -0.12419736724E+03  0.13306483438E+03  0.00000000000E+00 0. -1.
         13    1    5    5    0    0 -0.80345621215E+02 -0.61145696079E+02  0.45285107538E+01  0.10106790988E+03  0.00000000000E+00 0. -1.
        -14    1    5    5    0    0 -0.48698246502E+02 -0.49789395636E+02 -0.76387435428E+02  0.10337090220E+03  0.00000000000E+00 0.  1.
          5    1    4    4  501    0  0.97581628737E+02  0.53085647534E+02 -0.11368421754E+03  0.15900262249E+03  0.41800000000E+01 0. -1.
         -5    1    4    4    0  501  0.97268819158E+01  0.73110072818E+02 -0.23981676852E+03  0.25093674471E+03  0.41800000000E+01 0. -1.
</event>
<event>
11    1  0.8328696E-009  0.1354768E+03  0.7561462E-02  0.1112717E+00
         22   -1    0    0    0    0  0.00000000000E+00  0.00000000000E+00  0.13719943337E+04  0.13719943337E+04  0.00000000000E+00 0. -1.
         22   -1    0    0    0    0 -0.00000000000E+00 -0.00000000000E+00 -0.26911448928E+03  0.26911448928E+03  0.00000000000E+00 0. -1.
         24    2    1    2    0    0  0.40702398745E+02  0.33292016594E+02 -0.25041716694E+03  0.26802874918E+03  0.79784768328E+02 0.  0.
         25    2    1    2    0    0 -0.14317727591E+02 -0.88853603986E+01  0.54920519709E+03  0.56352256637E+03  0.12508951733E+03 0.  0.
        -24    2    1    2    0    0 -0.26384671154E+02 -0.24406656195E+02  0.80409181428E+03  0.80955750745E+03  0.86763335152E+02 0.  0.
        -13    1    3    3    0    0  0.26105300473E+02  0.38579093983E+02 -0.55340846616E+02  0.72335624069E+02  0.00000000000E+00 0.  1.
         14    1    3    3    0    0  0.14597098272E+02 -0.52870773891E+01 -0.19507632032E+03  0.19569312511E+03  0.00000000000E+00 0. -1.
         11    1    5    5    0    0  0.98834548501E+00 -0.84662438185E+00  0.68747494167E+03  0.68747617342E+03  0.00000000000E+00 0. -1.
        -12    1    5    5    0    0 -0.27373016639E+02 -0.23560031813E+02  0.11661687262E+03  0.12208133403E+03  0.00000000000E+00 0.  1.
          5    1    4    4  501    0 -0.65015925157E+02 -0.28302216075E+02  0.28031976752E+03  0.28917940871E+03  0.41800000000E+01 0.  1.
         -5    1    4    4    0  501  0.50698197567E+02  0.19416855676E+02  0.26888542957E+03  0.27434315766E+03  0.41800000000E+01 0.  1.
</event>
<event>
11    1  0.8328696E-009  0.1488192E+03  0.7561462E-02  0.1098091E+00
         22   -1    0    0    0    0  0.00000000000E+00  0.00000000000E+00  0.19429264615E+04  0.19429264615E+04  0.00000000000E+00 0. -1.
         22   -1    0    0    0    0 -0.00000000000E+00 -0.00000000000E+00 -0.15071782489E+03  0.15071782489E+03  0.00000000000E+00 0.  1.
        -24    2    1    2    0    0 -0.21883488314E+02 -0.77121297576E+02 -0.11296798894E+03  0.16373952771E+03  0.87305697451E+02 0.  0.
         25    2    1    2    0    0 -0.37950141930E+02  0.10665663432E+03  0.69285931800E+03  0.71310416623E+03  0.12509063291E+03 0.  0.
         24    2    1    2    0    0  0.59833630244E+02 -0.29535336749E+02  0.12123173075E+04  0.12168005924E+04  0.80237324128E+02 0.  0.
        -11    1    5    5    0    0 -0.11478036874E+02  0.46251713250E+01  0.49212724109E+03  0.49228280385E+03  0.00000000000E+00 0.  1.
         12    1    5    5    0    0  0.71311667118E+02 -0.34160508074E+02  0.72019006642E+03  0.72451778857E+03  0.00000000000E+00 0. -1.
         13    1    3    3    0    0  0.26304591080E+02 -0.17519866049E+01 -0.12374182987E+02  0.29122523475E+02  0.00000000000E+00 0. -1.
        -14    1    3    3    0    0 -0.48188079394E+02 -0.75369310971E+02 -0.10059380595E+03  0.13461700423E+03  0.00000000000E+00 0.  1.
          5    1    4    4  501    0 -0.36136878714E+02  0.11447302629E+03  0.34836326046E+03  0.36848932330E+03  0.41800000000E+01 0. -1.
         -5    1    4    4    0  501 -0.18132632159E+01 -0.78163919611E+01  0.34449605754E+03  0.34461484293E+03  0.41800000000E+01 0. -1.
</event>
<event>
11    1  0.8328696E-009  0.1504687E+03  0.7561462E-02  0.1096401E+00
         22   -1    0    0    0    0  0.00000000000E+00  0.00000000000E+00  0.14250744572E+04  0.14250744572E+04  0.00000000000E+00 0. -1.
         22   -1    0    0    0    0 -0.00000000000E+00 -0.00000000000E+00 -0.34089699670E+03  0.34089699670E+03  0.00000000000E+00 0. -1.
         24    2    1    2    0    0 -0.42400252037E+02  0.18028033302E+02 -0.31770306364E+03  0.33081687585E+03  0.79886027188E+02 0.  0.
         25    2    1    2    0    0  0.69849760968E+02 -0.89132212691E+02  0.53603123665E+03  0.56196242165E+03  0.12509490892E+03 0.  0.
        -24    2    1    2    0    0 -0.27449508932E+02  0.71104179388E+02  0.86584928746E+03  0.87319215635E+03  0.83428253362E+02 0.  0.
        -13    1    3    3    0    0  0.15305268938E+02 -0.17511408926E+02 -0.10637581130E+03  0.10888853902E+03  0.00000000000E+00 0.  1.
         14    1    3    3    0    0 -0.57705520975E+02  0.35539442228E+02 -0.21132725234E+03  0.22192833683E+03  0.00000000000E+00 0. -1.
         13    1    5    5    0    0 -0.44659551198E+01  0.58615044512E+02  0.80256462964E+03  0.80471464069E+03  0.00000000000E+00 0. -1.
        -14    1    5    5    0    0 -0.22983553812E+02  0.12489134876E+02  0.63284657819E+02  0.68477515660E+02  0.00000000000E+00 0.  1.
          5    1    4    4  501    0 -0.26641666868E+02 -0.34032056300E+02  0.66327726755E+02  0.79276724239E+02  0.41800000000E+01 0. -1.
         -5    1    4    4    0  501  0.96491427837E+02 -0.55100156391E+02  0.46970350990E+03  0.48268569742E+03  0.41800000000E+01 0. -1.
</event>
<event>
11    1  0.8328696E-009  0.1491561E+03  0.7561462E-02  0.1097744E+00
         22   -1    0    0    0    0  0.00000000000E+00  0.00000000000E+00  0.27484632199E+03  0.27484632199E+03  0.00000000000E+00 0.  1.
         22   -1    0    0    0    0 -0.00000000000E+00 -0.00000000000E+00 -0.27906108235E+04  0.27906108235E+04  0.00000000000E+00 0.  1.
        -24    2    1    2    0    0 -0.60449298076E+02  0.55347064244E+02 -0.27118736832E+04  0.27143151334E+04  0.80810609576E+02 0.  0.
         25    2    1    2    0    0  0.32456272236E+02 -0.28915897293E+02 -0.42099236817E+01  0.13249417624E+03  0.12508974600E+03 0.  0.
         24    2    1    2    0    0  0.27993025840E+02 -0.26431166951E+02  0.20031910532E+03  0.21864783591E+03  0.78720493582E+02 0.  0.
        -13    1    5    5    0    0 -0.65665282210E+01 -0.40369226522E+02  0.15324750496E+03  0.15861144826E+03  0.00000000000E+00 0.  1.
         14    1    5    5    0    0  0.34559554061E+02  0.13938059571E+02  0.47071600358E+02  0.60036387648E+02  0.00000000000E+00 0. -1.
         13    1    3    3    0    0 -0.45508883958E+02 -0.51481708281E+01 -0.71237086583E+03  0.71384158794E+03  0.00000000000E+00 0. -1.
        -14    1    3    3    0    0 -0.14940414118E+02  0.60495235072E+02 -0.19995028173E+04  0.20004735454E+04  0.00000000000E+00 0.  1.
          5    1    4    4  501    0 -0.38574357372E+02  0.67879651890E+01  0.26164355111E+02  0.47287454958E+02  0.41800000000E+01 0. -1.
         -5    1    4    4    0  501  0.71030629608E+02 -0.35703862482E+02 -0.30374278792E+02  0.85206721277E+02  0.41800000000E+01 0. -1.
</event>
<event>
11    1  0.8328696E-009  0.1978458E+03  0.7561462E-02  0.1056058E+00
         22   -1    0    0    0    0  0.00000000000E+00  0.00000000000E+00  0.72188317302E+03  0.72188317302E+03  0.00000000000E+00 0.  1.
         22   -1    0    0    0    0 -0.00000000000E+00 -0.00000000000E+00 -0.76013769562E+03  0.76013769562E+03  0.00000000000E+00 0. -1.
        -24    2    1    2    0    0 -0.14848349657E+03  0.25671255282E+02 -0.56970586675E+03  0.59627176419E+03  0.90933382531E+02 0.  0.
         25    2    1    2    0    0  0.15713755898E+03 -0.59419831865E+02 -0.11244835787E+03  0.23772719944E+03  0.12508660721E+03 0.  0.
         24    2    1    2    0    0 -0.86540624101E+01  0.33748576583E+02  0.64389970202E+03  0.64802190501E+03  0.64122569326E+02 0.  0.
        -13    1    5    5    0    0  0.21802602144E+02  0.34715422794E+02  0.30251516937E+03  0.30528010374E+03  0.00000000000E+00 0.  1.
         14    1    5    5    0    0 -0.30456664555E+02 -0.96684621082E+00  0.34138453265E+03  0.34274180127E+03  0.00000000000E+00 0. -1.
         13    1    3    3    0    0 -0.30461566322E+02  0.46373631170E+02 -0.15657025601E+03  0.16611040232E+03  0.00000000000E+00 0. -1.
        -14    1    3    3    0    0 -0.11802193025E+03 -0.20702375888E+02 -0.41313561074E+03  0.43016136187E+03  0.00000000000E+00 0.  1.
          5    1    4    4  501    0  0.16517471550E+03 -0.70438562487E+02 -0.12491559205E+03  0.21878220966E+03  0.41800000000E+01 0. -1.
         -5    1    4    4    0  501 -0.80371565247E+01  0.11018730622E+02  0.12467234181E+02  0.18944989777E+02  0.41800000000E+01 0. -1.
</event>
<event>
11    1  0.8328696E-009  0.1550993E+03  0.7561462E-02  0.1091779E+00
         22   -1    0    0    0    0  0.00000000000E+00  0.00000000000E+00  0.98849850930E+03  0.98849850930E+03  0.00000000000E+00 0. -1.
         22   -1    0    0    0    0 -0.00000000000E+00 -0.00000000000E+00 -0.41970002006E+03  0.41970002006E+03  0.00000000000E+00 0. -1.
         24    2    1    2    0    0  0.46568284199E+02  0.93495341623E+02 -0.32677194147E+03  0.35245286027E+03  0.80827798358E+02 0.  0.
         25    2    1    2    0    0  0.16772409891E+02 -0.44476804656E+02 -0.17901982344E+02  0.13501045209E+03  0.12509133189E+03 0.  0.
        -24    2    1    2    0    0 -0.63340694090E+02 -0.49018536967E+02  0.91347241306E+03  0.92073521700E+03  0.83106136415E+02 0.  0.
        -11    1    3    3    0    0 -0.21309281986E+02  0.36358534068E+02 -0.84059382756E+02  0.94031953758E+02  0.00000000000E+00 0.  1.
         12    1    3    3    0    0  0.67877566185E+02  0.57136807555E+02 -0.24271255871E+03  0.25842090652E+03  0.00000000000E+00 0. -1.
         13    1    5    5    0    0 -0.45432838126E+01  0.10843593960E+02  0.42111460640E+03  0.42127869241E+03  0.00000000000E+00 0. -1.
        -14    1    5    5    0    0 -0.58797410277E+02 -0.59862130927E+02  0.49235780666E+03  0.49945652459E+03  0.00000000000E+00 0.  1.
          5    1    4    4  501    0  0.31190403680E+01  0.25923948503E+02 -0.49821175931E+02  0.56403913783E+02  0.41800000000E+01 0. -1.
         -5    1    4    4    0  501  0.13653369523E+02 -0.70400753159E+02  0.31919193587E+02  0.78606538303E+02  0.41800000000E+01 0. -1.
</event>
<event>
11    1  0.8328696E-009  0.1390474E+03  0.7561462E-02  0.1108627E+00
         22   -1    0    0    0    0  0.00000000000E+00  0.00000000000E+00  0.19851732581E+03  0.19851732581E+03  0.00000000000E+00 0. -1.
         22   -1    0    0    0    0 -0.00000000000E+00 -0.00000000000E+00 -0.63749309354E+03  0.63749309354E+03  0.00000000000E+00 0. -1.
        -24    2    1    2    0    0  0.30281143369E+02 -0.10308124899E+02 -0.48535636373E+03  0.49294963004E+03  0.80033323420E+02 0.  0.
         25    2    1    2    0    0  0.33212189128E+02  0.17135864227E+02 -0.99959024333E+02  0.16442563505E+03  0.12508915047E+03 0.  0.
         24    2    1    2    0    0 -0.63493332497E+02 -0.68277393285E+01  0.14633962033E+03  0.17863515426E+03  0.80107506276E+02 0.  0.
        -13    1    5    5    0    0  0.13544119360E+02  0.12981311819E+02  0.11274443436E+02  0.21887683764E+02  0.00000000000E+00 0.  1.
         14    1    5    5    0    0 -0.77037451857E+02 -0.19809051148E+02  0.13506517690E+03  0.15674747049E+03  0.00000000000E+00 0. -1.
         11    1    3    3    0    0  0.34781637521E+02 -0.23622249938E+02 -0.11700030239E+03  0.12432555554E+03  0.00000000000E+00 0. -1.
        -12    1    3    3    0    0 -0.45004941522E+01  0.13314125039E+02 -0.36835606135E+03  0.36862407450E+03  0.00000000000E+00 0.  1.
          5    1    4    4  501    0 -0.74127011574E+01 -0.43068017854E+02 -0.41063574449E+01  0.44092367501E+02  0.41800000000E+01 0.  1.
         -5    1    4    4    0  501  0.40624890286E+02  0.60203882081E+02 -0.95852666888E+02  0.12033326754E+03  0.41800000000E+01 0.  1.
</event>
<event>
11    1  0.8328696E-009  0.1280308E+03  0.7561462E-02  0.1121712E+00
         22   -1    0    0    0    0  0.00000000000E+00  0.00000000000E+00  0.15458783646E+04  0.15458783646E+04  0.00000000000E+00 0.  1.
         22   -1    0    0    0    0 -0.00000000000E+00 -0.00000000000E+00 -0.32184827946E+03  0.32184827946E+03  0.00000000000E+00 0.  1.
         24    2    1    2    0    0 -0.24177446371E+02  0.14319279665E+02 -0.29823618972E+03  0.31173300758E+03  0.86273127203E+02 0.  0.
         25    2    1    2    0    0  0.54276078566E+01  0.18056016578E+02  0.24481920524E+03  0.27557157008E+03  0.12509104013E+03 0.  0.
        -24    2    1    2    0    0  0.18749838514E+02 -0.32375296243E+02  0.12774470696E+04  0.12804220664E+04  0.78803148287E+02 0.  0.
        -11    1    3    3    0    0 -0.21412326661E+02  0.38159246906E+01 -0.29994989789E+03  0.30073741081E+03  0.00000000000E+00 0.  1.
         12    1    3    3    0    0 -0.27651197104E+01  0.10503354975E+02  0.17137081756E+01  0.10995596775E+02  0.00000000000E+00 0. -1.
         11    1    5    5    0    0 -0.15325351582E+02  0.13668030314E+02  0.66113575888E+03  0.66145458886E+03  0.00000000000E+00 0. -1.
        -12    1    5    5    0    0  0.34075190096E+02 -0.46043326557E+02  0.61631131071E+03  0.61896747751E+03  0.00000000000E+00 0.  1.
          5    1    4    4  501    0  0.23311063975E+01  0.72072540061E+02  0.13843838160E+03  0.15614910499E+03  0.41800000000E+01 0. -1.
         -5    1    4    4    0  501  0.30965014591E+01 -0.54016523483E+02  0.10638082364E+03  0.11942246509E+03  0.41800000000E+01 0. -1.
</event>
<event>
11    1  0.8328696E-009  0.1921532E+03  0.7561462E-02  0.1060215E+00
         22   -1    0    0    0    0  0.00000000000E+00  0.00000000000E+00  0.10544167986E+04  0.10544167986E+04  0.00000000000E+00 0.  1.
         22   -1    0    0    0    0 -0.00000000000E+00 -0.00000000000E+00 -0.19303474918E+03  0.19303474918E+03  0.00000000000E+00 0. -1.
         24    2    1    2    0    0 -0.14019479305E+03 -0.45571297432E+02 -0.10776196678E+03  0.19922370717E+03  0.79662543675E+02 0.  0.
         25    2    1    2    0    0  0.12352417584E+03  0.65002176381E+02  0.19843109729E+03  0.27295494742E+03  0.12508396380E+03 0.  0.
        -24    2    1    2    0    0  0.16670617212E+02 -0.19430878949E+02  0.77071291896E+03  0.77527289323E+03  0.79963660443E+02 0.  0.
        -11    1    3    3    0    0 -0.85779345774E+02  0.26230424773E+01 -0.25672831894E+02  0.89577177957E+02  0.00000000000E+00 0.  1.
         12    1    3    3    0    0 -0.54415447280E+02 -0.48194339909E+02 -0.82089134887E+02  0.10964652921E+03  0.00000000000E+00 0. -1.
         13    1    5    5    0    0  0.16844379107E+02 -0.33486718263E+02  0.15751104627E+03  0.16190992281E+03  0.00000000000E+00 0. -1.
        -14    1    5    5    0    0 -0.17376189409E+00  0.14055839314E+02  0.61320187269E+03  0.61336297042E+03  0.00000000000E+00 0.  1.
          5    1    4    4  501    0  0.14229660194E+03  0.78947968744E+02  0.16355912174E+03  0.23075996923E+03  0.41800000000E+01 0.  1.
         -5    1    4    4    0  501 -0.18772426101E+02 -0.13945792363E+02  0.34871975547E+02  0.42194978195E+02  0.41800000000E+01 0.  1.
</event>
<event>
11    1  0.8328696E-009  0.1968373E+03  0.7561462E-02  0.1056783E+00
         22   -1    0    0    0    0  0.00000000000E+00  0.00000000000E+00  0.35585842236E+03  0.35585842236E+03  0.00000000000E+00 0. -1.
         22   -1    0    0    0    0 -0.00000000000E+00 -0.00000000000E+00 -0.19121349736E+04  0.19121349736E+04  0.00000000000E+00 0.  1.
         24    2    1    2    0    0 -0.50218293225E+02  0.14037058352E+03 -0.16469668783E+04  0.16556446848E+04  0.80210013386E+02 0.  0.
         25    2    1    2    0    0  0.78997026289E+02 -0.16804336935E+03 -0.20491920994E+03  0.30350843035E+03  0.12508549295E+03 0.  0.
        -24    2    1    2    0    0 -0.28778733064E+02  0.27672785825E+02  0.29560953698E+03  0.30884028087E+03  0.80020760939E+02 0.  0.
        -11    1    3    3    0    0 -0.56512722006E+02  0.78324157293E+02 -0.12587972041E+04  0.12624970346E+04  0.00000000000E+00 0.  1.
         12    1    3    3    0    0  0.62944287801E+01  0.62046426229E+02 -0.38816967423E+03  0.39314765017E+03  0.00000000000E+00 0. -1.
         13    1    5    5    0    0 -0.32332204704E+01  0.31130595934E+02  0.27227876634E+03  0.27407169558E+03  0.00000000000E+00 0. -1.
        -14    1    5    5    0    0 -0.25545512594E+02 -0.34578101095E+01  0.23330770642E+02  0.34768585291E+02  0.00000000000E+00 0.  1.
          5    1    4    4  501    0  0.33858147679E+02 -0.20196778291E+02  0.79139290686E+01  0.40427548663E+02  0.41800000000E+01 0. -1.
         -5    1    4    4    0  501  0.45138878610E+02 -0.14784659106E+03 -0.21283313901E+03  0.26308088169E+03  0.41800000000E+01 0. -1.
</event>
<event>
11    1  0.8328696E-009  0.2015712E+03  0.7561462E-02  0.1053418E+00
         22   -1    0    0    0    0  0.00000000000E+00  0.00000000000E+00  0.58784434918E+03  0.58784434918E+03  0.00000000000E+00 0.  1.
         22   -1    0    0    0    0 -0.00000000000E+00 -0.00000000000E+00 -0.46774480756E+03  0.46774480756E+03  0.00000000000E+00 0. -1.
        -24    2    1    2    0    0  0.59990815752E+02 -0.64504891274E+01 -0.31778023522E+03  0.33326924312E+03  0.80272060697E+02 0.  0.
         25    2    1    2    0    0 -0.17602954276E+03  0.10505311279E+03 -0.11304155517E+02  0.24041110423E+03  0.12508860330E+03 0.  0.
         24    2    1    2    0    0  0.11603872700E+03 -0.98602623659E+02  0.44918393236E+03  0.48190880939E+03  0.85337166134E+02 0.  0.
        -11    1    5    5    0    0  0.61468695450E+02 -0.13442711132E+01  0.13007571791E+03  0.14387459809E+03  0.00000000000E+00 0.  1.
         12    1    5    5    0    0  0.54570031554E+02 -0.97258352546E+02  0.31910821445E+03  0.33803421131E+03  0.00000000000E+00 0. -1.
         13    1    3    3    0    0  0.43444452028E+02  0.13968940348E+02 -0.29493986748E+03  0.29844945490E+03  0.00000000000E+00 0. -1.
        -14    1    3    3    0    0  0.16546363724E+02 -0.20419429475E+02 -0.22840367742E+02  0.34819788213E+02  0.00000000000E+00 0.  1.
          5    1    4    4  501    0 -0.21196099093E+02  0.80402796209E+02 -0.62859684546E+01  0.83491736444E+02  0.41800000000E+01 0.  1.
         -5    1    4    4    0  501 -0.15483344366E+03  0.24650316577E+02 -0.50181870623E+01  0.15691936778E+03  0.41800000000E+01 0.  1.
</event>
<event>
11    1  0.8328696E-009  0.1730502E+03  0.7561462E-02  0.1075407E+00
         22   -1    0    0    0    0  0.00000000000E+00  0.00000000000E+00  0.10147525287E+04  0.10147525287E+04  0.00000000000E+00 0.  1.
         22   -1    0    0    0    0 -0.00000000000E+00 -0.00000000000E+00 -0.10180289353E+04  0.10180289353E+04  0.00000000000E+00 0. -1.
         24    2    1    2    0    0 -0.73582081074E+02  0.27523271427E+02 -0.83594912861E+03  0.84333601546E+03  0.78948313556E+02 0.  0.
         25    2    1    2    0    0  0.17970078135E+03 -0.77212355151E+02 -0.95003491339E+02  0.25085620343E+03  0.12509617430E+03 0.  0.
        -24    2    1    2    0    0 -0.10611870027E+03  0.49689083724E+02  0.92767621338E+03  0.93858924517E+03  0.81464290817E+02 0.  0.
        -13    1    3    3    0    0 -0.69075390694E+02  0.46260659925E+01 -0.34746108403E+03  0.35429086214E+03  0.00000000000E+00 0.  1.
         14    1    3    3    0    0 -0.45066903795E+01  0.22897205434E+02 -0.48848804459E+03  0.48904515331E+03  0.00000000000E+00 0. -1.
         11    1    5    5    0    0 -0.28287321391E+01 -0.86090636777E+01  0.27974799941E+03  0.27989473178E+03  0.00000000000E+00 0. -1.
        -12    1    5    5    0    0 -0.10328996814E+03  0.58298147402E+02  0.64792821397E+03  0.65869451338E+03  0.00000000000E+00 0.  1.
          5    1    4    4  501    0  0.14591448428E+03 -0.19305794138E+02 -0.17480322236E+02  0.14827941353E+03  0.41800000000E+01 0.  1.
         -5    1    4    4    0  501  0.33786297065E+02 -0.57906561013E+02 -0.77523169103E+02  0.10257678990E+03  0.41800000000E+01 0.  1.
</event>
<event>
11    1  0.8328696E-009  0.1416557E+03  0.7561462E-02  0.1105724E+00
         22   -1    0    0    0    0  0.00000000000E+00  0.00000000000E+00  0.26770529913E+03  0.26770529913E+03  0.00000000000E+00 0. -1.
         22   -1    0    0    0    0 -0.00000000000E+00 -0.00000000000E+00 -0.53586546204E+03  0.53586546204E+03  0.00000000000E+00 0.  1.
        -24    2    1    2    0    0  0.62745985774E+02  0.58311887948E+02 -0.26893538010E+03  0.29341254989E+03  0.80170759987E+02 0.  0.
         25    2    1    2    0    0 -0.11946660583E+02 -0.41419954459E+02 -0.22688318442E+03  0.26264244027E+03  0.12508691671E+03 0.  0.
         24    2    1    2    0    0 -0.50799325191E+02 -0.16891933489E+02  0.22765840161E+03  0.24751577101E+03  0.81054304107E+02 0.  0.
        -13    1    5    5    0    0 -0.18677403533E+02  0.25399293966E+01  0.22278138244E+01  0.18980511019E+02  0.00000000000E+00 0.  1.
         14    1    5    5    0    0 -0.32121921658E+02 -0.19431862886E+02  0.22543058779E+03  0.22853525999E+03  0.00000000000E+00 0. -1.
         13    1    3    3    0    0 -0.97499466001E+01  0.30800913252E+02 -0.38381828759E+02  0.50168939542E+02  0.00000000000E+00 0. -1.
        -14    1    3    3    0    0  0.72495932374E+02  0.27510974696E+02 -0.23055355134E+03  0.24324361035E+03  0.00000000000E+00 0.  1.
          5    1    4    4  501    0  0.53657849610E+02 -0.78834237535E+00 -0.11087737824E+03  0.12325198462E+03  0.41800000000E+01 0. -1.
         -5    1    4    4    0  501 -0.65604510193E+02 -0.40631612083E+02 -0.11600580618E+03  0.13939045564E+03  0.41800000000E+01 0. -1.
</event>
<event>
11    1  0.8328696E-009  0.1479340E+03  0.7561462E-02  0.1099009E+00
         22   -1    0    0    0    0  0.00000000000E+00  0.00000000000E+00  0.21786287472E+03  0.21786287472E+03  0.00000000000E+00 0. -1.
         22   -1    0    0    0    0 -0.00000000000E+00 -0.00000000000E+00 -0.29720605191E+03  0.29720605191E+03  0.00000000000E+00 0. -1.
        -24    2    1    2    0    0 -0.34705416372E+02  0.73031995469E+02 -0.20415256796E+03  0.23382854737E+03  0.80370269845E+02 0.  0.
         25    2    1    2    0    0  0.77540382349E+02 -0.32537602659E+02  0.58942410139E+02  0.16183784973E+03  0.12508427324E+03 0.  0.
         24    2    1    2    0    0 -0.42834965977E+02 -0.40494392810E+02  0.65866980626E+02  0.11940252953E+03  0.80273748895E+02 0.  0.
        -11    1    5    5    0    0  0.16766022334E+02 -0.33251922721E+02  0.13117677221E+02  0.39482443253E+02  0.00000000000E+00 0.  1.
         12    1    5    5    0    0 -0.59600988310E+02 -0.72424700888E+01  0.52749303405E+02  0.79920086275E+02  0.00000000000E+00 0. -1.
         13    1    3    3    0    0  0.12068142246E+02  0.65527155701E+02 -0.12046640996E+03  0.13766482528E+03  0.00000000000E+00 0. -1.
        -14    1    3    3    0    0 -0.46773558618E+02  0.75048397677E+01 -0.83686158004E+02  0.96163722096E+02  0.00000000000E+00 0.  1.
          5    1    4    4  501    0  0.94785827615E+02 -0.30925458065E+02 -0.48996131850E+00  0.99792031422E+02  0.41800000000E+01 0.  1.
         -5    1    4    4    0  501 -0.17245445266E+02 -0.16121445937E+01  0.59432371458E+02  0.62045818310E+02  0.41800000000E+01 0.  1.
</event>
<event>
11    1  0.8328696E-009  0.1865968E+03  0.7561462E-02  0.1064428E+00
         22   -1    0    0    0    0  0.00000000000E+00  0.00000000000E+00  0.67534782537E+03  0.67534782537E+03  0.00000000000E+00 0. -1.
         22   -1    0    0    0    0 -0.00000000000E+00 -0.00000000000E+00 -0.31125961794E+03  0.31125961794E+03  0.00000000000E+00 0. -1.
        -24    2    1    2    0    0 -0.12669422148E+03  0.60203352424E+02 -0.25859088547E+03  0.30616846602E+03  0.84817534385E+02 0.  0.
         25    2    1    2    0    0  0.84326239439E+02 -0.83591071858E+02  0.31954129539E+03  0.36311647073E+03  0.12509416415E+03 0.  0.
         24    2    1    2    0    0  0.42367982039E+02  0.23387719434E+02  0.30313779751E+03  0.31732250657E+03  0.80368013381E+02 0.  0.
        -13    1    5    5    0    0  0.43759654910E+01 -0.28872990216E+02  0.94031647368E+02  0.98461918247E+02  0.00000000000E+00 0.  1.
         14    1    5    5    0    0  0.37992016548E+02  0.52260709651E+02  0.20910615014E+03  0.21886058832E+03  0.00000000000E+00 0. -1.
         13    1    3    3    0    0 -0.17539391550E+02  0.51247161687E+02 -0.93377732856E+02  0.10795046471E+03  0.00000000000E+00 0. -1.
        -14    1    3    3    0    0 -0.10915482993E+03  0.89561907372E+01 -0.16521315261E+03  0.19821800131E+03  0.00000000000E+00 0.  1.
          5    1    4    4  501    0  0.66725418786E+02 -0.91499977568E+02  0.12962305654E+03  0.17217472693E+03  0.41800000000E+01 0. -1.
         -5    1    4    4    0  501  0.17600820654E+02  0.79089057097E+01  0.18991823885E+03  0.19094174380E+03  0.41800000000E+01 0. -1.
</event>
<event>
11    1  0.8328696E-009  0.1413726E+03  0.7561462E-02  0.1106035E+00
         22   -1    0    0    0    0  0.00000000000E+00  0.00000000000E+00  0.73701533238E+03  0.73701533238E+03  0.00000000000E+00 0. -1.
         22   -1    0    0    0    0 -0.00000000000E+00 -0.00000000000E+00 -0.14084278013E+03  0.14084278013E+03  0.00000000000E+00 0.  1.
        -24    2    1    2    0    0  0.15642280403E+02 -0.58161547260E+02 -0.79361114590E+02  0.12847271846E+03  0.81114772778E+02 0.  0.
         25    2    1    2    0    0 -0.11018674737E+02  0.11982036015E+03  0.19753298692E+03  0.26295165795E+03  0.12508382628E+03 0.  0.
         24    2    1    2    0    0 -0.46236056658E+01 -0.61658812891E+02  0.47800067992E+03  0.48643373610E+03  0.65650153689E+02 0.  0.
        -11    1    5    5    0    0 -0.25803761877E+02 -0.14475943736E+01  0.16237575487E+03  0.16441963212E+03  0.00000000000E+00 0.  1.
         12    1    5    5    0    0  0.21180156211E+02 -0.60211218517E+02  0.31562492505E+03  0.32201410398E+03  0.00000000000E+00 0. -1.
         13    1    3    3    0    0  0.41732824286E+02 -0.55429387300E+01 -0.29188441995E+02  0.51228097161E+02  0.00000000000E+00 0. -1.
        -14    1    3    3    0    0 -0.26090543883E+02 -0.52618608530E+02 -0.50172672595E+02  0.77244621296E+02  0.00000000000E+00 0.  1.
          5    1    4    4  501    0 -0.20318560141E+02  0.13490743030E+03  0.20238160115E+03  0.24410785223E+03  0.41800000000E+01 0.  1.
         -5    1    4    4    0  501  0.92998854040E+01 -0.15087070147E+02 -0.48486142280E+01  0.18843805722E+02  0.41800000000E+01 0.  1.
</event>
<event>
11    1  0.8328696E-009  0.1654966E+03  0.7561462E-02  0.1082019E+00
         22   -1    0    0    0    0  0.00000000000E+00  0.00000000000E+00  0.11406448668E+03  0.11406448668E+03  0.00000000000E+00 0. -1.
         22   -1    0    0    0    0 -0.00000000000E+00 -0.00000000000E+00 -0.16726698716E+04  0.16726698716E+04  0.00000000000E+00 0. -1.
        -24    2    1    2    0    0  0.65090340762E+02 -0.70819847565E+02 -0.10052588196E+04  0.10130069271E+04  0.79909554143E+02 0.  0.
         25    2    1    2    0    0 -0.10625704255E+03  0.11762419810E+03 -0.62057309894E+03  0.65260352969E+03  0.12511748389E+03 0.  0.
         24    2    1    2    0    0  0.41166701787E+02 -0.46804350535E+02  0.67226533576E+02  0.12112390145E+03  0.79159636942E+02 0.  0.
        -13    1    5    5    0    0  0.21322511008E+02 -0.38060477369E+02 -0.66502645557E+01  0.44130209969E+02  0.00000000000E+00 0.  1.
         14    1    5    5    0    0  0.19844190779E+02 -0.87438731661E+01  0.73876798132E+02  0.76993691481E+02  0.00000000000E+00 0. -1.
         11    1    3    3    0    0  0.75059466374E+02 -0.35014237477E+02 -0.81148144155E+03  0.81569727859E+03  0.00000000000E+00 0. -1.
        -12    1    3    3    0    0 -0.99691256118E+01 -0.35805610089E+02 -0.19377737802E+03  0.19730964855E+03  0.00000000000E+00 0.  1.
          5    1    4    4  501    0 -0.39851839849E+02  0.12837928400E+03 -0.40623426873E+03  0.42791723872E+03  0.41800000000E+01 0. -1.
         -5    1    4    4    0  501 -0.66405202700E+02 -0.10755085902E+02 -0.21433883021E+03  0.22468629098E+03  0.41800000000E+01 0. -1.
</event>
<event>
11    1  0.8328696E-009  0.1602037E+03  0.7561462E-02  0.1086886E+00
         22   -1    0    0    0    0  0.00000000000E+00  0.00000000000E+00  0.80312307369E+03  0.80312307369E+03  0.00000000000E+00 0.  1.
         22   -1    0    0    0    0 -0.00000000000E+00 -0.00000000000E+00 -0.40201841032E+04  0.40201841032E+04  0.00000000000E+00 0. -1.
        -24    2    1    2    0    0  0.47169444037E+02 -0.85336325304E+02 -0.34967981665E+04  0.34992602947E+04  0.87851853968E+02 0.  0.
         25    2    1    2    0    0 -0.71558958948E+02  0.11369355411E+03 -0.50322065059E+03  0.53565390811E+03  0.12508867749E+03 0.  0.
         24    2    1    2    0    0  0.24389514911E+02 -0.28357228810E+02  0.78295778754E+03  0.78839297409E+03  0.84508009433E+02 0.  0.
        -13    1    5    5    0    0  0.20318804960E+02 -0.18831771501E+02  0.77456672229E+03  0.77506199541E+03  0.00000000000E+00 0.  1.
         14    1    5    5    0    0  0.40707099510E+01 -0.95254573084E+01  0.83910652509E+01  0.13330978677E+02  0.00000000000E+00 0. -1.
         13    1    3    3    0    0  0.24620686077E+02 -0.10070326647E+03 -0.28579569089E+04  0.28598365372E+04  0.00000000000E+00 0. -1.
        -14    1    3    3    0    0  0.22548757960E+02  0.15366941163E+02 -0.63884125758E+03  0.63942375757E+03  0.00000000000E+00 0.  1.
          5    1    4    4  501    0 -0.26591803385E+02 -0.14318359144E+02 -0.21400952959E+03  0.21617051273E+03  0.41800000000E+01 0.  1.
         -5    1    4    4    0  501 -0.44967155563E+02  0.12801191326E+03 -0.28921112100E+03  0.31948339538E+03  0.41800000000E+01 0.  1.
</event>
<event>
11    1  0.8328696E-009  0.1414996E+03  0.7561462E-02  0.1105895E+00
         22   -1    0    0    0    0  0.00000000000E+00  0.00000000000E+00  0.78377325334E+03  0.78377325334E+03  0.00000000000E+00 0.  1.
         22   -1    0    0    0    0 -0.00000000000E+00 -0.00000000000E+00 -0.43136416818E+03  0.43136416818E+03  0.00000000000E+00 0.  1.
         24    2    1    2    0    0  0.24448895593E+02  0.43052980151E+02 -0.25535524078E+03  0.27262010288E+03  0.81634024183E+02 0.  0.
         25    2    1    2    0    0 -0.26285663956E+02  0.24007120328E+02 -0.13779424790E+03  0.18947835806E+03  0.12509002943E+03 0.  0.
        -24    2    1    2    0    0  0.18367683632E+01 -0.67060100479E+02  0.74555857383E+03  0.75303896059E+03  0.81912504322E+02 0.  0.
        -13    1    3    3    0    0  0.40022218109E+02  0.26829766227E+02 -0.24138241098E+03  0.24614443448E+03  0.00000000000E+00 0.  1.
         14    1    3    3    0    0 -0.15573322516E+02  0.16223213924E+02 -0.13972829800E+02  0.26475668392E+02  0.00000000000E+00 0. -1.
         11    1    5    5    0    0 -0.25877966981E+02 -0.27183351579E+01  0.88208703195E+02  0.91966482157E+02  0.00000000000E+00 0. -1.
        -12    1    5    5    0    0  0.27714735345E+02 -0.64341765321E+02  0.65734987063E+03  0.66107247843E+03  0.00000000000E+00 0.  1.
          5    1    4    4  501    0 -0.30218147892E+02  0.72105451106E+02 -0.10502252481E+03  0.13099441079E+03  0.41800000000E+01 0.  1.
         -5    1    4    4    0  501  0.39324839356E+01 -0.48098330778E+02 -0.32771723086E+02  0.58483947264E+02  0.41800000000E+01 0.  1.
</event>
<event>
11    1  0.8328696E-009  0.2111364E+03  0.7561462E-02  0.1046916E+00
         22   -1    0    0    0    0  0.00000000000E+00  0.00000000000E+00  0.14678762848E+03  0.14678762848E+03  0.00000000000E+00 0. -1.
         22   -1    0    0    0    0 -0.00000000000E+00 -0.00000000000E+00 -0.17241402237E+04  0.17241402237E+04  0.00000000000E+00 0.  1.
         24    2    1    2    0    0 -0.16495189314E+03 -0.19295333653E+02 -0.14137719240E+04  0.14259334933E+04  0.83389670406E+02 0.  0.
         25    2    1    2    0    0  0.20268700255E+03  0.18660812658E+02 -0.23128936450E+03  0.33252563962E+03  0.12509310108E+03 0.  0.
        -24    2    1    2    0    0 -0.37735109411E+02  0.63452099467E+00  0.67708693354E+02  0.11246871925E+03  0.81488677462E+02 0.  0.
        -11    1    3    3    0    0 -0.96351665000E+02 -0.31907188347E+02 -0.10910078628E+04  0.10957188821E+04  0.00000000000E+00 0.  1.
         12    1    3    3    0    0 -0.68600228142E+02  0.12611854694E+02 -0.32276406126E+03  0.33021461115E+03  0.00000000000E+00 0. -1.
         13    1    5    5    0    0 -0.44392317097E+02  0.98242052036E+01  0.17067788530E+01  0.45498416667E+02  0.00000000000E+00 0. -1.
        -14    1    5    5    0    0  0.66572076862E+01 -0.91896842090E+01  0.66001914501E+02  0.66970302581E+02  0.00000000000E+00 0.  1.
          5    1    4    4  501    0  0.56205261418E+02  0.57252203294E+02 -0.12042509654E+03  0.14476367801E+03  0.41800000000E+01 0.  1.
         -5    1    4    4    0  501  0.14648174113E+03 -0.38591390636E+02 -0.11086426796E+03  0.18776196161E+03  0.41800000000E+01 0.  1.
</event>
<event>
11    1  0.8328696E-009  0.1363828E+03  0.7561462E-02  0.1111666E+00
         22   -1    0    0    0    0  0.00000000000E+00  0.00000000000E+00  0.84159257823E+03  0.84159257823E+03  0.00000000000E+00 0.  1.
         22   -1    0    0    0    0 -0.00000000000E+00 -0.00000000000E+00 -0.17702380176E+03  0.17702380176E+03  0.00000000000E+00 0. -1.
         24    2    1    2    0    0 -0.22418228181E+02  0.27353562831E+02 -0.10093541633E+03  0.13367120927E+03  0.80182539027E+02 0.  0.
         25    2    1    2    0    0 -0.25877938459E+02  0.13363183921E+01  0.15928751455E+02  0.12873751417E+03  0.12509264162E+03 0.  0.
        -24    2    1    2    0    0  0.48296166640E+02 -0.28689881223E+02  0.74957544135E+03  0.75620765654E+03  0.82650157515E+02 0.  0.
        -11    1    3    3    0    0  0.12246305602E+02 -0.30633938126E+01  0.82944902900E+01  0.15104798963E+02  0.00000000000E+00 0.  1.
         12    1    3    3    0    0 -0.34664533783E+02  0.30416956644E+02 -0.10922990662E+03  0.11856641031E+03  0.00000000000E+00 0. -1.
         13    1    5    5    0    0  0.82262137080E+01 -0.37459601092E+02  0.13718803217E+03  0.14244805536E+03  0.00000000000E+00 0. -1.
        -14    1    5    5    0    0  0.40069952932E+02  0.87697198690E+01  0.61238740918E+03  0.61375960118E+03  0.00000000000E+00 0.  1.
          5    1    4    4  501    0 -0.45848650723E+01 -0.14717914447E+02  0.68126341458E+02  0.69973629275E+02  0.41800000000E+01 0.  1.
         -5    1    4    4    0  501 -0.21293073386E+02  0.16054232839E+02 -0.52197590004E+02  0.58763884899E+02  0.41800000000E+01 0.  1.
</event>
<event>
11    1  0.8328696E-009  0.1528978E+03  0.7561462E-02  0.1093954E+00
         22   -1    0    0    0    0  0.00000000000E+00  0.00000000000E+00  0.27127553129E+03  0.27127553129E+03  0.00000000000E+00 0. -1.
         22   -1    0    0    0    0 -0.00000000000E+00 -0.00000000000E+00 -0.21813586112E+03  0.21813586112E+03  0.00000000000E+00 0.  1.
         24    2    1    2    0    0  0.52966481693E+02  0.44246241940E+02 -0.88453627270E+02  0.13766957884E+03  0.79785278419E+02 0.  0.
         25    2    1    2    0    0 -0.12960737654E+03 -0.25971033785E+02  0.15311161996E+02  0.18263087158E+03  0.12508811664E+03 0.  0.
        -24    2    1    2    0    0  0.76640894845E+02 -0.18275208155E+02  0.12628213545E+03  0.16911094198E+03  0.80271557665E+02 0.  0.
        -11    1    3    3    0    0  0.44571242713E+02  0.38776956246E+02 -0.10374549459E+03  0.11938750211E+03  0.00000000000E+00 0.  1.
         12    1    3    3    0    0  0.83952389805E+01  0.54692856945E+01  0.15291867318E+02  0.18282076732E+02  0.00000000000E+00 0. -1.
         13    1    5    5    0    0  0.91525485453E+02 -0.20051201986E+02  0.12138647211E+03  0.15334158210E+03  0.00000000000E+00 0. -1.
        -14    1    5    5    0    0 -0.14884590609E+02  0.17759938305E+01  0.48956633325E+01  0.15769359884E+02  0.00000000000E+00 0.  1.
          5    1    4    4  501    0 -0.13189164095E+02 -0.12281832263E+02 -0.46500755484E+02  0.50045880089E+02  0.41800000000E+01 0.  1.
         -5    1    4    4    0  501 -0.11641821244E+03 -0.13689201522E+02  0.61811917481E+02  0.13258499149E+03  0.41800000000E+01 0.  1.
</event>
<event>
11    1  0.8328696E-009  0.3187020E+03  0.7561462E-02  0.9925727E-01
         22   -1    0    0    0    0  0.00000000000E+00  0.00000000000E+00  0.58009942982E+03  0.58009942982E+03  0.00000000000E+00 0. -1.
         22   -1    0    0    0    0 -0.00000000000E+00 -0.00000000000E+00 -0.25128018174E+04  0.25128018174E+04  0.00000000000E+00 0. -1.
         24    2    1    2    0    0  0.20406808162E+03  0.21031867877E+03 -0.23244019782E+04  0.23441904046E+04  0.80662063554E+02 0.  0.
         25    2    1    2    0    0 -0.21981766413E+03 -0.19637975594E+03 -0.27769768360E+02  0.32142154430E+03  0.12512327961E+03 0.  0.
        -24    2    1    2    0    0  0.15749582514E+02 -0.13938922833E+02  0.41946935895E+03  0.42728929828E+03  0.78608259198E+02 0.  0.
        -13    1    3    3    0    0  0.10150014069E+03  0.10595637219E+03 -0.14746453552E+04  0.14819271085E+04  0.00000000000E+00 0.  1.
         14    1    3    3    0    0  0.10256794093E+03  0.10436230658E+03 -0.84975662295E+03  0.86226329609E+03  0.00000000000E+00 0. -1.
         13    1    5    5    0    0  0.16848662126E+02  0.15663508105E+02  0.36111130808E+03  0.36184333588E+03  0.00000000000E+00 0. -1.
        -14    1    5    5    0    0 -0.10990796113E+01 -0.29602430938E+02  0.58358050871E+02  0.65445962403E+02  0.00000000000E+00 0.  1.
          5    1    4    4  501    0 -0.97012659983E+02 -0.14262462448E+03  0.30453849939E+02  0.17520887272E+03  0.41800000000E+01 0.  1.
         -5    1    4    4    0  501 -0.12280500415E+03 -0.53755131461E+02 -0.58223618300E+02  0.14621267158E+03  0.41800000000E+01 0.  1.
</event>
<event>
11    1  0.8328696E-009  0.1389437E+03  0.7561462E-02  0.1108744E+00
         22   -1    0    0    0    0  0.00000000000E+00  0.00000000000E+00  0.72174410025E+03  0.72174410025E+03  0.00000000000E+00 0. -1.
         22   -1    0    0    0    0 -0.00000000000E+00 -0.00000000000E+00 -0.10398534032E+04  0.10398534032E+04  0.00000000000E+00 0. -1.
        -24    2    1    2    0    0  0.19157562008E+02 -0.16471988004E+02 -0.97466377906E+03  0.97827528832E+03  0.80091940530E+02 0.  0.
         25    2    1    2    0    0  0.34577433409E+02 -0.14546270420E+02  0.12367554776E+02  0.13117494405E+03  0.12508683644E+03 0.  0.
         24    2    1    2    0    0 -0.53734995417E+02  0.31018258424E+02  0.64418692134E+03  0.65214727109E+03  0.80434392374E+02 0.  0.
        -11    1    5    5    0    0 -0.25173331150E+02 -0.32602355186E+01  0.48047770166E+02  0.54340720963E+02  0.00000000000E+00 0.  1.
         12    1    5    5    0    0 -0.28561664267E+02  0.34278493942E+02  0.59613915117E+03  0.59780655012E+03  0.00000000000E+00 0. -1.
         11    1    3    3    0    0 -0.21011851566E+02 -0.34139966444E+02 -0.47335978124E+03  0.47505422608E+03  0.00000000000E+00 0. -1.
        -12    1    3    3    0    0  0.40169413573E+02  0.17667978440E+02 -0.50130399782E+03  0.50322106224E+03  0.00000000000E+00 0.  1.
          5    1    4    4  501    0  0.44891886968E+01  0.59441652279E+01 -0.54371672492E+02  0.55038505475E+02  0.41800000000E+01 0. -1.
         -5    1    4    4    0  501  0.30088244712E+02 -0.20490435648E+02  0.66739227268E+02  0.76136438577E+02  0.41800000000E+01 0. -1.
</event>
<event>
11    1  0.8328696E-009  0.1352279E+03  0.7561462E-02  0.1113007E+00
         22   -1    0    0    0    0  0.00000000000E+00  0.00000000000E+00  0.48037745733E+03  0.48037745733E+03  0.00000000000E+00 0. -1.
         22   -1    0    0    0    0 -0.00000000000E+00 -0.00000000000E+00 -0.16729992815E+03  0.16729992815E+03  0.00000000000E+00 0.  1.
         24    2    1    2    0    0  0.20339413968E+02 -0.13355732274E+02 -0.12201168383E+03  0.14819500429E+03  0.80516091301E+02 0.  0.
         25    2    1    2    0    0  0.35251414435E+02 -0.53354019438E+00  0.15295221982E+03  0.20070243269E+03  0.12507652879E+03 0.  0.
        -24    2    1    2    0    0 -0.55590828403E+02  0.13889272469E+02  0.28213699320E+03  0.29877994851E+03  0.79905710717E+02 0.  0.
        -13    1    3    3    0    0  0.61915087686E+01 -0.46995084449E+02 -0.63611892622E+02  0.79330609642E+02  0.00000000000E+00 0.  1.
         14    1    3    3    0    0  0.14147905200E+02  0.33639352174E+02 -0.58399791212E+02  0.68864394645E+02  0.00000000000E+00 0. -1.
         11    1    5    5    0    0 -0.51315371601E+02  0.37068857455E+02  0.12742944246E+03  0.14228714053E+03  0.00000000000E+00 0. -1.
        -12    1    5    5    0    0 -0.42754568017E+01 -0.23179584986E+02  0.15470755074E+03  0.15649280798E+03  0.00000000000E+00 0.  1.
          5    1    4    4  501    0 -0.65437165778E+01 -0.53038005984E+02  0.10571866155E+03  0.11853167553E+03  0.41800000000E+01 0. -1.
         -5    1    4    4    0  501  0.41795131012E+02  0.52504465790E+02  0.47233558272E+02  0.82170757154E+02  0.41800000000E+01 0. -1.
</event>
<event>
11    1  0.8328696E-009  0.1459007E+03  0.7561462E-02  0.1101143E+00
         22   -1    0    0    0    0  0.00000000000E+00  0.00000000000E+00  0.32057573653E+03  0.32057573653E+03  0.00000000000E+00 0.  1.
         22   -1    0    0    0    0 -0.00000000000E+00 -0.00000000000E+00 -0.10718479936E+04  0.10718479936E+04  0.00000000000E+00 0.  1.
         24    2    1    2    0    0  0.31578614158E+02  0.73051557917E+02 -0.97756151388E+03  0.98472666769E+03  0.87899702311E+02 0.  0.
         25    2    1    2    0    0  0.27112622122E+02 -0.21269418683E+02 -0.27263626423E+02  0.13257931868E+03  0.12508592234E+03 0.  0.
        -24    2    1    2    0    0 -0.58691236280E+02 -0.51782139234E+02  0.25355288321E+03  0.27511774377E+03  0.72626835215E+02 0.  0.
        -13    1    3    3    0    0 -0.12508922640E+02  0.39058413571E+02 -0.72237151673E+03  0.72353482362E+03  0.00000000000E+00 0.  1.
         14    1    3    3    0    0  0.44087536798E+02  0.33993144346E+02 -0.25518999715E+03  0.26119184407E+03  0.00000000000E+00 0. -1.
         11    1    5    5    0    0 -0.46292573976E+02 -0.85107270301E+00  0.67730913290E+02  0.82043911079E+02  0.00000000000E+00 0. -1.
        -12    1    5    5    0    0 -0.12398662304E+02 -0.50931066531E+02  0.18582196993E+03  0.19307383270E+03  0.00000000000E+00 0.  1.
          5    1    4    4  501    0  0.32916389076E+02  0.30960240563E+02 -0.56364556730E+02  0.72363394205E+02  0.41800000000E+01 0.  1.
         -5    1    4    4    0  501 -0.58037669543E+01 -0.52229659246E+02  0.29100930307E+02  0.60215924476E+02  0.41800000000E+01 0.  1.
</event>
<event>
11    1  0.8328696E-009  0.1588680E+03  0.7561462E-02  0.1088147E+00
         22   -1    0    0    0    0  0.00000000000E+00  0.00000000000E+00  0.43526278367E+03  0.43526278367E+03  0.00000000000E+00 0. -1.
         22   -1    0    0    0    0 -0.00000000000E+00 -0.00000000000E+00 -0.20811803133E+04  0.20811803133E+04  0.00000000000E+00 0. -1.
         24    2    1    2    0    0 -0.60331952965E+02 -0.76575240196E+02 -0.20048105282E+04  0.20086775317E+04  0.77565846944E+02 0.  0.
         25    2    1    2    0    0  0.48300284333E+02  0.12323117573E+03  0.55845926928E+02  0.19048457707E+03  0.12508703533E+03 0.  0.
        -24    2    1    2    0    0  0.12031668633E+02 -0.46655935538E+02  0.30304707169E+03  0.31728098810E+03  0.80673170133E+02 0.  0.
        -11    1    3    3    0    0  0.87894167162E+01 -0.12236733674E+02 -0.71893283285E+02  0.73454990836E+02  0.00000000000E+00 0.  1.
         12    1    3    3    0    0 -0.69121369682E+02 -0.64338506522E+02 -0.19329172449E+04  0.19352225409E+04  0.00000000000E+00 0. -1.
         11    1    5    5    0    0  0.16382136695E+02  0.87368936252E+01  0.19407348723E+03  0.19495955005E+03  0.00000000000E+00 0. -1.
        -12    1    5    5    0    0 -0.43504680623E+01 -0.55392829163E+02  0.10897358446E+03  0.12232143805E+03  0.00000000000E+00 0.  1.
          5    1    4    4  501    0 -0.33258064079E+02  0.85777497106E+02  0.24086071109E+02  0.95191853945E+02  0.41800000000E+01 0. -1.
         -5    1    4    4    0  501  0.81558348412E+02  0.37453678628E+02  0.31759855819E+02  0.95292723122E+02  0.41800000000E+01 0. -1.
</event>
<event>
11    1  0.8328696E-009  0.1346945E+03  0.7561462E-02  0.1113632E+00
         22   -1    0    0    0    0  0.00000000000E+00  0.00000000000E+00  0.13676392157E+04  0.13676392157E+04  0.00000000000E+00 0. -1.
         22   -1    0    0    0    0 -0.00000000000E+00 -0.00000000000E+00 -0.64079027950E+03  0.64079027950E+03  0.00000000000E+00 0. -1.
        -24    2    1    2    0    0  0.13191818623E+02 -0.48366732944E+02 -0.60534705871E+03  0.61251013056E+03  0.78805035484E+02 0.  0.
         25    2    1    2    0    0  0.64884793373E+01 -0.69180419082E+00  0.10078698357E+03  0.16077634084E+03  0.12509371191E+03 0.  0.
         24    2    1    2    0    0 -0.19680297960E+02  0.49058537135E+02  0.12314090114E+04  0.12351430238E+04  0.80100448243E+02 0.  0.
        -11    1    5    5    0    0  0.10408010372E+02 -0.16256713595E+02  0.45545301444E+03  0.45586188235E+03  0.00000000000E+00 0.  1.
         12    1    5    5    0    0 -0.30088308333E+02  0.65315250730E+02  0.77595599691E+03  0.77928114145E+03  0.00000000000E+00 0. -1.
         11    1    3    3    0    0 -0.33224970105E+02 -0.16502824178E+02 -0.23888883602E+03  0.24175218266E+03  0.00000000000E+00 0. -1.
        -12    1    3    3    0    0  0.46416788728E+02 -0.31863908767E+02 -0.36645822269E+03  0.37075794790E+03  0.00000000000E+00 0.  1.
          5    1    4    4  501    0  0.39904092833E+02  0.55926112498E+01 -0.12522366838E+02  0.42401603703E+02  0.41800000000E+01 0.  1.
         -5    1    4    4    0  501 -0.33415613495E+02 -0.62844154406E+01  0.11330935041E+03  0.11837473714E+03  0.41800000000E+01 0.  1.
</event>
<event>
11    1  0.8328696E-009  0.1634716E+03  0.7561462E-02  0.1083857E+00
         22   -1    0    0    0    0  0.00000000000E+00  0.00000000000E+00  0.15154922715E+04  0.15154922715E+04  0.00000000000E+00 0.  1.
         22   -1    0    0    0    0 -0.00000000000E+00 -0.00000000000E+00 -0.80196603616E+03  0.80196603616E+03  0.00000000000E+00 0. -1.
        -24    2    1    2    0    0  0.10458710590E+03 -0.17232795591E+02 -0.75787420733E+03  0.76979328128E+03  0.83504190266E+02 0.  0.
         25    2    1    2    0    0 -0.42463689947E+02  0.10691493153E+03  0.17427915874E+03  0.24342292967E+03  0.12509008742E+03 0.  0.
         24    2    1    2    0    0 -0.62123415954E+02 -0.89682135940E+02  0.12971212839E+04  0.13042420967E+04  0.81373320397E+02 0.  0.
        -11    1    5    5    0    0 -0.24477790460E+02 -0.90070492834E+02  0.10655877277E+04  0.10696677341E+04  0.00000000000E+00 0.  1.
         12    1    5    5    0    0 -0.37645625494E+02  0.38835689401E+00  0.23153355619E+03  0.23457436259E+03  0.00000000000E+00 0. -1.
         11    1    3    3    0    0  0.97216941595E+02 -0.35081326708E+02 -0.46798920674E+03  0.47926582482E+03  0.00000000000E+00 0. -1.
        -12    1    3    3    0    0  0.73701643058E+01  0.17848531117E+02 -0.28988500060E+03  0.29052745646E+03  0.00000000000E+00 0.  1.
          5    1    4    4  501    0  0.17969413409E+02 -0.10017698514E+02 -0.44067624319E+01  0.21451015289E+02  0.41800000000E+01 0.  1.
         -5    1    4    4    0  501 -0.60433103356E+02  0.11693263004E+03  0.17868592117E+03  0.22197191438E+03  0.41800000000E+01 0.  1.
</event>
<event>
11    1  0.1099962E-008  0.1683745E+03  0.7561462E-02  0.1079455E+00
         22   -1    0    0    0    0  0.00000000000E+00  0.00000000000E+00  0.10528435944E+04  0.10528435944E+04  0.00000000000E+00 0.  1.
         22   -1    0    0    0    0 -0.00000000000E+00 -0.00000000000E+00 -0.29827171091E+04  0.29827171091E+04  0.00000000000E+00 0. -1.
        -24    2    1    2    0    0 -0.51657931911E+02  0.66552612534E+02 -0.24376174549E+04  0.24404129722E+04  0.80863009767E+02 0.  0.
         25    2    1    2    0    0  0.98944743089E+02 -0.16811116773E+03 -0.51432442519E+03  0.56411761390E+03  0.12509053146E+03 0.  0.
         24    2    1    2    0    0 -0.47286811178E+02  0.10155855520E+03  0.10220683654E+04  0.10310301173E+04  0.76479909791E+02 0.  0.
        -11    1    5    5    0    0  0.57513946542E+01  0.76878077429E+02  0.56692682031E+03  0.57214450702E+03  0.00000000000E+00 0.  1.
         12    1    5    5    0    0 -0.53038205832E+02  0.24680477768E+02  0.45514154511E+03  0.45888561031E+03  0.00000000000E+00 0. -1.
         11    1    3    3    0    0 -0.49821850274E+02  0.84774602265E+02 -0.20950792234E+04  0.20973854920E+04  0.00000000000E+00 0. -1.
        -12    1    3    3    0    0 -0.18360816365E+01 -0.18221989732E+02 -0.34253823154E+03  0.34302748020E+03  0.00000000000E+00 0.  1.
          5    1    4    4  501    0 -0.23893164985E+02 -0.56045597505E+02 -0.94172606335E+02  0.11224056538E+03  0.41800000000E+01 0.  1.
         -5    1    4    4    0  501  0.12283790807E+03 -0.11206557023E+03 -0.42015181885E+03  0.45187704852E+03  0.41800000000E+01 0.  1.
</event>
<event>
11    1  0.8328696E-009  0.1705472E+03  0.7561462E-02  0.1077556E+00
         22   -1    0    0    0    0  0.00000000000E+00  0.00000000000E+00  0.25013836087E+03  0.25013836087E+03  0.00000000000E+00 0.  1.
         22   -1    0    0    0    0 -0.00000000000E+00 -0.00000000000E+00 -0.41047483293E+03  0.41047483293E+03  0.00000000000E+00 0. -1.
        -24    2    1    2    0    0  0.28017925863E+02  0.10889940789E+03 -0.30328207651E+03  0.33333769686E+03  0.80560021143E+02 0.  0.
         25    2    1    2    0    0 -0.46679529882E+02 -0.13649205127E+03  0.45175429192E+02  0.19620734222E+03  0.12508974045E+03 0.  0.
         24    2    1    2    0    0  0.18661604019E+02  0.27592643377E+02  0.97770175259E+02  0.13106815471E+03  0.80686086639E+02 0.  0.
        -13    1    5    5    0    0  0.18065012262E+01  0.54518623720E+02  0.70938596963E+02  0.89486470028E+02  0.00000000000E+00 0.  1.
         14    1    5    5    0    0  0.16855102792E+02 -0.26925980343E+02  0.26831578296E+02  0.41581684687E+02  0.00000000000E+00 0. -1.
         13    1    3    3    0    0  0.31866614379E+02  0.11628701592E+03 -0.23097606782E+03  0.26055343999E+03  0.00000000000E+00 0. -1.
        -14    1    3    3    0    0 -0.38486885157E+01 -0.73876080295E+01 -0.72306008691E+02  0.72784256872E+02  0.00000000000E+00 0.  1.
          5    1    4    4  501    0  0.18288546832E+02 -0.44501125105E+01 -0.26255332871E+02  0.32574366468E+02  0.41800000000E+01 0.  1.
         -5    1    4    4    0  501 -0.64968076714E+02 -0.13204193876E+03  0.71430762064E+02  0.16363297575E+03  0.41800000000E+01 0.  1.
</event>
<event>
11    1  0.8328696E-009  0.1398138E+03  0.7561462E-02  0.1107767E+00
         22   -1    0    0    0    0  0.00000000000E+00  0.00000000000E+00  0.57028373888E+03  0.57028373888E+03  0.00000000000E+00 0. -1.
         22   -1    0    0    0    0 -0.00000000000E+00 -0.00000000000E+00 -0.12662056312E+04  0.12662056312E+04  0.00000000000E+00 0.  1.
        -24    2    1    2    0    0  0.48725066042E+02 -0.37945519259E+02 -0.12134965110E+04  0.12189275573E+04  0.96936129630E+02 0.  0.
         25    2    1    2    0    0 -0.61037606150E+02  0.85048803042E+02  0.10407924007E+03  0.19349143599E+03  0.12509020475E+03 0.  0.
         24    2    1    2    0    0  0.12312540109E+02 -0.47103283782E+02  0.41349537862E+03  0.42407037680E+03  0.80541531835E+02 0.  0.
        -11    1    5    5    0    0 -0.20190365892E+02 -0.55951519917E+02  0.23403710331E+03  0.24147792691E+03  0.00000000000E+00 0.  1.
         12    1    5    5    0    0  0.32502906000E+02  0.88482361351E+01  0.17945827531E+03  0.18259244989E+03  0.00000000000E+00 0. -1.
         13    1    3    3    0    0 -0.27164187652E+02 -0.40325149904E+01 -0.46941891946E+03  0.47022151824E+03  0.00000000000E+00 0. -1.
        -14    1    3    3    0    0  0.75889253693E+02 -0.33913004269E+02 -0.74407759151E+03  0.74870603903E+03  0.00000000000E+00 0.  1.
          5    1    4    4  501    0  0.11808558451E+02  0.66063949463E+02  0.96638185157E+02  0.11772976982E+03  0.41800000000E+01 0.  1.
         -5    1    4    4    0  501 -0.72846164602E+02  0.18984853579E+02  0.74410549151E+01  0.75761666170E+02  0.41800000000E+01 0.  1.
</event>
<event>
11    1  0.8328696E-009  0.1425472E+03  0.7561462E-02  0.1104747E+00
         22   -1    0    0    0    0  0.00000000000E+00  0.00000000000E+00  0.15379012674E+03  0.15379012674E+03  0.00000000000E+00 0. -1.
         22   -1    0    0    0    0 -0.00000000000E+00 -0.00000000000E+00 -0.19548696580E+04  0.19548696580E+04  0.00000000000E+00 0.  1.
         24    2    1    2    0    0  0.50357790777E+02  0.47662612082E+02 -0.18556064735E+04  0.18586013592E+04  0.79473243133E+02 0.  0.
         25    2    1    2    0    0  0.57329638252E+01 -0.45155009967E+02 -0.95778823841E+01  0.13346484386E+03  0.12509710994E+03 0.  0.
        -24    2    1    2    0    0 -0.56090754602E+02 -0.25076021151E+01  0.64104824673E+02  0.11659358160E+03  0.79574957760E+02 0.  0.
        -13    1    3    3    0    0  0.24024735325E+02  0.51518533057E+02 -0.16825888739E+04  0.16835488309E+04  0.00000000000E+00 0.  1.
         14    1    3    3    0    0  0.26333055452E+02 -0.38559209753E+01 -0.17301759957E+03  0.17505252839E+03  0.00000000000E+00 0. -1.
         13    1    5    5    0    0 -0.67891351146E+01  0.26490489868E+02  0.51068325683E+02  0.57929373353E+02  0.00000000000E+00 0. -1.
        -14    1    5    5    0    0 -0.49301619488E+02 -0.28998091983E+02  0.13036498991E+02  0.58664208242E+02  0.00000000000E+00 0.  1.
          5    1    4    4  501    0  0.57294515267E+02  0.64667712361E+01  0.78338499704E+01  0.58337999754E+02  0.41800000000E+01 0.  1.
         -5    1    4    4    0  501 -0.51561551442E+02 -0.51621781203E+02 -0.17411732354E+02  0.75126844106E+02  0.41800000000E+01 0.  1.
</event>
<event>
11    1  0.8328696E-009  0.1686856E+03  0.7561462E-02  0.1079181E+00
         22   -1    0    0    0    0  0.00000000000E+00  0.00000000000E+00  0.23381499872E+04  0.23381499872E+04  0.00000000000E+00 0.  1.
         22   -1    0    0    0    0 -0.00000000000E+00 -0.00000000000E+00 -0.17713419285E+04  0.17713419285E+04  0.00000000000E+00 0. -1.
        -24    2    1    2    0    0  0.81943896310E+02  0.77500737082E+02 -0.17342546275E+04  0.17397729424E+04  0.80309475438E+02 0.  0.
         25    2    1    2    0    0 -0.12520030908E+03 -0.92191385317E+02  0.26584351452E+03  0.33240792855E+03  0.12509151781E+03 0.  0.
         24    2    1    2    0    0  0.43256412767E+02  0.14690648235E+02  0.20352191717E+04  0.20373110448E+04  0.80201522524E+02 0.  0.
        -13    1    5    5    0    0  0.64451286292E+02  0.94211224766E+01  0.17685246850E+04  0.17697237884E+04  0.00000000000E+00 0.  1.
         14    1    5    5    0    0 -0.21194873525E+02  0.52695257582E+01  0.26669448668E+03  0.26758725640E+03  0.00000000000E+00 0. -1.
         13    1    3    3    0    0  0.52224262914E+02  0.51185822019E+02 -0.15270705893E+04  0.15288204430E+04  0.00000000000E+00 0. -1.
        -14    1    3    3    0    0  0.29719633396E+02  0.26314915063E+02 -0.20718403813E+03  0.21095249944E+03  0.00000000000E+00 0.  1.
          5    1    4    4  501    0 -0.96187713352E+02 -0.79782583145E+02  0.27256323388E+03  0.29987585038E+03  0.41800000000E+01 0.  1.
         -5    1    4    4    0  501 -0.29012595725E+02 -0.12408802172E+02 -0.67197193598E+01  0.32532078175E+02  0.41800000000E+01 0.  1.
</event>
<event>
11    1  0.8328696E-009  0.1562167E+03  0.7561462E-02  0.1090691E+00
         22   -1    0    0    0    0  0.00000000000E+00  0.00000000000E+00  0.63727555468E+03  0.63727555468E+03  0.00000000000E+00 0.  1.
         22   -1    0    0    0    0 -0.00000000000E+00 -0.00000000000E+00 -0.45359952254E+03  0.45359952254E+03  0.00000000000E+00 0. -1.
        -24    2    1    2    0    0 -0.20012860075E+02 -0.94879580258E+02 -0.41831782331E+03  0.43693017863E+03  0.80718835359E+02 0.  0.
         25    2    1    2    0    0 -0.17157340901E+01  0.89561527726E+01  0.21604681987E+03  0.24981712664E+03  0.12509681040E+03 0.  0.
         24    2    1    2    0    0  0.21728594165E+02  0.85923427485E+02  0.38594703559E+03  0.40412777195E+03  0.80679455765E+02 0.  0.
        -11    1    5    5    0    0  0.20493948813E+02  0.46361515282E+02  0.33879032864E+03  0.34256135045E+03  0.00000000000E+00 0.  1.
         12    1    5    5    0    0  0.12346453515E+01  0.39561912203E+02  0.47156706946E+02  0.61566421500E+02  0.00000000000E+00 0. -1.
         13    1    3    3    0    0 -0.18002230597E+02 -0.93074142183E+02 -0.42191336684E+03  0.43243238242E+03  0.00000000000E+00 0. -1.
        -14    1    3    3    0    0 -0.20106294774E+01 -0.18054380751E+01  0.35955435249E+01  0.44977962135E+01  0.00000000000E+00 0.  1.
          5    1    4    4  501    0 -0.26091432619E+02 -0.35577998890E+02  0.18483803400E+03  0.19007663737E+03  0.41800000000E+01 0. -1.
         -5    1    4    4    0  501  0.24375698529E+02  0.44534151663E+02  0.31208785872E+02  0.59740489274E+02  0.41800000000E+01 0. -1.
</event>
<event>
11    1  0.8328696E-009  0.1723596E+03  0.7561462E-02  0.1075996E+00
         22   -1    0    0    0    0  0.00000000000E+00  0.00000000000E+00  0.87479003712E+03  0.87479003712E+03  0.00000000000E+00 0.  1.
         22   -1    0    0    0    0 -0.00000000000E+00 -0.00000000000E+00 -0.15474840661E+04  0.15474840661E+04  0.00000000000E+00 0. -1.
        -24    2    1    2    0    0 -0.37638306051E+02 -0.36997536116E+02 -0.13895682499E+04  0.13930977939E+04  0.83881359338E+02 0.  0.
         25    2    1    2    0    0  0.13599141978E+03  0.99517813858E+02 -0.76573169904E+02  0.22339951187E+03  0.12508569073E+03 0.  0.
         24    2    1    2    0    0 -0.98353113731E+02 -0.62520277742E+02  0.79344739084E+03  0.80577679745E+03  0.78328571840E+02 0.  0.
        -13    1    5    5    0    0 -0.10270457713E+03 -0.68560472581E+02  0.78439928878E+03  0.79405982948E+03  0.00000000000E+00 0.  1.
         14    1    5    5    0    0  0.43514633953E+01  0.60401948393E+01  0.90481020606E+01  0.11716967964E+02  0.00000000000E+00 0. -1.
         11    1    3    3    0    0  0.16915088501E+02 -0.38484489668E+02 -0.76309021285E+03  0.76424724345E+03  0.00000000000E+00 0. -1.
        -12    1    3    3    0    0 -0.54553394551E+02  0.14869535520E+01 -0.62647803708E+03  0.62885055047E+03  0.00000000000E+00 0.  1.
          5    1    4    4  501    0  0.60306980712E+02  0.11502527146E+03 -0.30943613597E+02  0.13357666195E+03  0.41800000000E+01 0. -1.
         -5    1    4    4    0  501  0.75684439070E+02 -0.15507457600E+02 -0.45629556308E+02  0.89822849918E+02  0.41800000000E+01 0. -1.
</event>
<event>
11    1  0.8328696E-009  0.1312890E+03  0.7561462E-02  0.1117695E+00
         22   -1    0    0    0    0  0.00000000000E+00  0.00000000000E+00  0.15222096669E+04  0.15222096669E+04  0.00000000000E+00 0. -1.
         22   -1    0    0    0    0 -0.00000000000E+00 -0.00000000000E+00 -0.30227696418E+03  0.30227696418E+03  0.00000000000E+00 0. -1.
        -24    2    1    2    0    0  0.18936300417E+02  0.20443907122E+02 -0.23609016008E+03  0.25179984302E+03  0.82994339848E+02 0.  0.
         25    2    1    2    0    0 -0.37614186224E+02 -0.54897717841E+02  0.31427309916E+02  0.14513074729E+03  0.12508665625E+03 0.  0.
         24    2    1    2    0    0  0.18677885808E+02  0.34453810719E+02  0.14245955529E+04  0.14275560408E+04  0.83113366864E+02 0.  0.
        -13    1    5    5    0    0  0.15351076624E+01  0.95859534124E+01  0.16554760795E+02  0.19191330422E+02  0.00000000000E+00 0.  1.
         14    1    5    5    0    0  0.17142778145E+02  0.24867857307E+02  0.14080407921E+04  0.14083647104E+04  0.00000000000E+00 0. -1.
         13    1    3    3    0    0  0.16394123143E+02  0.28681174284E+02 -0.24005048140E+03  0.24231304268E+03  0.00000000000E+00 0. -1.
        -14    1    3    3    0    0  0.25421772741E+01 -0.82372671626E+01  0.39603213265E+01  0.94868003357E+01  0.00000000000E+00 0.  1.
          5    1    4    4  501    0 -0.45770682365E+02 -0.54149905742E+01 -0.37654449201E+02  0.59662445740E+02  0.41800000000E+01 0. -1.
         -5    1    4    4    0  501  0.81564961403E+01 -0.49482727267E+02  0.69081759117E+02  0.85468301550E+02  0.41800000000E+01 0. -1.
</event>
<event>
11    1  0.8328696E-009  0.1353715E+03  0.7561462E-02  0.1112840E+00
         22   -1    0    0    0    0  0.00000000000E+00  0.00000000000E+00  0.56828380503E+03  0.56828380503E+03  0.00000000000E+00 0.  1.
         22   -1    0    0    0    0 -0.00000000000E+00 -0.00000000000E+00 -0.29950672219E+03  0.29950672219E+03  0.00000000000E+00 0.  1.
         24    2    1    2    0    0  0.25973254440E+02  0.46946582358E+02 -0.23788223463E+03  0.25578145912E+03  0.77185528011E+02 0.  0.
         25    2    1    2    0    0 -0.46318172737E+02  0.41036483408E+01  0.46368932979E+02  0.14127874823E+03  0.12508954273E+03 0.  0.
        -24    2    1    2    0    0  0.20344918297E+02 -0.51050230698E+02  0.46029038449E+03  0.47073031987E+03  0.81852026488E+02 0.  0.
        -11    1    3    3    0    0  0.24758571027E+02 -0.10941948987E+02 -0.13534778916E+03  0.13802803018E+03  0.00000000000E+00 0.  1.
         12    1    3    3    0    0  0.12146834127E+01  0.57888531344E+02 -0.10253444548E+03  0.11775342894E+03  0.00000000000E+00 0. -1.
         13    1    5    5    0    0  0.20539996095E+02  0.19262566114E+02  0.14221204690E+03  0.14497311535E+03  0.00000000000E+00 0. -1.
        -14    1    5    5    0    0 -0.19507779801E+00 -0.70312796812E+02  0.31807833759E+03  0.32575720452E+03  0.00000000000E+00 0.  1.
          5    1    4    4  501    0 -0.77711249641E+02  0.38374759398E+02  0.31266904871E+02  0.92232056357E+02  0.41800000000E+01 0. -1.
         -5    1    4    4    0  501  0.31393076904E+02 -0.34271111057E+02  0.15102028108E+02  0.49046691871E+02  0.41800000000E+01 0. -1.
</event>
<event>
11    1  0.8328696E-009  0.1535560E+03  0.7561462E-02  0.1093300E+00
         22   -1    0    0    0    0  0.00000000000E+00  0.00000000000E+00  0.22510063845E+04  0.22510063845E+04  0.00000000000E+00 0.  1.
         22   -1    0    0    0    0 -0.00000000000E+00 -0.00000000000E+00 -0.12504141131E+03  0.12504141131E+03  0.00000000000E+00 0.  1.
        -24    2    1    2    0    0  0.73710871931E+02 -0.48854877500E+02 -0.85183477201E+02  0.14943362202E+03  0.85170951066E+02 0.  0.
         25    2    1    2    0    0 -0.11031370110E+03  0.45716912969E+02  0.14324097063E+04  0.14428112094E+04  0.12508984939E+03 0.  0.
         24    2    1    2    0    0  0.36602829169E+02  0.31379645314E+01  0.77873874406E+03  0.78380296439E+03  0.81015069948E+02 0.  0.
        -13    1    5    5    0    0  0.22342275298E+02  0.29127725289E+02  0.67262564413E+03  0.67362664643E+03  0.00000000000E+00 0.  1.
         14    1    5    5    0    0  0.14260553871E+02 -0.25989760757E+02  0.10611309993E+03  0.11017631795E+03  0.00000000000E+00 0. -1.
         11    1    3    3    0    0 -0.31275107529E+01 -0.43803304758E+02 -0.18816744600E+02  0.47776361400E+02  0.00000000000E+00 0. -1.
        -12    1    3    3    0    0  0.76838382684E+02 -0.50515727418E+01 -0.66366732602E+02  0.10165726062E+03  0.00000000000E+00 0.  1.
          5    1    4    4  501    0 -0.68319769759E+02 -0.21863818830E+02  0.10351209645E+04  0.10376119222E+04  0.41800000000E+01 0. -1.
         -5    1    4    4    0  501 -0.41993931341E+02  0.67580731798E+02  0.39728874182E+03  0.40519928721E+03  0.41800000000E+01 0. -1.
</event>
<event>
11    1  0.8328696E-009  0.1364755E+03  0.7561462E-02  0.1111559E+00
         22   -1    0    0    0    0  0.00000000000E+00  0.00000000000E+00  0.26650492196E+04  0.26650492196E+04  0.00000000000E+00 0.  1.
         22   -1    0    0    0    0 -0.00000000000E+00 -0.00000000000E+00 -0.24760070580E+03  0.24760070580E+03  0.00000000000E+00 0.  1.
        -24    2    1    2    0    0  0.14099133981E+02 -0.53959472055E+02 -0.18295678389E+03  0.20616223113E+03  0.76936795923E+02 0.  0.
         25    2    1    2    0    0 -0.37814268293E+02  0.36364922418E+02  0.35546314035E+02  0.14022345310E+03  0.12508696930E+03 0.  0.
         24    2    1    2    0    0  0.23715134312E+02  0.17594549637E+02  0.25648589837E+04  0.25662642412E+04  0.79615160106E+02 0.  0.
        -11    1    5    5    0    0  0.36021057741E+02  0.23594165681E+02  0.24744426278E+04  0.24748172700E+04  0.00000000000E+00 0.  1.
         12    1    5    5    0    0 -0.12305923429E+02 -0.59996160440E+01  0.90416355863E+02  0.91446971254E+02  0.00000000000E+00 0. -1.
         11    1    3    3    0    0 -0.40575659096E+01  0.35950215629E+01  0.58316585030E+01  0.79621769664E+01  0.00000000000E+00 0. -1.
        -12    1    3    3    0    0  0.18156699891E+02 -0.57554493617E+02 -0.18878844240E+03  0.19820005416E+03  0.00000000000E+00 0.  1.
          5    1    4    4  501    0 -0.24119409372E+02  0.67275025771E+02  0.63855451090E+02  0.95930527127E+02  0.41800000000E+01 0.  1.
         -5    1    4    4    0  501 -0.13694858921E+02 -0.30910103354E+02 -0.28309137055E+02  0.44292925970E+02  0.41800000000E+01 0.  1.
</event>
<event>
11    1  0.8328696E-009  0.1368149E+03  0.7561462E-02  0.1111168E+00
         22   -1    0    0    0    0  0.00000000000E+00  0.00000000000E+00  0.11123146122E+04  0.11123146122E+04  0.00000000000E+00 0.  1.
         22   -1    0    0    0    0 -0.00000000000E+00 -0.00000000000E+00 -0.31835925673E+03  0.31835925673E+03  0.00000000000E+00 0. -1.
         24    2    1    2    0    0 -0.21884637096E+02 -0.43455223262E+02 -0.28031688562E+03  0.29598181618E+03  0.81611184127E+02 0.  0.
         25    2    1    2    0    0 -0.24482928045E+02  0.72827284171E+02  0.16775495833E+03  0.22290575984E+03  0.12506808003E+03 0.  0.
        -24    2    1    2    0    0  0.46367565141E+02 -0.29372060910E+02  0.90651728280E+03  0.91178629295E+03  0.81043142432E+02 0.  0.
        -11    1    3    3    0    0 -0.24328026416E+02  0.10753654804E+02 -0.31088303012E+02  0.40914258458E+02  0.00000000000E+00 0.  1.
         12    1    3    3    0    0  0.24433893205E+01 -0.54208878066E+02 -0.24922858261E+03  0.25506755772E+03  0.00000000000E+00 0. -1.
         13    1    5    5    0    0 -0.25626521223E+01  0.92648802438E+01  0.13377258669E+02  0.16472894140E+02  0.00000000000E+00 0. -1.
        -14    1    5    5    0    0  0.48930217263E+02 -0.38636941153E+02  0.89314002413E+03  0.89531339881E+03  0.00000000000E+00 0.  1.
          5    1    4    4  501    0 -0.58292605091E+02 -0.75467559044E+01  0.58188198436E+02  0.82814975518E+02  0.41800000000E+01 0.  1.
         -5    1    4    4    0  501  0.33809677046E+02  0.80374040076E+02  0.10956675989E+03  0.14009078433E+03  0.41800000000E+01 0.  1.
</event>
<event>
11    1  0.8328696E-009  0.1623347E+03  0.7561462E-02  0.1084902E+00
         22   -1    0    0    0    0  0.00000000000E+00  0.00000000000E+00  0.57638304303E+03  0.57638304303E+03  0.00000000000E+00 0. -1.
         22   -1    0    0    0    0 -0.00000000000E+00 -0.00000000000E+00 -0.48580955539E+03  0.48580955539E+03  0.00000000000E+00 0. -1.
         24    2    1    2    0    0  0.76358041997E+02 -0.51416909842E+02 -0.32625646356E+03  0.34908733167E+03  0.83333282185E+02 0.  0.
         25    2    1    2    0    0 -0.87540241493E+02  0.15072374066E+03 -0.57138504887E+02  0.22202399418E+03  0.12509558494E+03 0.  0.
        -24    2    1    2    0    0  0.11182199496E+02 -0.99306830817E+02  0.47396845609E+03  0.49108127258E+03  0.80794991674E+02 0.  0.
        -13    1    3    3    0    0  0.71037012820E+02 -0.29139596665E+02 -0.12618602665E+03  0.14771014388E+03  0.00000000000E+00 0.  1.
         14    1    3    3    0    0  0.53210291761E+01 -0.22277313177E+02 -0.20007043691E+03  0.20137718778E+03  0.00000000000E+00 0. -1.
         11    1    5    5    0    0 -0.33353180030E+02 -0.36416301525E+02  0.14394555381E+03  0.15218049841E+03  0.00000000000E+00 0. -1.
        -12    1    5    5    0    0  0.44535379527E+02 -0.62890529292E+02  0.33002290228E+03  0.33890077417E+03  0.00000000000E+00 0.  1.
          5    1    4    4  501    0  0.20577290391E+02  0.64414251376E+02  0.94967945714E+01  0.68412587784E+02  0.41800000000E+01 0. -1.
         -5    1    4    4    0  501 -0.10811753188E+03  0.86309489283E+02 -0.66635299458E+02  0.15361140640E+03  0.41800000000E+01 0. -1.
</event>
<event>
11    1  0.8328696E-009  0.2372238E+03  0.7561462E-02  0.1030934E+00
         22   -1    0    0    0    0  0.00000000000E+00  0.00000000000E+00  0.24550062994E+03  0.24550062994E+03  0.00000000000E+00 0.  1.
         22   -1    0    0    0    0 -0.00000000000E+00 -0.00000000000E+00 -0.11271986299E+04  0.11271986299E+04  0.00000000000E+00 0.  1.
         24    2    1    2    0    0 -0.95630228602E+02 -0.18657626550E+03 -0.78733208999E+03  0.81882725449E+03  0.81427325268E+02 0.  0.
         25    2    1    2    0    0  0.82386267234E+02  0.16192821183E+03 -0.27576016039E+03  0.35312804057E+03  0.12508998425E+03 0.  0.
        -24    2    1    2    0    0  0.13243961368E+02  0.24648053668E+02  0.18139425038E+03  0.20074396483E+03  0.81310124102E+02 0.  0.
        -11    1    3    3    0    0  0.12743844782E+02 -0.34961284877E+02 -0.16751785754E+03  0.17160107696E+03  0.00000000000E+00 0.  1.
         12    1    3    3    0    0 -0.10837407338E+03 -0.15161498062E+03 -0.61981423245E+03  0.64722617753E+03  0.00000000000E+00 0. -1.
         13    1    5    5    0    0  0.18624383687E+02  0.40823992588E+02  0.45928369185E+02  0.64209665429E+02  0.00000000000E+00 0. -1.
        -14    1    5    5    0    0 -0.53804223189E+01 -0.16175938920E+02  0.13546588120E+03  0.13653429940E+03  0.00000000000E+00 0.  1.
          5    1    4    4  501    0 -0.25444049711E+02  0.62543039321E+02 -0.50973079418E+02  0.84703947125E+02  0.41800000000E+01 0. -1.
         -5    1    4    4    0  501  0.10783031695E+03  0.99385172508E+02 -0.22478708097E+03  0.26842409344E+03  0.41800000000E+01 0. -1.
</event>
<event>
11    1  0.8328696E-009  0.1947628E+03  0.7561462E-02  0.1058290E+00
         22   -1    0    0    0    0  0.00000000000E+00  0.00000000000E+00  0.19751020706E+03  0.19751020706E+03  0.00000000000E+00 0. -1.
         22   -1    0    0    0    0 -0.00000000000E+00 -0.00000000000E+00 -0.56688172734E+03  0.56688172734E+03  0.00000000000E+00 0.  1.
         24    2    1    2    0    0 -0.50585553212E+01  0.97885980662E+01 -0.34982168646E+03  0.35935629512E+03  0.81488213192E+02 0.  0.
         25    2    1    2    0    0 -0.13919465772E+03  0.35755342108E+02 -0.10004297227E+03  0.21519510995E+03  0.12508693704E+03 0.  0.
        -24    2    1    2    0    0  0.14425321304E+03 -0.45543940174E+02  0.80493138451E+02  0.18984052934E+03  0.81713164692E+02 0.  0.
        -13    1    3    3    0    0 -0.11672378152E+02  0.39233275439E+02 -0.28414232529E+03  0.28707552201E+03  0.00000000000E+00 0.  1.
         14    1    3    3    0    0  0.66138228306E+01 -0.29444677373E+02 -0.65679361164E+02  0.72280773107E+02  0.00000000000E+00 0. -1.
         13    1    5    5    0    0  0.96618628525E+02  0.80291631436E+01  0.27763165826E+02  0.10084850131E+03  0.00000000000E+00 0. -1.
        -14    1    5    5    0    0  0.47634584516E+02 -0.53573103318E+02  0.52729972625E+02  0.88992028037E+02  0.00000000000E+00 0.  1.
          5    1    4    4  501    0 -0.10398091776E+03  0.26304151932E+02 -0.12945353271E+03  0.16816548159E+03  0.41800000000E+01 0. -1.
         -5    1    4    4    0  501 -0.35213739959E+02  0.94511901753E+01  0.29410560443E+02  0.47029628355E+02  0.41800000000E+01 0. -1.
</event>
<event>
11    1  0.8328696E-009  0.1385523E+03  0.7561462E-02  0.1109186E+00
         22   -1    0    0    0    0  0.00000000000E+00  0.00000000000E+00  0.32562463437E+03  0.32562463437E+03  0.00000000000E+00 0.  1.
         22   -1    0    0    0    0 -0.00000000000E+00 -0.00000000000E+00 -0.31364017352E+03  0.31364017352E+03  0.00000000000E+00 0.  1.
         24    2    1    2    0    0 -0.53964585974E+02 -0.25816948322E+02 -0.22072062075E+03  0.24228748948E+03  0.80043386813E+02 0.  0.
         25    2    1    2    0    0  0.51682256527E+02  0.26865723588E+02 -0.13024986374E+02  0.13859492122E+03  0.12508428828E+03 0.  0.
        -24    2    1    2    0    0  0.22823294468E+01 -0.10487752666E+01  0.24573006798E+03  0.25838239719E+03  0.79824106063E+02 0.  0.
        -11    1    3    3    0    0 -0.56080003806E+02 -0.25619314597E+02 -0.22722697903E+03  0.23544302093E+03  0.00000000000E+00 0.  1.
         12    1    3    3    0    0  0.21154178322E+01 -0.19763372449E+00  0.65063582749E+01  0.68444685473E+01  0.00000000000E+00 0. -1.
         11    1    5    5    0    0  0.35341916324E+02  0.19335343468E+02  0.14260778122E+03  0.14818868318E+03  0.00000000000E+00 0. -1.
        -12    1    5    5    0    0 -0.33059586877E+02 -0.20384118734E+02  0.10312228676E+03  0.11019371401E+03  0.00000000000E+00 0.  1.
          5    1    4    4  501    0  0.42145549794E+02 -0.46732574837E+02  0.35186767564E+00  0.63069621286E+02  0.41800000000E+01 0.  1.
         -5    1    4    4    0  501  0.95367067340E+01  0.73598298425E+02 -0.13376854050E+02  0.75525299937E+02  0.41800000000E+01 0.  1.
</event>
<event>
11    1  0.8328696E-009  0.3439534E+03  0.7561462E-02  0.9831337E-01
         22   -1    0    0    0    0  0.00000000000E+00  0.00000000000E+00  0.14671535215E+04  0.14671535215E+04  0.00000000000E+00 0. -1.
         22   -1    0    0    0    0 -0.00000000000E+00 -0.00000000000E+00 -0.29730537108E+03  0.29730537108E+03  0.00000000000E+00 0.  1.
        -24    2    1    2    0    0 -0.83453915605E+02 -0.14042313938E+02 -0.16648006996E+03  0.20325441217E+03  0.80218450265E+02 0.  0.
         25    2    1    2    0    0  0.28013990640E+03  0.24837219445E+03  0.35716171152E+03  0.53233366419E+03  0.12509007842E+03 0.  0.
         24    2    1    2    0    0 -0.19668599079E+03 -0.23432988051E+03  0.97916650889E+03  0.10288708162E+04  0.78817716972E+02 0.  0.
        -11    1    5    5    0    0 -0.12912360106E+03 -0.96216005779E+02  0.45713745156E+03  0.48467006689E+03  0.00000000000E+00 0.  1.
         12    1    5    5    0    0 -0.67562389729E+02 -0.13811387473E+03  0.52202905733E+03  0.54420074935E+03  0.00000000000E+00 0. -1.
         13    1    3    3    0    0 -0.42054905489E+02  0.29740742847E+02 -0.10614901459E+03  0.11798618631E+03  0.00000000000E+00 0. -1.
        -14    1    3    3    0    0 -0.41399010116E+02 -0.43783056784E+02 -0.60331055365E+02  0.85268225860E+02  0.00000000000E+00 0.  1.
          5    1    4    4  501    0  0.36290519010E+02  0.17239033485E+02  0.10417774526E+03  0.11173477996E+03  0.41800000000E+01 0.  1.
         -5    1    4    4    0  501  0.24384938739E+03  0.23113316096E+03  0.25298396626E+03  0.42059888422E+03  0.41800000000E+01 0.  1.
</event>
<event>
11    1  0.8328696E-009  0.1303149E+03  0.7561462E-02  0.1118883E+00
         22   -1    0    0    0    0  0.00000000000E+00  0.00000000000E+00  0.11883997664E+04  0.11883997664E+04  0.00000000000E+00 0.  1.
         22   -1    0    0    0    0 -0.00000000000E+00 -0.00000000000E+00 -0.16109996665E+03  0.16109996665E+03  0.00000000000E+00 0. -1.
         24    2    1    2    0    0  0.67870340697E+01 -0.38080253471E+02 -0.10761819189E+03  0.14009994138E+03  0.80932989646E+02 0.  0.
         25    2    1    2    0    0  0.22762740033E+02  0.24081322453E+02  0.82237876192E+02  0.15332650570E+03  0.12509155305E+03 0.  0.
        -24    2    1    2    0    0 -0.29549774103E+02  0.13998931018E+02  0.10526801154E+04  0.10560732859E+04  0.78014105598E+02 0.  0.
        -11    1    3    3    0    0 -0.10768400955E+02  0.10746907683E+02 -0.79777951639E+02  0.81215614579E+02  0.00000000000E+00 0.  1.
         12    1    3    3    0    0  0.17555435024E+02 -0.48827161155E+02 -0.27840240248E+02  0.58884326797E+02  0.00000000000E+00 0. -1.
         13    1    5    5    0    0 -0.52661768948E+01  0.24138165209E+02  0.99205140457E+02  0.10223523625E+03  0.00000000000E+00 0. -1.
        -14    1    5    5    0    0 -0.24283597208E+02 -0.10139234190E+02  0.95347497495E+03  0.95383804968E+03  0.00000000000E+00 0.  1.
          5    1    4    4  501    0  0.71105459517E+02  0.34892096065E+02  0.44797399417E+02  0.91091844505E+02  0.41800000000E+01 0. -1.
         -5    1    4    4    0  501 -0.48342719483E+02 -0.10810773612E+02  0.37440476775E+02  0.62234661197E+02  0.41800000000E+01 0. -1.
</event>
<event>
11    1  0.8328696E-009  0.1934845E+03  0.7561462E-02  0.1059229E+00
         22   -1    0    0    0    0  0.00000000000E+00  0.00000000000E+00  0.53509539665E+03  0.53509539665E+03  0.00000000000E+00 0. -1.
         22   -1    0    0    0    0 -0.00000000000E+00 -0.00000000000E+00 -0.31302541577E+03  0.31302541577E+03  0.00000000000E+00 0.  1.
        -24    2    1    2    0    0 -0.44822579782E+02 -0.67017444315E+01 -0.19086011230E+03  0.21183962986E+03  0.79965425495E+02 0.  0.
         25    2    1    2    0    0 -0.80671347285E+02 -0.82045302833E+02 -0.18547639701E+02  0.17097320384E+03  0.12509405863E+03 0.  0.
         24    2    1    2    0    0  0.12549392707E+03  0.88747047265E+02  0.43147773288E+03  0.46530797871E+03  0.81937274517E+02 0.  0.
        -11    1    5    5    0    0 -0.48941101023E+01  0.66413772024E+01  0.12807894254E+01  0.83486901003E+01  0.00000000000E+00 0.  1.
         12    1    5    5    0    0  0.13038803717E+03  0.82105670062E+02  0.43019694345E+03  0.45695928861E+03  0.00000000000E+00 0. -1.
         13    1    3    3    0    0 -0.54158909516E+02 -0.10705678859E+02 -0.63781692341E+02  0.84355813776E+02  0.00000000000E+00 0. -1.
        -14    1    3    3    0    0  0.93363297343E+01  0.40039344275E+01 -0.12707841996E+03  0.12748381608E+03  0.00000000000E+00 0.  1.
          5    1    4    4  501    0 -0.29380434447E+02 -0.10111433966E+03 -0.39058982759E+02  0.11238503525E+03  0.41800000000E+01 0. -1.
         -5    1    4    4    0  501 -0.51290912839E+02  0.19069036827E+02  0.20511343059E+02  0.58588168596E+02  0.41800000000E+01 0. -1.
</event>
<event>
11    1  0.8328696E-009  0.1506214E+03  0.7561462E-02  0.1096245E+00
         22   -1    0    0    0    0  0.00000000000E+00  0.00000000000E+00  0.77154350019E+03  0.77154350019E+03  0.00000000000E+00 0.  1.
         22   -1    0    0    0    0 -0.00000000000E+00 -0.00000000000E+00 -0.32216999101E+03  0.32216999101E+03  0.00000000000E+00 0. -1.
        -24    2    1    2    0    0 -0.77135849244E+02 -0.18179517254E+02 -0.20124198699E+03  0.23060670432E+03  0.80004254040E+02 0.  0.
         25    2    1    2    0    0  0.95024781930E+02  0.49905463017E+02 -0.37727010567E+02  0.16908796031E+03  0.12508855493E+03 0.  0.
         24    2    1    2    0    0 -0.17888932686E+02 -0.31725945763E+02  0.68834250674E+03  0.69401882658E+03  0.80747603756E+02 0.  0.
        -13    1    5    5    0    0  0.15758036277E+02  0.48552679585E+01  0.46153074072E+03  0.46182519850E+03  0.00000000000E+00 0.  1.
         14    1    5    5    0    0 -0.33646968963E+02 -0.36581213721E+02  0.22681176601E+03  0.23219362808E+03  0.00000000000E+00 0. -1.
         13    1    3    3    0    0 -0.87708597076E+02 -0.83645013932E+01 -0.19662001672E+03  0.21545810233E+03  0.00000000000E+00 0. -1.
        -14    1    3    3    0    0  0.10572747832E+02 -0.98150158608E+01 -0.46219702662E+01  0.15148601989E+02  0.00000000000E+00 0.  1.
          5    1    4    4  501    0  0.18142620463E+02  0.20401100946E+02  0.44670601867E+02  0.52519469421E+02  0.41800000000E+01 0. -1.
         -5    1    4    4    0  501  0.76882161468E+02  0.29504362071E+02 -0.82397612434E+02  0.11656849089E+03  0.41800000000E+01 0. -1.
</event>
<event>
11    1  0.8328696E-009  0.1937278E+03  0.7561462E-02  0.1059050E+00
         22   -1    0    0    0    0  0.00000000000E+00  0.00000000000E+00  0.57408895447E+03  0.57408895447E+03  0.00000000000E+00 0. -1.
         22   -1    0    0    0    0 -0.00000000000E+00 -0.00000000000E+00 -0.13379281559E+03  0.13379281559E+03  0.00000000000E+00 0. -1.
         24    2    1    2    0    0  0.60155839343E+01 -0.29953863014E+01  0.50650485884E+01  0.81991325915E+02  0.81558342424E+02 0.  0.
         25    2    1    2    0    0  0.13766502820E+03 -0.37032589106E+02  0.38352870759E+02  0.19350241785E+03  0.12509664414E+03 0.  0.
        -24    2    1    2    0    0 -0.14368061213E+03  0.40027975407E+02  0.39687821953E+03  0.43238802629E+03  0.84857097635E+02 0.  0.
        -13    1    3    3    0    0 -0.27662339977E+02 -0.18256455861E+02  0.23545453907E+02  0.40655769988E+02  0.00000000000E+00 0.  1.
         14    1    3    3    0    0  0.33677923911E+02  0.15261069560E+02 -0.18480405319E+02  0.41335555927E+02  0.00000000000E+00 0. -1.
         13    1    5    5    0    0 -0.50684670633E+02  0.57348437116E+02  0.19351830455E+03  0.20810361187E+03  0.00000000000E+00 0. -1.
        -14    1    5    5    0    0 -0.92995941500E+02 -0.17320461709E+02  0.20335991498E+03  0.22428441441E+03  0.00000000000E+00 0.  1.
          5    1    4    4  501    0  0.70633552135E+02  0.43709552902E+02  0.28929089661E+02  0.88056733591E+02  0.41800000000E+01 0. -1.
         -5    1    4    4    0  501  0.67031476063E+02 -0.80742142007E+02  0.94237810981E+01  0.10544568426E+03  0.41800000000E+01 0. -1.
</event>
<event>
11    1  0.8328696E-009  0.1968681E+03  0.7561462E-02  0.1056761E+00
         22   -1    0    0    0    0  0.00000000000E+00  0.00000000000E+00  0.25751625058E+03  0.25751625058E+03  0.00000000000E+00 0.  1.
         22   -1    0    0    0    0 -0.00000000000E+00 -0.00000000000E+00 -0.59717380727E+03  0.59717380727E+03  0.00000000000E+00 0.  1.
        -24    2    1    2    0    0 -0.94882204184E+02  0.12245283882E+03 -0.44617388001E+03  0.47932419042E+03  0.81750950510E+02 0.  0.
         25    2    1    2    0    0  0.77469488928E+02 -0.11662324143E+03 -0.53684224757E+02  0.19526865297E+03  0.12508136826E+03 0.  0.
         24    2    1    2    0    0  0.17412715256E+02 -0.58295973844E+01  0.16020054808E+03  0.18009721447E+03  0.80209751247E+02 0.  0.
        -11    1    5    5    0    0  0.18470486780E+02 -0.35997367422E+02  0.13449523700E+03  0.14044905880E+03  0.00000000000E+00 0.  1.
         12    1    5    5    0    0 -0.10577715239E+01  0.30167770038E+02  0.25705311078E+02  0.39648155661E+02  0.00000000000E+00 0. -1.
         11    1    3    3    0    0 -0.41647036583E+02  0.52019801104E+02 -0.87736617620E+02  0.11017372388E+03  0.00000000000E+00 0. -1.
        -12    1    3    3    0    0 -0.53235167601E+02  0.70433037715E+02 -0.35843726239E+03  0.36915046653E+03  0.00000000000E+00 0.  1.
          5    1    4    4  501    0  0.10086093564E+03 -0.42729243197E+02 -0.24351976716E+02  0.11229072861E+03  0.41800000000E+01 0.  1.
         -5    1    4    4    0  501 -0.23391446712E+02 -0.73893998237E+02 -0.29332248041E+02  0.82977924353E+02  0.41800000000E+01 0.  1.
</event>
<event>
11    1  0.8328696E-009  0.1591871E+03  0.7561462E-02  0.1087844E+00
         22   -1    0    0    0    0  0.00000000000E+00  0.00000000000E+00  0.49265018548E+03  0.49265018548E+03  0.00000000000E+00 0. -1.
         22   -1    0    0    0    0 -0.00000000000E+00 -0.00000000000E+00 -0.82641845701E+03  0.82641845701E+03  0.00000000000E+00 0. -1.
        -24    2    1    2    0    0 -0.34611880152E+02  0.43919346806E+02 -0.70854535725E+03  0.71524555188E+03  0.80079865989E+02 0.  0.
         25    2    1    2    0    0  0.59427721530E+01 -0.13528432350E+03 -0.24095756525E+02  0.18591737393E+03  0.12508996650E+03 0.  0.
         24    2    1    2    0    0  0.28669108000E+02  0.91364976697E+02  0.39887284225E+03  0.41790571668E+03  0.79850904994E+02 0.  0.
        -11    1    5    5    0    0 -0.17889037292E+02  0.68001948543E+02  0.26736595407E+03  0.27645765690E+03  0.00000000000E+00 0.  1.
         12    1    5    5    0    0  0.46558145292E+02  0.23363028153E+02  0.13150688818E+03  0.14144805978E+03  0.00000000000E+00 0. -1.
         11    1    3    3    0    0  0.18075339493E+02  0.39595006340E+02 -0.37831440992E+03  0.38081002505E+03  0.00000000000E+00 0. -1.
        -12    1    3    3    0    0 -0.52687219645E+02  0.43243404669E+01 -0.33023094733E+03  0.33443552683E+03  0.00000000000E+00 0.  1.
          5    1    4    4  501    0 -0.12512363192E-01 -0.13114971960E+03  0.27147581921E+02  0.13399519660E+03  0.41800000000E+01 0. -1.
         -5    1    4    4    0  501  0.59552845161E+01 -0.41346039000E+01 -0.51243338446E+02  0.51922177325E+02  0.41800000000E+01 0. -1.
</event>
<event>
11    1  0.8328696E-009  0.1483086E+03  0.7561462E-02  0.1098620E+00
         22   -1    0    0    0    0  0.00000000000E+00  0.00000000000E+00  0.99649603825E+02  0.99649603825E+02  0.00000000000E+00 0. -1.
         22   -1    0    0    0    0 -0.00000000000E+00 -0.00000000000E+00 -0.71878951649E+03  0.71878951649E+03  0.00000000000E+00 0. -1.
        -24    2    1    2    0    0 -0.12465661815E+02  0.71830420269E+02 -0.46548289684E+03  0.47723641864E+03  0.75929375274E+02 0.  0.
         25    2    1    2    0    0  0.20441806399E+02 -0.11953467282E+03 -0.17400106634E+03  0.24623255650E+03  0.12509074842E+03 0.  0.
         24    2    1    2    0    0 -0.79761445839E+01  0.47704252553E+02  0.20344050508E+02  0.94970145174E+02  0.79158912886E+02 0.  0.
        -13    1    5    5    0    0 -0.40975089292E+01 -0.38212154274E+00 -0.27038721604E+02  0.27350101687E+02  0.00000000000E+00 0.  1.
         14    1    5    5    0    0 -0.38786356548E+01  0.48086374095E+02  0.47382772112E+02  0.67620043487E+02  0.00000000000E+00 0. -1.
         11    1    3    3    0    0 -0.43408665631E+02  0.43333373118E+02 -0.23067952660E+03  0.23869465321E+03  0.00000000000E+00 0. -1.
        -12    1    3    3    0    0  0.30943003816E+02  0.28497047151E+02 -0.23480337024E+03  0.23854176544E+03  0.00000000000E+00 0.  1.
          5    1    4    4  501    0  0.26327424167E+01 -0.88120203047E+02 -0.23402427047E+02  0.91308529226E+02  0.41800000000E+01 0.  1.
         -5    1    4    4    0  501  0.17809063982E+02 -0.31414469775E+02 -0.15059863929E+03  0.15492402728E+03  0.41800000000E+01 0.  1.
</event>
<event>
11    1  0.8328696E-009  0.1413729E+03  0.7561462E-02  0.1106035E+00
         22   -1    0    0    0    0  0.00000000000E+00  0.00000000000E+00  0.82681988153E+03  0.82681988153E+03  0.00000000000E+00 0.  1.
         22   -1    0    0    0    0 -0.00000000000E+00 -0.00000000000E+00 -0.20497823366E+03  0.20497823366E+03  0.00000000000E+00 0. -1.
         24    2    1    2    0    0  0.19833721856E+02  0.47734068361E+02 -0.14261437587E+03  0.17047066133E+03  0.77778328374E+02 0.  0.
         25    2    1    2    0    0 -0.62322620615E+02 -0.92794371126E+02  0.11360883621E+03  0.20260280193E+03  0.12508406506E+03 0.  0.
        -24    2    1    2    0    0  0.42488898759E+02  0.45060302764E+02  0.65084718752E+03  0.65872465193E+03  0.80500733905E+02 0.  0.
        -13    1    3    3    0    0  0.17391811799E+01 -0.21558728236E+02 -0.37183366451E+02  0.43016348694E+02  0.00000000000E+00 0.  1.
         14    1    3    3    0    0  0.18094540676E+02  0.69292796597E+02 -0.10543100941E+03  0.12745431263E+03  0.00000000000E+00 0. -1.
         13    1    5    5    0    0  0.22842643277E+02 -0.12118822830E+02  0.68009986706E+02  0.72759951281E+02  0.00000000000E+00 0. -1.
        -14    1    5    5    0    0  0.19646255482E+02  0.57179125594E+02  0.58283720081E+03  0.58596470065E+03  0.00000000000E+00 0.  1.
          5    1    4    4  501    0 -0.18789483572E+02  0.29431046454E+02  0.10143149314E+02  0.36600369756E+02  0.41800000000E+01 0.  1.
         -5    1    4    4    0  501 -0.43533137042E+02 -0.12222541758E+03  0.10346568689E+03  0.16600243217E+03  0.41800000000E+01 0.  1.
</event>
<event>
11    1  0.8328696E-009  0.1411811E+03  0.7561462E-02  0.1106247E+00
         22   -1    0    0    0    0  0.00000000000E+00  0.00000000000E+00  0.68595653264E+03  0.68595653264E+03  0.00000000000E+00 0.  1.
         22   -1    0    0    0    0 -0.00000000000E+00 -0.00000000000E+00 -0.25674093201E+03  0.25674093201E+03  0.00000000000E+00 0. -1.
        -24    2    1    2    0    0  0.48460546648E+02  0.31005968059E+02 -0.17204868917E+03  0.19747684679E+03  0.78016401723E+02 0.  0.
         25    2    1    2    0    0 -0.73698434492E+02 -0.88036214286E+02  0.39590958494E+02  0.17434448593E+03  0.12508685585E+03 0.  0.
         24    2    1    2    0    0  0.25237887845E+02  0.57030246227E+02  0.56167333130E+03  0.57087613194E+03  0.80828379634E+02 0.  0.
        -11    1    5    5    0    0  0.25908453687E+02 -0.76221952806E+00  0.36413358481E+03  0.36505492263E+03  0.00000000000E+00 0.  1.
         12    1    5    5    0    0 -0.67056584241E+00  0.57792465755E+02  0.19753974649E+03  0.20582120930E+03  0.00000000000E+00 0. -1.
         11    1    3    3    0    0  0.29859623697E+02  0.39890775155E+02 -0.16954011158E+03  0.17671083867E+03  0.00000000000E+00 0. -1.
        -12    1    3    3    0    0  0.18600922950E+02 -0.88848070960E+01 -0.25085775886E+01  0.20766008120E+02  0.00000000000E+00 0.  1.
          5    1    4    4  501    0 -0.60119900203E+02  0.11215948501E+02  0.41561974229E+02  0.74061258448E+02  0.41800000000E+01 0. -1.
         -5    1    4    4    0  501 -0.13578534290E+02 -0.99252162786E+02 -0.19710157351E+01  0.10028322748E+03  0.41800000000E+01 0. -1.
</event>
<event>
11    1  0.8328696E-009  0.4435282E+03  0.7561462E-02  0.9529394E-01
         22   -1    0    0    0    0  0.00000000000E+00  0.00000000000E+00  0.71853917560E+03  0.71853917560E+03  0.00000000000E+00 0.  1.
         22   -1    0    0    0    0 -0.00000000000E+00 -0.00000000000E+00 -0.12919230936E+04  0.12919230936E+04  0.00000000000E+00 0.  1.
        -24    2    1    2    0    0  0.32050788188E+03 -0.64149268539E+02 -0.89133439951E+03  0.95238220906E+03  0.75593844899E+02 0.  0.
         25    2    1    2    0    0  0.11356840604E+03  0.18050257311E+03 -0.23520167941E+03  0.34124204859E+03  0.12508934399E+03 0.  0.
         24    2    1    2    0    0 -0.43407628792E+03 -0.11635330457E+03  0.55315216093E+03  0.71683801153E+03  0.76935729107E+02 0.  0.
        -11    1    5    5    0    0 -0.27781361989E+03 -0.49520938338E+02  0.38879663822E+03  0.48041186145E+03  0.00000000000E+00 0.  1.
         12    1    5    5    0    0 -0.15626266803E+03 -0.66832366237E+02  0.16435552271E+03  0.23642615008E+03  0.00000000000E+00 0. -1.
         11    1    3    3    0    0  0.15327693255E+03 -0.11365935853E+02 -0.51003486219E+03  0.53268993157E+03  0.00000000000E+00 0. -1.
        -12    1    3    3    0    0  0.16723094934E+03 -0.52783332686E+02 -0.38129953732E+03  0.41969227749E+03  0.00000000000E+00 0.  1.
          5    1    4    4  501    0 -0.22552464516E+02  0.44105058084E+02 -0.78114339025E+02  0.92591533985E+02  0.41800000000E+01 0. -1.
         -5    1    4    4    0  501  0.13612087055E+03  0.13639751503E+03 -0.15708734039E+03  0.24865051461E+03  0.41800000000E+01 0. -1.
</event>
<event>
11    1  0.8328696E-009  0.3035948E+03  0.7561462E-02  0.9986812E-01
         22   -1    0    0    0    0  0.00000000000E+00  0.00000000000E+00  0.10465925631E+04  0.10465925631E+04  0.00000000000E+00 0.  1.
         22   -1    0    0    0    0 -0.00000000000E+00 -0.00000000000E+00 -0.34888589399E+03  0.34888589399E+03  0.00000000000E+00 0.  1.
         24    2    1    2    0    0  0.22803259573E+02 -0.84767983718E+02 -0.23733777537E+03  0.26569435103E+03  0.80985608853E+02 0.  0.
         25    2    1    2    0    0  0.47884854273E+02 -0.21171229727E+03  0.17122621453E+03  0.30345087240E+03  0.12509580061E+03 0.  0.
        -24    2    1    2    0    0 -0.70688113846E+02  0.29648028099E+03  0.76381822994E+03  0.82633323364E+03  0.80690508639E+02 0.  0.
        -13    1    3    3    0    0 -0.87285023522E+01 -0.73953011839E+02 -0.10186913154E+03  0.12618460553E+03  0.00000000000E+00 0.  1.
         14    1    3    3    0    0  0.31531761926E+02 -0.10814971879E+02 -0.13546864384E+03  0.13950974550E+03  0.00000000000E+00 0. -1.
         13    1    5    5    0    0 -0.39976447440E+02  0.64286294870E+02  0.12752417841E+03  0.14830124793E+03  0.00000000000E+00 0. -1.
        -14    1    5    5    0    0 -0.30711666406E+02  0.23219398612E+03  0.63629405153E+03  0.67803198571E+03  0.00000000000E+00 0.  1.
          5    1    4    4  501    0  0.13908377196E+02  0.14353849140E+02  0.57623518853E+01  0.21216810331E+02  0.41800000000E+01 0. -1.
         -5    1    4    4    0  501  0.33976477076E+02 -0.22606614641E+03  0.16546386265E+03  0.28223406207E+03  0.41800000000E+01 0. -1.
</event>
<event>
11    1  0.8328696E-009  0.1743526E+03  0.7561462E-02  0.1074305E+00
         22   -1    0    0    0    0  0.00000000000E+00  0.00000000000E+00  0.18705213028E+03  0.18705213028E+03  0.00000000000E+00 0. -1.
         22   -1    0    0    0    0 -0.00000000000E+00 -0.00000000000E+00 -0.72147412449E+03  0.72147412449E+03  0.00000000000E+00 0. -1.
         24    2    1    2    0    0  0.47349551574E+02  0.11770175874E+03 -0.22765916820E+03  0.27402256198E+03  0.84640318773E+02 0.  0.
         25    2    1    2    0    0 -0.27045370207E+02 -0.11512844365E+03 -0.44305816670E+03  0.47532617512E+03  0.12509365727E+03 0.  0.
        -24    2    1    2    0    0 -0.20304181368E+02 -0.25733150924E+01  0.13629534069E+03  0.15917751769E+03  0.79637808310E+02 0.  0.
        -13    1    3    3    0    0 -0.23310748321E+02  0.15771155443E+02 -0.49530064848E+02  0.56967952878E+02  0.00000000000E+00 0.  1.
         14    1    3    3    0    0  0.70660299896E+02  0.10193060330E+03 -0.17812910335E+03  0.21705460910E+03  0.00000000000E+00 0. -1.
         13    1    5    5    0    0  0.18164497244E+02  0.20858762623E+02  0.91747220820E+02  0.95825828807E+02  0.00000000000E+00 0. -1.
        -14    1    5    5    0    0 -0.38468678612E+02 -0.23432077716E+02  0.44548119865E+02  0.63351688879E+02  0.00000000000E+00 0.  1.
          5    1    4    4  501    0  0.63560012746E+01 -0.91014187420E+02 -0.41589178800E+03  0.42580210519E+03  0.41800000000E+01 0.  1.
         -5    1    4    4    0  501 -0.33401371481E+02 -0.24114256225E+02 -0.27166378701E+02  0.49524069924E+02  0.41800000000E+01 0.  1.
</event>
<event>
11    1  0.8328696E-009  0.1386319E+03  0.7561462E-02  0.1109096E+00
         22   -1    0    0    0    0  0.00000000000E+00  0.00000000000E+00  0.47467662508E+03  0.47467662508E+03  0.00000000000E+00 0.  1.
         22   -1    0    0    0    0 -0.00000000000E+00 -0.00000000000E+00 -0.42461502948E+03  0.42461502948E+03  0.00000000000E+00 0.  1.
         24    2    1    2    0    0 -0.25225273434E+01 -0.61933349868E+02 -0.38228189105E+03  0.39610676564E+03  0.83180662339E+02 0.  0.
         25    2    1    2    0    0 -0.21145895444E+02  0.14796413321E+02  0.11531904858E+03  0.17207230120E+03  0.12507722068E+03 0.  0.
        -24    2    1    2    0    0  0.23668422787E+02  0.47136936548E+02  0.31702443808E+03  0.33111258773E+03  0.79680401537E+02 0.  0.
        -13    1    3    3    0    0  0.12783351352E+02 -0.78453255720E+02 -0.32443882351E+03  0.33403424615E+03  0.00000000000E+00 0.  1.
         14    1    3    3    0    0 -0.15305878695E+02  0.16519905852E+02 -0.57843067544E+02  0.62072519483E+02  0.00000000000E+00 0. -1.
         11    1    5    5    0    0 -0.22994368872E+02  0.41986638079E+02  0.13947801216E+03  0.14746435045E+03  0.00000000000E+00 0. -1.
        -12    1    5    5    0    0  0.46662791659E+02  0.51502984683E+01  0.17754642592E+03  0.18364823728E+03  0.00000000000E+00 0.  1.
          5    1    4    4  501    0 -0.68070615857E+02  0.20123337013E+02  0.99086519417E+02  0.12195969894E+03  0.41800000000E+01 0. -1.
         -5    1    4    4    0  501  0.46924720413E+02 -0.53269236927E+01  0.16232529161E+02  0.50112602256E+02  0.41800000000E+01 0. -1.
</event>
<event>
11    1  0.8328696E-009  0.2622280E+03  0.7561462E-02  0.1017580E+00
         22   -1    0    0    0    0  0.00000000000E+00  0.00000000000E+00  0.43610697956E+03  0.43610697956E+03  0.00000000000E+00 0.  1.
         22   -1    0    0    0    0 -0.00000000000E+00 -0.00000000000E+00 -0.55254202915E+03  0.55254202915E+03  0.00000000000E+00 0. -1.
         24    2    1    2    0    0 -0.15629777283E+03 -0.16541528539E+03 -0.41985624316E+03  0.48466022950E+03  0.82613937708E+02 0.  0.
         25    2    1    2    0    0  0.12800625127E+03  0.22859222187E+03  0.19808805658E+03  0.35146274791E+03  0.12508869150E+03 0.  0.
        -24    2    1    2    0    0  0.28291521562E+02 -0.63176936489E+02  0.10533313699E+03  0.15252603131E+03  0.85891704977E+02 0.  0.
        -13    1    3    3    0    0 -0.14114680734E+03 -0.95140297037E+02 -0.29563985960E+03  0.34114076849E+03  0.00000000000E+00 0.  1.
         14    1    3    3    0    0 -0.15150965495E+02 -0.70274988348E+02 -0.12421638356E+03  0.14351946101E+03  0.00000000000E+00 0. -1.
         11    1    5    5    0    0  0.50561578636E+02 -0.99482282028E+01  0.60394316162E+02  0.79390893074E+02  0.00000000000E+00 0. -1.
        -12    1    5    5    0    0 -0.22270057074E+02 -0.53228708287E+02  0.44938820827E+02  0.73135138239E+02  0.00000000000E+00 0.  1.
          5    1    4    4  501    0  0.13904019138E+02  0.10384820087E+03  0.21651538317E+02  0.10707022034E+03  0.41800000000E+01 0.  1.
         -5    1    4    4    0  501  0.11410223213E+03  0.12474402100E+03  0.17643651826E+03  0.24439252757E+03  0.41800000000E+01 0.  1.
</event>
<event>
11    1  0.8328696E-009  0.1394731E+03  0.7561462E-02  0.1108148E+00
         22   -1    0    0    0    0  0.00000000000E+00  0.00000000000E+00  0.26871529613E+03  0.26871529613E+03  0.00000000000E+00 0.  1.
         22   -1    0    0    0    0 -0.00000000000E+00 -0.00000000000E+00 -0.36088284310E+03  0.36088284310E+03  0.00000000000E+00 0.  1.
         24    2    1    2    0    0  0.11734980270E+01  0.55787057406E+01 -0.15749802802E+03  0.17677331921E+03  0.80066712792E+02 0.  0.
         25    2    1    2    0    0 -0.49688115950E+02 -0.43271311746E+02 -0.15523040306E+03  0.20996491315E+03  0.12508985344E+03 0.  0.
        -24    2    1    2    0    0  0.48514617923E+02  0.37692606005E+02  0.22056088410E+03  0.24285990687E+03  0.80990308498E+02 0.  0.
        -11    1    3    3    0    0 -0.32790186779E+02  0.19873239424E+02 -0.11105325725E+03  0.11748603295E+03  0.00000000000E+00 0.  1.
         12    1    3    3    0    0  0.33963684806E+02 -0.14294533683E+02 -0.46444770776E+02  0.59287286253E+02  0.00000000000E+00 0. -1.
         13    1    5    5    0    0 -0.19767647601E+02  0.27681793869E+01  0.20549196046E+02  0.28647725336E+02  0.00000000000E+00 0. -1.
        -14    1    5    5    0    0  0.68282265524E+02  0.34924426618E+02  0.20001168806E+03  0.21421218154E+03  0.00000000000E+00 0.  1.
          5    1    4    4  501    0  0.29289917935E+02  0.16658684180E+02 -0.75106496076E+02  0.82424930719E+02  0.41800000000E+01 0. -1.
         -5    1    4    4    0  501 -0.78978033884E+02 -0.59929995926E+02 -0.80123906980E+02  0.12753998243E+03  0.41800000000E+01 0. -1.
</event>
<event>
11    1  0.8328696E-009  0.2651324E+03  0.7561462E-02  0.1016133E+00
         22   -1    0    0    0    0  0.00000000000E+00  0.00000000000E+00  0.36608530590E+04  0.36608530590E+04  0.00000000000E+00 0. -1.
         22   -1    0    0    0    0 -0.00000000000E+00 -0.00000000000E+00 -0.18369611803E+04  0.18369611803E+04  0.00000000000E+00 0.  1.
         24    2    1    2    0    0 -0.12007172920E+02  0.24457838663E+02 -0.17943907403E+04  0.17963023375E+04  0.78240659799E+02 0.  0.
         25    2    1    2    0    0 -0.16103481302E+03  0.13703504009E+03  0.37283764983E+03  0.44650393455E+03  0.12508811780E+03 0.  0.
        -24    2    1    2    0    0  0.17304198594E+03 -0.16149287876E+03  0.32454449692E+04  0.32550079672E+04  0.78360321115E+02 0.  0.
        -11    1    3    3    0    0 -0.78647317906E+01 -0.18578177951E+02 -0.12612717603E+04  0.12614330961E+04  0.00000000000E+00 0.  1.
         12    1    3    3    0    0 -0.41424411294E+01  0.43036016613E+02 -0.53311898002E+03  0.53486924141E+03  0.00000000000E+00 0. -1.
         13    1    5    5    0    0  0.94548867773E+02 -0.85243171145E+02  0.22425472381E+04  0.22461576084E+04  0.00000000000E+00 0. -1.
        -14    1    5    5    0    0  0.78493118165E+02 -0.76249707611E+02  0.10028977311E+04  0.10088503588E+04  0.00000000000E+00 0.  1.
          5    1    4    4  501    0 -0.12011936425E+03  0.14987931260E+03  0.34594777939E+03  0.39571430158E+03  0.41800000000E+01 0.  1.
         -5    1    4    4    0  501 -0.40915448771E+02 -0.12844272504E+02  0.26889870446E+02  0.50789632967E+02  0.41800000000E+01 0.  1.
</event>
<event>
11    1  0.8328696E-009  0.1422441E+03  0.7561462E-02  0.1105078E+00
         22   -1    0    0    0    0  0.00000000000E+00  0.00000000000E+00  0.67858763530E+03  0.67858763530E+03  0.00000000000E+00 0.  1.
         22   -1    0    0    0    0 -0.00000000000E+00 -0.00000000000E+00 -0.42104189551E+03  0.42104189551E+03  0.00000000000E+00 0.  1.
         24    2    1    2    0    0 -0.65670412745E+02 -0.20267243778E+02 -0.37821655157E+03  0.39271653110E+03  0.80343945853E+02 0.  0.
         25    2    1    2    0    0  0.57428044420E+02 -0.38511380096E+02  0.13825075847E+03  0.19884995278E+03  0.12508766854E+03 0.  0.
        -24    2    1    2    0    0  0.82423683249E+01  0.58778623875E+02  0.49751153290E+03  0.50806304693E+03  0.84187119136E+02 0.  0.
        -13    1    3    3    0    0 -0.17495159461E+02 -0.37916441844E+02 -0.26687907777E+03  0.27012622849E+03  0.00000000000E+00 0.  1.
         14    1    3    3    0    0 -0.48175253284E+02  0.17649198066E+02 -0.11133747380E+03  0.12259030261E+03  0.00000000000E+00 0. -1.
         13    1    5    5    0    0  0.27797342540E+02  0.17685951232E+01  0.56934340833E+02  0.63382484544E+02  0.00000000000E+00 0. -1.
        -14    1    5    5    0    0 -0.19554974215E+02  0.57010028751E+02  0.44057719207E+03  0.44468056239E+03  0.00000000000E+00 0.  1.
          5    1    4    4  501    0  0.37376872232E+02 -0.15945538165E+02 -0.14302933327E+02  0.43282064034E+02  0.41800000000E+01 0. -1.
         -5    1    4    4    0  501  0.20051172188E+02 -0.22565841931E+02  0.15255369180E+03  0.15556788875E+03  0.41800000000E+01 0. -1.
</event>
<event>
11    1  0.8328696E-009  0.1454530E+03  0.7561462E-02  0.1101618E+00
         22   -1    0    0    0    0  0.00000000000E+00  0.00000000000E+00  0.22194673099E+03  0.22194673099E+03  0.00000000000E+00 0.  1.
         22   -1    0    0    0    0 -0.00000000000E+00 -0.00000000000E+00 -0.10105556478E+04  0.10105556478E+04  0.00000000000E+00 0. -1.
        -24    2    1    2    0    0  0.23640050034E+02  0.43853828366E+02 -0.67801147652E+03  0.68449529092E+03  0.79700883112E+02 0.  0.
         25    2    1    2    0    0 -0.71110635867E+02  0.14274306724E+02 -0.29779894428E+03  0.33104806157E+03  0.12509248375E+03 0.  0.
         24    2    1    2    0    0  0.47470585833E+02 -0.58128135090E+02  0.18720150403E+03  0.21695902626E+03  0.79965488530E+02 0.  0.
        -11    1    5    5    0    0  0.14320341693E+02 -0.90884277836E+00  0.12613112866E+03  0.12694471158E+03  0.00000000000E+00 0.  1.
         12    1    5    5    0    0  0.33150244140E+02 -0.57219292311E+02  0.61070375371E+02  0.90014314679E+02  0.00000000000E+00 0. -1.
         11    1    3    3    0    0 -0.18027958394E+02 -0.80871952210E+01 -0.66622873710E+02  0.69491131174E+02  0.00000000000E+00 0. -1.
        -12    1    3    3    0    0  0.41668008428E+02  0.51941023587E+02 -0.61138860281E+03  0.61500415975E+03  0.00000000000E+00 0.  1.
          5    1    4    4  501    0 -0.34627221514E+02 -0.48067530189E+02 -0.68780844192E+02  0.90872486794E+02  0.41800000000E+01 0. -1.
         -5    1    4    4    0  501 -0.36483414353E+02  0.62341836913E+02 -0.22901810009E+03  0.24017557478E+03  0.41800000000E+01 0. -1.
</event>
<event>
11    1  0.8328696E-009  0.1510002E+03  0.7561462E-02  0.1095861E+00
         22   -1    0    0    0    0  0.00000000000E+00  0.00000000000E+00  0.47605212444E+02  0.47605212444E+02  0.00000000000E+00 0. -1.
         22   -1    0    0    0    0 -0.00000000000E+00 -0.00000000000E+00 -0.91146576405E+03  0.91146576405E+03  0.00000000000E+00 0.  1.
        -24    2    1    2    0    0 -0.14994179810E+02  0.36713639094E+02 -0.47480199988E+03  0.48332927791E+03  0.81225212048E+02 0.  0.
         25    2    1    2    0    0  0.82724444722E+02 -0.65945340006E+02 -0.25206017947E+03  0.30062112205E+03  0.12508638347E+03 0.  0.
         24    2    1    2    0    0 -0.67730264911E+02  0.29231700912E+02 -0.13699837227E+03  0.17512057653E+03  0.80354098831E+02 0.  0.
        -13    1    5    5    0    0  0.17300690990E+02  0.11769303012E+01 -0.37193350945E+02  0.41037110378E+02  0.00000000000E+00 0.  1.
         14    1    5    5    0    0 -0.85030955901E+02  0.28054770611E+02 -0.99805021321E+02  0.13408346616E+03  0.00000000000E+00 0. -1.
         11    1    3    3    0    0  0.23030820835E+02 -0.12528087487E+02 -0.19078479134E+03  0.19257779802E+03  0.00000000000E+00 0. -1.
        -12    1    3    3    0    0 -0.38025000646E+02  0.49241726580E+02 -0.28401720854E+03  0.29075147989E+03  0.00000000000E+00 0.  1.
          5    1    4    4  501    0  0.36827122548E+02 -0.29951167981E+02 -0.23489000828E+03  0.23967498369E+03  0.41800000000E+01 0. -1.
         -5    1    4    4    0  501  0.45897322173E+02 -0.35994172025E+02 -0.17170171185E+02  0.60946138360E+02  0.41800000000E+01 0. -1.
</event>
<event>
11    1  0.8328696E-009  0.1657283E+03  0.7561462E-02  0.1081810E+00
         22   -1    0    0    0    0  0.00000000000E+00  0.00000000000E+00  0.24156941840E+03  0.24156941840E+03  0.00000000000E+00 0. -1.
         22   -1    0    0    0    0 -0.00000000000E+00 -0.00000000000E+00 -0.90289633957E+03  0.90289633957E+03  0.00000000000E+00 0. -1.
         24    2    1    2    0    0 -0.77110567205E+01 -0.40762453997E+02 -0.68824137939E+03  0.69418041914E+03  0.80555694781E+02 0.  0.
         25    2    1    2    0    0  0.50237397518E+02  0.13595220021E+03 -0.13967033579E+03  0.23698367634E+03  0.12508662317E+03 0.  0.
        -24    2    1    2    0    0 -0.42526340798E+02 -0.95189746218E+02  0.16658479400E+03  0.21330166249E+03  0.82930863882E+02 0.  0.
        -11    1    3    3    0    0  0.29994146643E+02 -0.25558616315E+02 -0.17741341870E+03  0.18173720818E+03  0.00000000000E+00 0.  1.
         12    1    3    3    0    0 -0.37705203363E+02 -0.15203837682E+02 -0.51082796069E+03  0.51244321096E+03  0.00000000000E+00 0. -1.
         11    1    5    5    0    0  0.23031340717E+02 -0.85871747815E+01  0.29309313109E+02  0.38252033421E+02  0.00000000000E+00 0. -1.
        -12    1    5    5    0    0 -0.65557681514E+02 -0.86602571436E+02  0.13727548089E+03  0.17504962907E+03  0.00000000000E+00 0.  1.
          5    1    4    4  501    0  0.79634118633E+02  0.61594152329E+02 -0.38273232896E+02  0.10778564472E+03  0.41800000000E+01 0.  1.
         -5    1    4    4    0  501 -0.29396721114E+02  0.74358047886E+02 -0.10139710289E+03  0.12919803161E+03  0.41800000000E+01 0.  1.
</event>
<event>
11    1  0.8328696E-009  0.1339825E+03  0.7561462E-02  0.1114470E+00
         22   -1    0    0    0    0  0.00000000000E+00  0.00000000000E+00  0.26971573430E+03  0.26971573430E+03  0.00000000000E+00 0. -1.
         22   -1    0    0    0    0 -0.00000000000E+00 -0.00000000000E+00 -0.12963554944E+04  0.12963554944E+04  0.00000000000E+00 0. -1.
        -24    2    1    2    0    0  0.94535497266E+01 -0.40062931919E+02 -0.10272149722E+04  0.10335236248E+04  0.10633003180E+03 0.  0.
         25    2    1    2    0    0 -0.24858511960E+02  0.10062821960E+03 -0.22952874076E+03  0.28120893435E+03  0.12510410757E+03 0.  0.
         24    2    1    2    0    0  0.15404962233E+02 -0.60565287678E+02  0.23010395288E+03  0.25133866958E+03  0.79484783211E+02 0.  0.
        -11    1    5    5    0    0  0.11917029110E+02  0.13266455268E+02  0.13200252782E+02  0.22186957694E+02  0.00000000000E+00 0.  1.
         12    1    5    5    0    0  0.34879331228E+01 -0.73831742946E+02  0.21690370010E+03  0.22915171189E+03  0.00000000000E+00 0. -1.
         11    1    3    3    0    0 -0.13587579338E+02 -0.46927011225E+02 -0.97289699658E+03  0.97412285295E+03  0.00000000000E+00 0. -1.
        -12    1    3    3    0    0  0.23041129065E+02  0.68640793063E+01 -0.54317975658E+02  0.59400771821E+02  0.00000000000E+00 0.  1.
          5    1    4    4  501    0 -0.51961754446E+02  0.43342948135E+02 -0.34436877551E+02  0.76039502981E+02  0.41800000000E+01 0.  1.
         -5    1    4    4    0  501  0.27103242486E+02  0.57285271462E+02 -0.19509186321E+03  0.20516943137E+03  0.41800000000E+01 0.  1.
</event>
<event>
11    1  0.8328696E-009  0.1379144E+03  0.7561462E-02  0.1109910E+00
         22   -1    0    0    0    0  0.00000000000E+00  0.00000000000E+00  0.16434766258E+03  0.16434766258E+03  0.00000000000E+00 0. -1.
         22   -1    0    0    0    0 -0.00000000000E+00 -0.00000000000E+00 -0.86249736557E+03  0.86249736557E+03  0.00000000000E+00 0.  1.
        -24    2    1    2    0    0 -0.48069826102E+02  0.30456965136E+02 -0.72041898512E+03  0.72700684267E+03  0.79354270641E+02 0.  0.
         25    2    1    2    0    0  0.71776402758E+02 -0.24254569127E+02 -0.76637555988E+02  0.16510861889E+03  0.12508958760E+03 0.  0.
         24    2    1    2    0    0 -0.23706576656E+02 -0.62023960088E+01  0.98906838115E+02  0.13472956659E+03  0.88142055768E+02 0.  0.
        -13    1    5    5    0    0 -0.22263389898E+02  0.14194230805E+02 -0.66358183089E+01  0.27224415559E+02  0.00000000000E+00 0.  1.
         14    1    5    5    0    0 -0.14431867577E+01 -0.20396626814E+02  0.10554265642E+03  0.10750515103E+03  0.00000000000E+00 0. -1.
         11    1    3    3    0    0 -0.43856124088E+02  0.23649769369E+02 -0.18689765887E+03  0.19342545361E+03  0.00000000000E+00 0. -1.
        -12    1    3    3    0    0 -0.42137020136E+01  0.68071957669E+01 -0.53352132625E+03  0.53358138907E+03  0.00000000000E+00 0.  1.
          5    1    4    4  501    0  0.67105433061E+02  0.41109674707E+02 -0.54485650306E+02  0.95808679096E+02  0.41800000000E+01 0. -1.
         -5    1    4    4    0  501  0.46709696964E+01 -0.65364243834E+02 -0.22151905681E+02  0.69299939792E+02  0.41800000000E+01 0. -1.
</event>
<event>
11    1  0.8328696E-009  0.1291030E+03  0.7561462E-02  0.1120376E+00
         22   -1    0    0    0    0  0.00000000000E+00  0.00000000000E+00  0.23726604780E+03  0.23726604780E+03  0.00000000000E+00 0.  1.
         22   -1    0    0    0    0 -0.00000000000E+00 -0.00000000000E+00 -0.24978512601E+03  0.24978512601E+03  0.00000000000E+00 0.  1.
        -24    2    1    2    0    0  0.17293892275E+02  0.39016925736E+01 -0.10697442771E+03  0.13418765521E+03  0.79047433308E+02 0.  0.
         25    2    1    2    0    0 -0.59240639533E+01  0.26694840668E+02 -0.85379748732E+02  0.15389811318E+03  0.12508884320E+03 0.  0.
         24    2    1    2    0    0 -0.11369828322E+02 -0.30596533242E+02  0.17983509822E+03  0.19896540543E+03  0.78620284669E+02 0.  0.
        -13    1    5    5    0    0 -0.43789480744E+01 -0.47838224553E+02  0.17233573424E+03  0.17890577467E+03  0.00000000000E+00 0.  1.
         14    1    5    5    0    0 -0.69908802475E+01  0.17241691311E+02  0.74993639818E+01  0.20059630755E+02  0.00000000000E+00 0. -1.
         13    1    3    3    0    0 -0.20446669735E+01  0.97151141757E+01  0.10814376979E+02  0.14680424242E+02  0.00000000000E+00 0. -1.
        -14    1    3    3    0    0  0.19338559249E+02 -0.58134216021E+01 -0.11778880468E+03  0.11950723097E+03  0.00000000000E+00 0.  1.
          5    1    4    4  501    0 -0.11522941487E+02  0.52780109998E+02  0.97101649600E+01  0.55047959957E+02  0.41800000000E+01 0.  1.
         -5    1    4    4    0  501  0.55988775337E+01 -0.26085269329E+02 -0.95089913692E+02  0.98850153220E+02  0.41800000000E+01 0.  1.
</event>
<event>
11    1  0.8328696E-009  0.1671177E+03  0.7561462E-02  0.1080567E+00
         22   -1    0    0    0    0  0.00000000000E+00  0.00000000000E+00  0.11241780836E+04  0.11241780836E+04  0.00000000000E+00 0.  1.
         22   -1    0    0    0    0 -0.00000000000E+00 -0.00000000000E+00 -0.77665629169E+03  0.77665629169E+03  0.00000000000E+00 0. -1.
         24    2    1    2    0    0  0.10247575300E+03 -0.41471234525E+02 -0.71854471831E+03  0.73143281550E+03  0.80413357898E+02 0.  0.
         25    2    1    2    0    0 -0.13044809271E+03 -0.11084683509E+02  0.11913183477E+03  0.21675690564E+03  0.12510630274E+03 0.  0.
        -24    2    1    2    0    0  0.27972339705E+02  0.52555918034E+02  0.94693467546E+03  0.95264465417E+03  0.85451630889E+02 0.  0.
        -13    1    3    3    0    0  0.61633551236E+02  0.77526034843E+01 -0.21348206828E+03  0.22233621157E+03  0.00000000000E+00 0.  1.
         14    1    3    3    0    0  0.40842201767E+02 -0.49223838009E+02 -0.50506265004E+03  0.50909660393E+03  0.00000000000E+00 0. -1.
         11    1    5    5    0    0  0.27373179450E+02  0.30275877278E+02  0.15161761439E+03  0.15701535177E+03  0.00000000000E+00 0. -1.
        -12    1    5    5    0    0  0.59916025562E+00  0.22280040756E+02  0.79531706107E+03  0.79562930240E+03  0.00000000000E+00 0.  1.
          5    1    4    4  501    0 -0.51338066202E+02  0.35820186015E+02 -0.41688071390E+01  0.62877135117E+02  0.41800000000E+01 0.  1.
         -5    1    4    4    0  501 -0.79110026506E+02 -0.46904869524E+02  0.12330064191E+03  0.15387977052E+03  0.41800000000E+01 0.  1.
</event>
<event>
11    1  0.8328696E-009  0.1605812E+03  0.7561462E-02  0.1086532E+00
         22   -1    0    0    0    0  0.00000000000E+00  0.00000000000E+00  0.63033769664E+03  0.63033769664E+03  0.00000000000E+00 0. -1.
         22   -1    0    0    0    0 -0.00000000000E+00 -0.00000000000E+00 -0.24944555761E+04  0.24944555761E+04  0.00000000000E+00 0. -1.
         24    2    1    2    0    0 -0.97597950350E+02 -0.26115510236E+02 -0.24409857763E+04  0.24443935597E+04  0.80255437020E+02 0.  0.
         25    2    1    2    0    0  0.58640700997E+02  0.70022097100E+02  0.81665162802E+02  0.17509692306E+03  0.12509159745E+03 0.  0.
        -24    2    1    2    0    0  0.38957249353E+02 -0.43906586864E+02  0.49520273404E+03  0.50530278992E+03  0.81607022038E+02 0.  0.
        -13    1    3    3    0    0 -0.60665069957E+01 -0.31922635179E+02 -0.38724604195E+03  0.38860694043E+03  0.00000000000E+00 0.  1.
         14    1    3    3    0    0 -0.91531443354E+02  0.58071249434E+01 -0.20537397343E+04  0.20557866193E+04  0.00000000000E+00 0. -1.
         13    1    5    5    0    0  0.14204013265E+02 -0.65879318547E+02  0.32599911659E+03  0.33289226879E+03  0.00000000000E+00 0. -1.
        -14    1    5    5    0    0  0.24753236089E+02  0.21972731683E+02  0.16920361745E+03  0.17241052112E+03  0.00000000000E+00 0.  1.
          5    1    4    4  501    0  0.25437761963E+02  0.94603915420E+02  0.18928615132E+02  0.99863634109E+02  0.41800000000E+01 0.  1.
         -5    1    4    4    0  501  0.33202939033E+02 -0.24581818320E+02  0.62736547670E+02  0.75233288947E+02  0.41800000000E+01 0.  1.
</event>
<event>
11    1  0.8328696E-009  0.1911738E+03  0.7561462E-02  0.1060947E+00
         22   -1    0    0    0    0  0.00000000000E+00  0.00000000000E+00  0.19012903289E+03  0.19012903289E+03  0.00000000000E+00 0. -1.
         22   -1    0    0    0    0 -0.00000000000E+00 -0.00000000000E+00 -0.57215709326E+03  0.57215709326E+03  0.00000000000E+00 0.  1.
         24    2    1    2    0    0  0.14451211413E+03 -0.59406549293E+02 -0.30850436728E+03  0.35442119308E+03  0.77630845940E+02 0.  0.
         25    2    1    2    0    0 -0.59066205440E+02  0.13858209752E+03 -0.14937067902E+03  0.24627763753E+03  0.12508901079E+03 0.  0.
        -24    2    1    2    0    0 -0.85445908692E+02 -0.79175548226E+02  0.75846985930E+02  0.16158729554E+03  0.82388822400E+02 0.  0.
        -13    1    3    3    0    0  0.13180786724E+03 -0.39887719874E+02 -0.29914716092E+03  0.32932258949E+03  0.00000000000E+00 0.  1.
         14    1    3    3    0    0  0.12704246895E+02 -0.19518829419E+02 -0.93572063581E+01  0.25098603584E+02  0.00000000000E+00 0. -1.
         11    1    5    5    0    0 -0.21975422674E+02  0.33071508884E+01  0.49452258811E+02  0.54216070959E+02  0.00000000000E+00 0. -1.
        -12    1    5    5    0    0 -0.63470486018E+02 -0.82482699114E+02  0.26394727119E+02  0.10737122458E+03  0.00000000000E+00 0.  1.
          5    1    4    4  501    0  0.17558701603E+01  0.35281099437E+02  0.18391655368E+02  0.40044530771E+02  0.41800000000E+01 0. -1.
         -5    1    4    4    0  501 -0.60822075601E+02  0.10330099808E+03 -0.16776233439E+03  0.20623310676E+03  0.41800000000E+01 0. -1.
</event>
<event>
11    1  0.8328696E-009  0.1519209E+03  0.7561462E-02  0.1094932E+00
         22   -1    0    0    0    0  0.00000000000E+00  0.00000000000E+00  0.27089141376E+03  0.27089141376E+03  0.00000000000E+00 0.  1.
         22   -1    0    0    0    0 -0.00000000000E+00 -0.00000000000E+00 -0.84964968996E+03  0.84964968996E+03  0.00000000000E+00 0. -1.
         24    2    1    2    0    0 -0.77302446787E+02 -0.26502468628E+02 -0.52531859295E+03  0.53779651191E+03  0.81162891740E+02 0.  0.
         25    2    1    2    0    0  0.10130170206E+03  0.15650236805E+02 -0.29041835058E+03  0.33241102275E+03  0.12508918793E+03 0.  0.
        -24    2    1    2    0    0 -0.23999255277E+02  0.10852231822E+02  0.23697866733E+03  0.25033356906E+03  0.76251372678E+02 0.  0.
        -13    1    3    3    0    0 -0.31768441759E+02  0.18918172903E+02 -0.83484563621E+02  0.91306097938E+02  0.00000000000E+00 0.  1.
         14    1    3    3    0    0 -0.45534005028E+02 -0.45420641530E+02 -0.44183402933E+03  0.44649041397E+03  0.00000000000E+00 0. -1.
         11    1    5    5    0    0 -0.42941979066E+02 -0.14006264782E+02  0.98359286909E+02  0.10823464483E+03  0.00000000000E+00 0. -1.
        -12    1    5    5    0    0  0.18942723789E+02  0.24858496604E+02  0.13861938043E+03  0.14209892423E+03  0.00000000000E+00 0.  1.
          5    1    4    4  501    0  0.70214423403E+02  0.47386498222E+02 -0.27061234664E+03  0.28359136098E+03  0.41800000000E+01 0.  1.
         -5    1    4    4    0  501  0.31087278661E+02 -0.31736261417E+02 -0.19806003943E+02  0.48819661771E+02  0.41800000000E+01 0.  1.
</event>
<event>
11    1  0.8328696E-009  0.1359733E+03  0.7561462E-02  0.1112140E+00
         22   -1    0    0    0    0  0.00000000000E+00  0.00000000000E+00  0.26533155717E+03  0.26533155717E+03  0.00000000000E+00 0.  1.
         22   -1    0    0    0    0 -0.00000000000E+00 -0.00000000000E+00 -0.77429077375E+03  0.77429077375E+03  0.00000000000E+00 0.  1.
         24    2    1    2    0    0  0.53669995470E+02 -0.17316500923E+02 -0.65082430382E+03  0.65809101604E+03  0.79568720817E+02 0.  0.
         25    2    1    2    0    0 -0.14452507063E+02  0.25020576814E+02 -0.73652828686E+02  0.14800815180E+03  0.12508704810E+03 0.  0.
        -24    2    1    2    0    0 -0.39217488407E+02 -0.77040758906E+01  0.21551791592E+03  0.23352316307E+03  0.80546455079E+02 0.  0.
        -13    1    3    3    0    0  0.34472523472E+02 -0.40827251515E+00 -0.60186122640E+03  0.60284778958E+03  0.00000000000E+00 0.  1.
         14    1    3    3    0    0  0.19197471999E+02 -0.16908228408E+02 -0.48963077419E+02  0.55243226457E+02  0.00000000000E+00 0. -1.
         11    1    5    5    0    0 -0.88960369494E+00  0.82690876344E+01 -0.46128469491E+01  0.95103923166E+01  0.00000000000E+00 0. -1.
        -12    1    5    5    0    0 -0.38327884712E+02 -0.15973163525E+02  0.22013076287E+03  0.22401277076E+03  0.00000000000E+00 0.  1.
          5    1    4    4  501    0 -0.37272070726E+02  0.44912231536E+02 -0.94405404425E+02  0.11106830593E+03  0.41800000000E+01 0. -1.
         -5    1    4    4    0  501  0.22819563663E+02 -0.19891654722E+02  0.20752575739E+02  0.36939845873E+02  0.41800000000E+01 0. -1.
</event>
<event>
11    1  0.8328696E-009  0.1799892E+03  0.7561462E-02  0.1069652E+00
         22   -1    0    0    0    0  0.00000000000E+00  0.00000000000E+00  0.14685650359E+04  0.14685650359E+04  0.00000000000E+00 0.  1.
         22   -1    0    0    0    0 -0.00000000000E+00 -0.00000000000E+00 -0.18983248530E+03  0.18983248530E+03  0.00000000000E+00 0.  1.
        -24    2    1    2    0    0 -0.23725455106E+02 -0.35152243555E+02 -0.96907168743E+02  0.13302023455E+03  0.80652377524E+02 0.  0.
         25    2    1    2    0    0 -0.82247559013E+02 -0.43534027896E+02  0.16714109224E+02  0.15680134553E+03  0.12508967969E+03 0.  0.
         24    2    1    2    0    0  0.10597301412E+03  0.78686271451E+02  0.13589256101E+04  0.13685759411E+04  0.94337075150E+02 0.  0.
        -11    1    5    5    0    0  0.78945477862E+02  0.27982563039E+02  0.44291209041E+03  0.45076216804E+03  0.00000000000E+00 0.  1.
         12    1    5    5    0    0  0.27027536257E+02  0.50703708412E+02  0.91601351972E+03  0.91781377309E+03  0.00000000000E+00 0. -1.
         13    1    3    3    0    0 -0.53684249124E+02 -0.19222865000E+02 -0.64642106530E+02  0.86198138491E+02  0.00000000000E+00 0. -1.
        -14    1    3    3    0    0  0.29958794018E+02 -0.15929378555E+02 -0.32265062213E+02  0.46822096063E+02  0.00000000000E+00 0.  1.
          5    1    4    4  501    0 -0.19101580293E+02  0.40916671158E+01 -0.49619481852E+02  0.53489975591E+02  0.41800000000E+01 0.  1.
         -5    1    4    4    0  501 -0.63145978720E+02 -0.47625695012E+02  0.66333591076E+02  0.10331136994E+03  0.41800000000E+01 0.  1.
</event>
<event>
11    1  0.8328696E-009  0.1417390E+03  0.7561462E-02  0.1105632E+00
         22   -1    0    0    0    0  0.00000000000E+00  0.00000000000E+00  0.13155781596E+03  0.13155781596E+03  0.00000000000E+00 0. -1.
         22   -1    0    0    0    0 -0.00000000000E+00 -0.00000000000E+00 -0.15501882979E+04  0.15501882979E+04  0.00000000000E+00 0.  1.
        -24    2    1    2    0    0  0.65051571469E+02 -0.12264294463E+02 -0.11103822378E+04  0.11152445165E+04  0.80246481752E+02 0.  0.
         25    2    1    2    0    0 -0.58913671162E+02  0.50507364663E+02 -0.40857685018E+03  0.43428623612E+03  0.12509067849E+03 0.  0.
         24    2    1    2    0    0 -0.61379003065E+01 -0.38243070200E+02  0.10032860604E+03  0.13221536118E+03  0.76908167990E+02 0.  0.
        -13    1    5    5    0    0  0.41161502939E+01  0.10775136253E+00 -0.12207175693E+02  0.12882912792E+02  0.00000000000E+00 0.  1.
         14    1    5    5    0    0 -0.10254050600E+02 -0.38350821563E+02  0.11253578173E+03  0.11933244839E+03  0.00000000000E+00 0. -1.
         11    1    3    3    0    0  0.20046092487E+02 -0.22372696450E+01 -0.50777547091E+02  0.54637079791E+02  0.00000000000E+00 0. -1.
        -12    1    3    3    0    0  0.45005478981E+02 -0.10027024818E+02 -0.10596046907E+04  0.10606074367E+04  0.00000000000E+00 0.  1.
          5    1    4    4  501    0 -0.41226399874E+02 -0.32254871687E+02 -0.23920648289E+03  0.24490244313E+03  0.41800000000E+01 0. -1.
         -5    1    4    4    0  501 -0.17687271288E+02  0.82762236350E+02 -0.16937036729E+03  0.18938379299E+03  0.41800000000E+01 0. -1.
</event>
<event>
11    1  0.8328696E-009  0.1727222E+03  0.7561462E-02  0.1075687E+00
         22   -1    0    0    0    0  0.00000000000E+00  0.00000000000E+00  0.44257265642E+03  0.44257265642E+03  0.00000000000E+00 0. -1.
         22   -1    0    0    0    0 -0.00000000000E+00 -0.00000000000E+00 -0.26549460266E+04  0.26549460266E+04  0.00000000000E+00 0.  1.
         24    2    1    2    0    0 -0.10327593274E+03  0.61603215733E+02 -0.22901078516E+04  0.22947240772E+04  0.81876396333E+02 0.  0.
         25    2    1    2    0    0  0.10450643263E+03 -0.37856026796E+02 -0.33803841195E+03  0.37718988519E+03  0.12509024069E+03 0.  0.
        -24    2    1    2    0    0 -0.12304998912E+01 -0.23747188937E+02  0.41577289339E+03  0.42560472056E+03  0.87788587919E+02 0.  0.
        -13    1    3    3    0    0 -0.68309321231E+01  0.32160502618E+02 -0.10530307525E+04  0.10535438887E+04  0.00000000000E+00 0.  1.
         14    1    3    3    0    0 -0.96445000617E+02  0.29442713115E+02 -0.12370770991E+04  0.12411801886E+04  0.00000000000E+00 0. -1.
         11    1    5    5    0    0 -0.76744975007E+01  0.31158341944E+02  0.99798647251E+02  0.10483086462E+03  0.00000000000E+00 0. -1.
        -12    1    5    5    0    0  0.64439976095E+01 -0.54905530881E+02  0.31597424614E+03  0.32077385593E+03  0.00000000000E+00 0.  1.
          5    1    4    4  501    0 -0.21667879264E+02 -0.21231365050E+02 -0.12762659530E+03  0.13124895459E+03  0.41800000000E+01 0. -1.
         -5    1    4    4    0  501  0.12617431190E+03 -0.16624661747E+02 -0.21041181665E+03  0.24594093060E+03  0.41800000000E+01 0. -1.
</event>
<event>
11    1  0.8328696E-009  0.1463546E+03  0.7561462E-02  0.1100663E+00
         22   -1    0    0    0    0  0.00000000000E+00  0.00000000000E+00  0.11647712872E+03  0.11647712872E+03  0.00000000000E+00 0. -1.
         22   -1    0    0    0    0 -0.00000000000E+00 -0.00000000000E+00 -0.24880834110E+04  0.24880834110E+04  0.00000000000E+00 0. -1.
        -24    2    1    2    0    0 -0.73583586735E+01 -0.43119578345E+02 -0.21590958979E+04  0.21610864622E+04  0.81768924853E+02 0.  0.
         25    2    1    2    0    0  0.74426712944E+02  0.45948142183E+01 -0.27797723592E+03  0.31381417884E+03  0.12509015642E+03 0.  0.
         24    2    1    2    0    0 -0.67068354270E+02  0.38524764126E+02  0.65466851539E+02  0.12965989874E+03  0.80891650347E+02 0.  0.
        -13    1    5    5    0    0 -0.23837645527E+02  0.36239843267E+01 -0.17510453523E+02  0.29799036717E+02  0.00000000000E+00 0.  1.
         14    1    5    5    0    0 -0.43230708743E+02  0.34900779800E+02  0.82977305062E+02  0.99860862025E+02  0.00000000000E+00 0. -1.
         13    1    3    3    0    0 -0.19124025950E+02 -0.37629400069E+02 -0.21061126632E+04  0.21065356038E+04  0.00000000000E+00 0. -1.
        -14    1    3    3    0    0  0.11765667277E+02 -0.54901782757E+01 -0.52983234756E+02  0.54550858372E+02  0.00000000000E+00 0.  1.
          5    1    4    4  501    0  0.69088961183E+02 -0.16454461294E+02 -0.55476601444E+02  0.90217290813E+02  0.41800000000E+01 0. -1.
         -5    1    4    4    0  501  0.53377517606E+01  0.21049275512E+02 -0.22250063447E+03  0.22359688803E+03  0.41800000000E+01 0. -1.
</event>
<event>
11    1  0.8328696E-009  0.1546908E+04  0.7561462E-02  0.8283305E-01
         22   -1    0    0    0    0  0.00000000000E+00  0.00000000000E+00  0.14329750895E+04  0.14329750895E+04  0.00000000000E+00 0.  1.
         22   -1    0    0    0    0 -0.00000000000E+00 -0.00000000000E+00 -0.41747494055E+03  0.41747494055E+03  0.00000000000E+00 0.  1.
         24    2    1    2    0    0  0.63981525737E+03  0.73435969311E+02  0.19525941627E+03  0.67773969854E+03  0.80302267615E+02 0.  0.
         25    2    1    2    0    0 -0.69676830473E+03 -0.12759588218E+03  0.75437202505E+03  0.10423480747E+04  0.12508228071E+03 0.  0.
        -24    2    1    2    0    0  0.56953047359E+02  0.54159912869E+02  0.65868707634E+02  0.13036225685E+03  0.80490282651E+02 0.  0.
        -11    1    3    3    0    0  0.50676778224E+03  0.39647016446E+02  0.18163921005E+03  0.53979465879E+03  0.00000000000E+00 0.  1.
         12    1    3    3    0    0  0.13304747513E+03  0.33788952865E+02  0.13620206212E+02  0.13794503975E+03  0.00000000000E+00 0. -1.
         13    1    5    5    0    0  0.40214229111E+02 -0.10987596366E+02  0.41492829097E+02  0.58818078542E+02  0.00000000000E+00 0. -1.
        -14    1    5    5    0    0  0.16738818248E+02  0.65147509235E+02  0.24375878537E+02  0.71544178312E+02  0.00000000000E+00 0.  1.
          5    1    4    4  501    0 -0.44373278964E+03 -0.19701628187E+02  0.46900569826E+03  0.64596498369E+03  0.41800000000E+01 0. -1.
         -5    1    4    4    0  501 -0.25303551509E+03 -0.10789425399E+03  0.28536632679E+03  0.39638309097E+03  0.41800000000E+01 0. -1.
</event>
<event>
11    1  0.8328696E-009  0.1306593E+03  0.7561462E-02  0.1118462E+00
         22   -1    0    0    0    0  0.00000000000E+00  0.00000000000E+00  0.21881962429E+03  0.21881962429E+03  0.00000000000E+00 0.  1.
         22   -1    0    0    0    0 -0.00000000000E+00 -0.00000000000E+00 -0.38564938552E+03  0.38564938552E+03  0.00000000000E+00 0.  1.
         24    2    1    2    0    0 -0.33363900799E+02 -0.28535195854E+01 -0.25424276871E+03  0.26886308581E+03  0.80787876689E+02 0.  0.
         25    2    1    2    0    0  0.60528284324E+02  0.20650071292E+02 -0.69598912126E+02  0.15680592272E+03  0.12511590699E+03 0.  0.
        -24    2    1    2    0    0 -0.27164383524E+02 -0.17796551707E+02  0.15701191961E+03  0.17880000128E+03  0.79133283613E+02 0.  0.
        -13    1    3    3    0    0 -0.19312160698E+02 -0.41676258204E+02 -0.12408734146E+03  0.13231605481E+03  0.00000000000E+00 0.  1.
         14    1    3    3    0    0 -0.14051740102E+02  0.38822738619E+02 -0.13015542725E+03  0.13654703100E+03  0.00000000000E+00 0. -1.
         13    1    5    5    0    0  0.17688959705E+02 -0.25607108393E+02  0.27546011979E+02  0.41562074920E+02  0.00000000000E+00 0. -1.
        -14    1    5    5    0    0 -0.44853343230E+02  0.78105566861E+01  0.12946590763E+03  0.13723792636E+03  0.00000000000E+00 0.  1.
          5    1    4    4  501    0 -0.26712953630E+02  0.41531902583E+02 -0.34518377229E+02  0.60394300976E+02  0.41800000000E+01 0. -1.
         -5    1    4    4    0  501  0.87241237954E+02 -0.20881831291E+02 -0.35080534897E+02  0.96411621739E+02  0.41800000000E+01 0. -1.
</event>
<event>
11    1  0.8328696E-009  0.1443487E+03  0.7561462E-02  0.1102797E+00
         22   -1    0    0    0    0  0.00000000000E+00  0.00000000000E+00  0.12527364931E+04  0.12527364931E+04  0.00000000000E+00 0.  1.
         22   -1    0    0    0    0 -0.00000000000E+00 -0.00000000000E+00 -0.86871993352E+03  0.86871993352E+03  0.00000000000E+00 0.  1.
        -24    2    1    2    0    0 -0.16712248224E+02  0.24630191639E+02 -0.82764675469E+03  0.83205505955E+03  0.80190560438E+02 0.  0.
         25    2    1    2    0    0  0.27708118544E+02  0.48002124607E+02  0.92600567563E+02  0.16521156812E+03  0.12509217933E+03 0.  0.
         24    2    1    2    0    0 -0.10995870320E+02 -0.72632316246E+02  0.11190627467E+04  0.11241897989E+04  0.78133926513E+02 0.  0.
        -13    1    5    5    0    0  0.20628367654E+02 -0.61409521004E+02  0.92346603807E+03  0.92573548181E+03  0.00000000000E+00 0.  1.
         14    1    5    5    0    0 -0.31624237974E+02 -0.11222795242E+02  0.19559670859E+03  0.19845431709E+03  0.00000000000E+00 0. -1.
         13    1    3    3    0    0  0.18766572925E+02  0.31136919151E+02 -0.19364948667E+03  0.19703252443E+03  0.00000000000E+00 0. -1.
        -14    1    3    3    0    0 -0.35478821148E+02 -0.65067275124E+01 -0.63399726802E+03  0.63502253512E+03  0.00000000000E+00 0.  1.
          5    1    4    4  501    0  0.76862328780E+02  0.27826182311E+02  0.43253220133E+02  0.92576603196E+02  0.41800000000E+01 0. -1.
         -5    1    4    4    0  501 -0.49154210236E+02  0.20175942297E+02  0.49347347430E+02  0.72634964926E+02  0.41800000000E+01 0. -1.
</event>
<event>
11    1  0.8328696E-009  0.2169143E+03  0.7561462E-02  0.1043168E+00
         22   -1    0    0    0    0  0.00000000000E+00  0.00000000000E+00  0.40727485283E+03  0.40727485283E+03  0.00000000000E+00 0. -1.
         22   -1    0    0    0    0 -0.00000000000E+00 -0.00000000000E+00 -0.74615741094E+03  0.74615741094E+03  0.00000000000E+00 0.  1.
        -24    2    1    2    0    0  0.50991985795E+02  0.10717800998E+03 -0.59553841600E+03  0.61278282707E+03  0.82155217671E+02 0.  0.
         25    2    1    2    0    0 -0.37940027743E+02 -0.25712196215E+03  0.90599532735E+02  0.30233506211E+03  0.12508823016E+03 0.  0.
         24    2    1    2    0    0 -0.13051958053E+02  0.14994395217E+03  0.16605632516E+03  0.23831437459E+03  0.81027745914E+02 0.  0.
        -11    1    5    5    0    0  0.66922554012E+01  0.22189519871E+02 -0.51928072257E+01  0.23751343570E+02  0.00000000000E+00 0.  1.
         12    1    5    5    0    0 -0.19744213454E+02  0.12775443230E+03  0.17124913238E+03  0.21456303102E+03  0.00000000000E+00 0. -1.
         13    1    3    3    0    0 -0.14657571631E+01 -0.12248025184E+02 -0.30847241683E+02  0.33222204689E+02  0.00000000000E+00 0. -1.
        -14    1    3    3    0    0  0.52457742958E+02  0.11942603516E+03 -0.56469117431E+03  0.57956062238E+03  0.00000000000E+00 0.  1.
          5    1    4    4  501    0 -0.57292360533E+02 -0.15215214789E+03  0.57085235551E+00  0.16263606290E+03  0.41800000000E+01 0. -1.
         -5    1    4    4    0  501  0.19352332790E+02 -0.10496981426E+03  0.90028680379E+02  0.13969899921E+03  0.41800000000E+01 0. -1.
</event>
<event>
11    1  0.8328696E-009  0.1647192E+03  0.7561462E-02  0.1082721E+00
         22   -1    0    0    0    0  0.00000000000E+00  0.00000000000E+00  0.23954390222E+03  0.23954390222E+03  0.00000000000E+00 0.  1.
         22   -1    0    0    0    0 -0.00000000000E+00 -0.00000000000E+00 -0.27173688634E+04  0.27173688634E+04  0.00000000000E+00 0.  1.
         24    2    1    2    0    0 -0.19535677775E+02  0.14819257438E+02 -0.24958400239E+04  0.24972680105E+04  0.80801228195E+02 0.  0.
         25    2    1    2    0    0  0.11295857970E+03 -0.62132156395E+02 -0.15779035965E+03  0.23909374905E+03  0.12509187683E+03 0.  0.
        -24    2    1    2    0    0 -0.93422901929E+02  0.47312898957E+02  0.17580542239E+03  0.22055100601E+03  0.82273025312E+02 0.  0.
        -13    1    3    3    0    0 -0.78620183949E+01 -0.28468707149E+02 -0.16303597190E+04  0.16306272082E+04  0.00000000000E+00 0.  1.
         14    1    3    3    0    0 -0.11673659380E+02  0.43287964587E+02 -0.86548030485E+03  0.86664080235E+03  0.00000000000E+00 0. -1.
         11    1    5    5    0    0 -0.31488210196E+02  0.14666200916E+02  0.39235311038E+01  0.34957101238E+02  0.00000000000E+00 0. -1.
        -12    1    5    5    0    0 -0.61934691734E+02  0.32646698041E+02  0.17188189129E+03  0.18559390477E+03  0.00000000000E+00 0.  1.
          5    1    4    4  501    0 -0.17597717305E+02  0.64531884547E+01 -0.57699807043E+02  0.60811704699E+02  0.41800000000E+01 0. -1.
         -5    1    4    4    0  501  0.13055629701E+03 -0.68585344850E+02 -0.10009055261E+03  0.17828204435E+03  0.41800000000E+01 0. -1.
</event>
<event>
11    1  0.8328696E-009  0.1620314E+03  0.7561462E-02  0.1085182E+00
         22   -1    0    0    0    0  0.00000000000E+00  0.00000000000E+00  0.14778909110E+03  0.14778909110E+03  0.00000000000E+00 0.  1.
         22   -1    0    0    0    0 -0.00000000000E+00 -0.00000000000E+00 -0.15283591734E+04  0.15283591734E+04  0.00000000000E+00 0. -1.
        -24    2    1    2    0    0  0.31661938624E+02 -0.57254672821E+02 -0.92820593395E+03  0.93397089819E+03  0.80341813109E+02 0.  0.
         25    2    1    2    0    0 -0.26531375790E+02 -0.48731420322E+02 -0.55711774189E+03  0.57367798432E+03  0.12509031193E+03 0.  0.
         24    2    1    2    0    0 -0.51305628345E+01  0.10598609314E+03  0.10475359350E+03  0.16849938202E+03  0.78481537801E+02 0.  0.
        -11    1    5    5    0    0 -0.66729292525E+01  0.11724780678E+03  0.10438979860E+03  0.15712672029E+03  0.00000000000E+00 0.  1.
         12    1    5    5    0    0  0.15423664180E+01 -0.11261713633E+02  0.36379490695E+00  0.11372661732E+02  0.00000000000E+00 0. -1.
         11    1    3    3    0    0 -0.60091802322E+01 -0.64777556898E+02 -0.55972931873E+03  0.56349725143E+03  0.00000000000E+00 0. -1.
        -12    1    3    3    0    0  0.37671118856E+02  0.75228840770E+01 -0.36847661522E+03  0.37047364676E+03  0.00000000000E+00 0.  1.
          5    1    4    4  501    0  0.48770878179E+02 -0.33945479452E+02 -0.22115677997E+03  0.22903861653E+03  0.41800000000E+01 0. -1.
         -5    1    4    4    0  501 -0.75302253969E+02 -0.14785940869E+02 -0.33596096192E+03  0.34463936779E+03  0.41800000000E+01 0. -1.
</event>
<event>
11    1  0.8328696E-009  0.1355529E+03  0.7561462E-02  0.1112628E+00
         22   -1    0    0    0    0  0.00000000000E+00  0.00000000000E+00  0.77195271634E+03  0.77195271634E+03  0.00000000000E+00 0. -1.
         22   -1    0    0    0    0 -0.00000000000E+00 -0.00000000000E+00 -0.28405842086E+03  0.28405842086E+03  0.00000000000E+00 0. -1.
        -24    2    1    2    0    0 -0.22096744562E+01  0.51405877405E+02 -0.20006506947E+03  0.22224271400E+03  0.81965511091E+02 0.  0.
         25    2    1    2    0    0 -0.15726911997E+02 -0.57143631848E+02 -0.24115575877E+01  0.13844544720E+03  0.12509434766E+03 0.  0.
         24    2    1    2    0    0  0.17936586454E+02  0.57377544430E+01  0.69037092253E+03  0.69532297601E+03  0.80668378746E+02 0.  0.
        -11    1    5    5    0    0  0.26052120306E+02  0.17771362489E+02  0.10179427833E+03  0.10656739369E+03  0.00000000000E+00 0.  1.
         12    1    5    5    0    0 -0.81155338521E+01 -0.12033608046E+02  0.58857664421E+03  0.58875558233E+03  0.00000000000E+00 0. -1.
         11    1    3    3    0    0 -0.14356026024E+02  0.71700275613E+02 -0.15053774821E+03  0.16735781619E+03  0.00000000000E+00 0. -1.
        -12    1    3    3    0    0  0.12146351568E+02 -0.20294398207E+02 -0.49527321265E+02  0.54884897801E+02  0.00000000000E+00 0.  1.
          5    1    4    4  501    0 -0.49564769187E+02  0.19793360530E+02 -0.78970458625E+01  0.54113576845E+02  0.41800000000E+01 0. -1.
         -5    1    4    4    0  501  0.33837857189E+02 -0.76936992378E+02  0.54854882748E+01  0.84331870351E+02  0.41800000000E+01 0. -1.
</event>
<event>
11    1  0.8328696E-009  0.1497524E+03  0.7561462E-02  0.1097132E+00
         22   -1    0    0    0    0  0.00000000000E+00  0.00000000000E+00  0.27100665369E+03  0.27100665369E+03  0.00000000000E+00 0. -1.
         22   -1    0    0    0    0 -0.00000000000E+00 -0.00000000000E+00 -0.19273886617E+03  0.19273886617E+03  0.00000000000E+00 0. -1.
        -24    2    1    2    0    0  0.82464095440E+02  0.26035306522E+02 -0.85292561194E+02  0.14336569204E+03  0.76162565856E+02 0.  0.
         25    2    1    2    0    0 -0.70987929392E+02 -0.11734640562E+02  0.85442001723E+01  0.14455948348E+03  0.12508977976E+03 0.  0.
         24    2    1    2    0    0 -0.11476166048E+02 -0.14300665961E+02  0.15501614854E+03  0.17582034433E+03  0.80910912352E+02 0.  0.
        -11    1    5    5    0    0 -0.21254581939E+02  0.29250426543E+02  0.49924276103E+02  0.61642339757E+02  0.00000000000E+00 0.  1.
         12    1    5    5    0    0  0.97784158902E+01 -0.43551092504E+02  0.10509187244E+03  0.11417800457E+03  0.00000000000E+00 0. -1.
         11    1    3    3    0    0  0.47508443050E+02  0.83774766760E+01 -0.91764238211E+02  0.10367212591E+03  0.00000000000E+00 0. -1.
        -12    1    3    3    0    0  0.34955652391E+02  0.17657829846E+02  0.64716770171E+01  0.39693566133E+02  0.00000000000E+00 0.  1.
          5    1    4    4  501    0  0.31971681030E+02  0.17257259642E+02  0.83565602555E+01  0.37514075992E+02  0.41800000000E+01 0. -1.
         -5    1    4    4    0  501 -0.10295961042E+03 -0.28991900203E+02  0.18763991679E+00  0.10704540749E+03  0.41800000000E+01 0. -1.
</event>
<event>
11    1  0.8328696E-009  0.1445381E+03  0.7561462E-02  0.1102594E+00
         22   -1    0    0    0    0  0.00000000000E+00  0.00000000000E+00  0.24818678183E+03  0.24818678183E+03  0.00000000000E+00 0. -1.
         22   -1    0    0    0    0 -0.00000000000E+00 -0.00000000000E+00 -0.33064020792E+04  0.33064020792E+04  0.00000000000E+00 0. -1.
        -24    2    1    2    0    0 -0.32826796995E+02 -0.56454118098E+02 -0.27909229975E+04  0.27928263040E+04  0.79767914458E+02 0.  0.
         25    2    1    2    0    0  0.97084091630E+02  0.87000640697E+02 -0.48628595027E+03  0.51876434022E+03  0.12509189789E+03 0.  0.
         24    2    1    2    0    0 -0.64257294635E+02 -0.30546522599E+02  0.21899365043E+03  0.24299821680E+03  0.77639065438E+02 0.  0.
        -11    1    5    5    0    0 -0.32651323442E+01  0.18879459830E+02  0.89813820260E+02  0.91834728738E+02  0.00000000000E+00 0.  1.
         12    1    5    5    0    0 -0.60992162291E+02 -0.49425982429E+02  0.12917983017E+03  0.15116348806E+03  0.00000000000E+00 0. -1.
         11    1    3    3    0    0 -0.74246883438E+01 -0.57909741981E+02 -0.25282167844E+04  0.25288908187E+04  0.00000000000E+00 0. -1.
        -12    1    3    3    0    0 -0.25402108651E+02  0.14556238831E+01 -0.26270621318E+03  0.26393548532E+03  0.00000000000E+00 0.  1.
          5    1    4    4  501    0 -0.10203363981E+02  0.62047996160E+02 -0.25324204863E+03  0.26096564919E+03  0.41800000000E+01 0. -1.
         -5    1    4    4    0  501  0.10728745561E+03  0.24952644538E+02 -0.23304390164E+03  0.25779869102E+03  0.41800000000E+01 0. -1.
</event>
<event>
11    1  0.8328696E-009  0.1634305E+03  0.7561462E-02  0.1083894E+00
         22   -1    0    0    0    0  0.00000000000E+00  0.00000000000E+00  0.10009950177E+03  0.10009950177E+03  0.00000000000E+00 0. -1.
         22   -1    0    0    0    0 -0.00000000000E+00 -0.00000000000E+00 -0.18084375457E+04  0.18084375457E+04  0.00000000000E+00 0. -1.
         24    2    1    2    0    0 -0.86654398344E+01 -0.54347566733E+02 -0.10120747841E+04  0.10167194493E+04  0.79964505890E+02 0.  0.
         25    2    1    2    0    0 -0.97053045616E+02  0.51931184850E+02 -0.73440356312E+03  0.75306878575E+03  0.12509141023E+03 0.  0.
        -24    2    1    2    0    0  0.10571848545E+03  0.24163818828E+01  0.38140303277E+02  0.13874881240E+03  0.81328427637E+02 0.  0.
        -11    1    3    3    0    0  0.12099782597E+01  0.15971031774E+01  0.86889270175E+00  0.21839781307E+01  0.00000000000E+00 0.  1.
         12    1    3    3    0    0 -0.98754180941E+01 -0.55944669911E+02 -0.10129436768E+04  0.10145354712E+04  0.00000000000E+00 0. -1.
         11    1    5    5    0    0  0.61741170041E+02 -0.13127338829E+02  0.60133841711E+02  0.87180146947E+02  0.00000000000E+00 0. -1.
        -12    1    5    5    0    0  0.43977315409E+02  0.15543720712E+02 -0.21993538433E+02  0.51568665457E+02  0.00000000000E+00 0.  1.
          5    1    4    4  501    0 -0.87039743263E+02  0.45406930067E+02 -0.73384612650E+03  0.74039537815E+03  0.41800000000E+01 0. -1.
         -5    1    4    4    0  501 -0.10013302353E+02  0.65242547832E+01 -0.55743662187E+00  0.12673407595E+02  0.41800000000E+01 0. -1.
</event>
<event>
11    1  0.8328696E-009  0.1774178E+03  0.7561462E-02  0.1071751E+00
         22   -1    0    0    0    0  0.00000000000E+00  0.00000000000E+00  0.47119848522E+03  0.47119848522E+03  0.00000000000E+00 0. -1.
         22   -1    0    0    0    0 -0.00000000000E+00 -0.00000000000E+00 -0.71177243709E+03  0.71177243709E+03  0.00000000000E+00 0.  1.
        -24    2    1    2    0    0  0.80651224705E+02 -0.24701708637E+02 -0.62567370524E+03  0.63660557315E+03  0.81757420942E+02 0.  0.
         25    2    1    2    0    0 -0.14155414113E+02  0.13517804123E+03  0.70787700160E+02  0.19781915602E+03  0.12509213171E+03 0.  0.
         24    2    1    2    0    0 -0.66495810592E+02 -0.11047633259E+03  0.31431205321E+03  0.34854619314E+03  0.77882405363E+02 0.  0.
        -13    1    5    5    0    0 -0.67370722945E+02 -0.36453936266E+02  0.15769656156E+03  0.17531659735E+03  0.00000000000E+00 0.  1.
         14    1    5    5    0    0  0.87491235282E+00 -0.74022396327E+02  0.15661549166E+03  0.17322959579E+03  0.00000000000E+00 0. -1.
         11    1    3    3    0    0 -0.56532025685E+01  0.98796171095E+01 -0.14668105748E+02  0.18566606037E+02  0.00000000000E+00 0. -1.
        -12    1    3    3    0    0  0.86304427274E+02 -0.34581325746E+02 -0.61100559949E+03  0.61803896711E+03  0.00000000000E+00 0.  1.
          5    1    4    4  501    0  0.44679352078E+02  0.10343881489E+03  0.21813032995E+02  0.11484386677E+03  0.41800000000E+01 0. -1.
         -5    1    4    4    0  501 -0.58834766190E+02  0.31739226345E+02  0.48974667165E+02  0.82975289246E+02  0.41800000000E+01 0. -1.
</event>
<event>
11    1  0.8328696E-009  0.1360901E+03  0.7561462E-02  0.1112005E+00
         22   -1    0    0    0    0  0.00000000000E+00  0.00000000000E+00  0.70904259669E+03  0.70904259669E+03  0.00000000000E+00 0. -1.
         22   -1    0    0    0    0 -0.00000000000E+00 -0.00000000000E+00 -0.12104611152E+03  0.12104611152E+03  0.00000000000E+00 0.  1.
        -24    2    1    2    0    0  0.24954279928E+02  0.37271234886E+02 -0.71838970867E+02  0.11561225625E+03  0.78698761263E+02 0.  0.
         25    2    1    2    0    0 -0.69941209229E+02 -0.50636235952E+02  0.23728382794E+03  0.28179289730E+03  0.12509124999E+03 0.  0.
         24    2    1    2    0    0  0.44986929301E+02  0.13365001066E+02  0.42255162809E+03  0.43268355466E+03  0.80391125187E+02 0.  0.
        -13    1    5    5    0    0  0.83523799280E+01 -0.31193914601E+02  0.10222624260E+03  0.10720553733E+03  0.00000000000E+00 0.  1.
         14    1    5    5    0    0  0.36634549373E+02  0.44558915667E+02  0.32032538549E+03  0.32547801733E+03  0.00000000000E+00 0. -1.
         11    1    3    3    0    0 -0.76554286654E+01  0.27752327809E+02  0.71195859521E+01  0.29656125691E+02  0.00000000000E+00 0. -1.
        -12    1    3    3    0    0  0.32609708594E+02  0.95189070768E+01 -0.78958556819E+02  0.85956130564E+02  0.00000000000E+00 0.  1.
          5    1    4    4  501    0 -0.26036205728E+02  0.37867361195E+02  0.11892270550E+03  0.12756137087E+03  0.41800000000E+01 0. -1.
         -5    1    4    4    0  501 -0.43905003501E+02 -0.88503597147E+02  0.11836112244E+03  0.15423152643E+03  0.41800000000E+01 0. -1.
</event>
<event>
11    1  0.8328696E-009  0.2454874E+03  0.7561462E-02  0.1026331E+00
         22   -1    0    0    0    0  0.00000000000E+00  0.00000000000E+00  0.50619813898E+03  0.50619813898E+03  0.00000000000E+00 0. -1.
         22   -1    0    0    0    0 -0.00000000000E+00 -0.00000000000E+00 -0.46669237654E+03  0.46669237654E+03  0.00000000000E+00 0. -1.
         24    2    1    2    0    0  0.20941997709E+03  0.39059901282E+02 -0.34234144424E+03  0.41119776660E+03  0.80644504583E+02 0.  0.
         25    2    1    2    0    0 -0.19615697868E+03 -0.51785582494E+02  0.83783440250E+02  0.25263765390E+03  0.12508721944E+03 0.  0.
        -24    2    1    2    0    0 -0.13262998405E+02  0.12725681212E+02  0.29806376643E+03  0.30905509502E+03  0.79593924452E+02 0.  0.
        -13    1    3    3    0    0 -0.27630037596E+00  0.16608966030E+02 -0.20044132931E+02  0.26032697890E+02  0.00000000000E+00 0.  1.
         14    1    3    3    0    0  0.20969627746E+03  0.22450935252E+02 -0.32229731131E+03  0.38516506871E+03  0.00000000000E+00 0. -1.
         13    1    5    5    0    0  0.67018561060E+01  0.29463276218E+02  0.26614052506E+03  0.26785029139E+03  0.00000000000E+00 0. -1.
        -14    1    5    5    0    0 -0.19964854511E+02 -0.16737595007E+02  0.31923241374E+02  0.41204803629E+02  0.00000000000E+00 0.  1.
          5    1    4    4  501    0 -0.94808910405E+02 -0.11044335844E+02 -0.24648038423E+02  0.98669676419E+02  0.41800000000E+01 0. -1.
         -5    1    4    4    0  501 -0.10134806828E+03 -0.40741246650E+02  0.10843147867E+03  0.15396797748E+03  0.41800000000E+01 0. -1.
</event>
<event>
11    1  0.8328696E-009  0.1320484E+03  0.7561462E-02  0.1116777E+00
         22   -1    0    0    0    0  0.00000000000E+00  0.00000000000E+00  0.22536679493E+03  0.22536679493E+03  0.00000000000E+00 0.  1.
         22   -1    0    0    0    0 -0.00000000000E+00 -0.00000000000E+00 -0.10309673861E+04  0.10309673861E+04  0.00000000000E+00 0. -1.
         24    2    1    2    0    0  0.28336222514E+02  0.38255557445E+02 -0.74138763679E+03  0.74676225963E+03  0.75708752732E+02 0.  0.
         25    2    1    2    0    0 -0.36427543489E+01 -0.18165466299E+01 -0.26245792755E+03  0.29076978144E+03  0.12508530113E+03 0.  0.
        -24    2    1    2    0    0 -0.24693468165E+02 -0.36439010815E+02  0.19824497317E+03  0.21880213996E+03  0.81460040437E+02 0.  0.
        -11    1    3    3    0    0  0.44147798164E+02  0.24139731298E+02 -0.25521258882E+03  0.26012539322E+03  0.00000000000E+00 0.  1.
         12    1    3    3    0    0 -0.15811575650E+02  0.14115826147E+02 -0.48617504798E+03  0.48663686641E+03  0.00000000000E+00 0. -1.
         11    1    5    5    0    0  0.15763373660E+02 -0.95036304406E+01  0.43571522904E+01  0.18915277338E+02  0.00000000000E+00 0. -1.
        -12    1    5    5    0    0 -0.40456841825E+02 -0.26935380374E+02  0.19388782088E+03  0.19988686263E+03  0.00000000000E+00 0.  1.
          5    1    4    4  501    0 -0.54351704888E+02 -0.20959875056E+02 -0.72018476240E+02  0.92723014977E+02  0.41800000000E+01 0. -1.
         -5    1    4    4    0  501  0.50708950539E+02  0.19143328426E+02 -0.19043945131E+03  0.19804676646E+03  0.41800000000E+01 0. -1.
</event>
<event>
11    1  0.8328696E-009  0.2738806E+03  0.7561462E-02  0.1011894E+00
         22   -1    0    0    0    0  0.00000000000E+00  0.00000000000E+00  0.37586611823E+03  0.37586611823E+03  0.00000000000E+00 0. -1.
         22   -1    0    0    0    0 -0.00000000000E+00 -0.00000000000E+00 -0.90380040297E+03  0.90380040297E+03  0.00000000000E+00 0.  1.
        -24    2    1    2    0    0  0.98253186301E+02 -0.14485923670E+03 -0.48467633511E+03  0.52133292061E+03  0.78987196559E+02 0.  0.
         25    2    1    2    0    0  0.54696566076E+02  0.32417251202E+03 -0.25248279604E+03  0.43298499930E+03  0.12509562516E+03 0.  0.
         24    2    1    2    0    0 -0.15294975238E+03 -0.17931327532E+03  0.20922484641E+03  0.32534860129E+03  0.80807168905E+02 0.  0.
        -11    1    5    5    0    0  0.24187005960E+01 -0.14404639564E+02 -0.29959639949E+01  0.14910384093E+02  0.00000000000E+00 0.  1.
         12    1    5    5    0    0 -0.15536845297E+03 -0.16490863576E+03  0.21222081041E+03  0.31043821720E+03  0.00000000000E+00 0. -1.
         11    1    3    3    0    0  0.23950692789E+02  0.88056438931E+00 -0.31825321730E+02  0.39840459109E+02  0.00000000000E+00 0. -1.
        -12    1    3    3    0    0  0.74302493512E+02 -0.14573980109E+03 -0.45285101338E+03  0.48149246150E+03  0.00000000000E+00 0.  1.
          5    1    4    4  501    0  0.49849243830E+02  0.15857305018E+03 -0.54904869705E+02  0.17510675736E+03  0.41800000000E+01 0. -1.
         -5    1    4    4    0  501  0.48473222453E+01  0.16559946184E+03 -0.19757792634E+03  0.25787824195E+03  0.41800000000E+01 0. -1.
</event>
<event>
11    1  0.8328696E-009  0.2145909E+03  0.7561462E-02  0.1044660E+00
         22   -1    0    0    0    0  0.00000000000E+00  0.00000000000E+00  0.94210953619E+03  0.94210953619E+03  0.00000000000E+00 0. -1.
         22   -1    0    0    0    0 -0.00000000000E+00 -0.00000000000E+00 -0.11034480766E+04  0.11034480766E+04  0.00000000000E+00 0. -1.
        -24    2    1    2    0    0 -0.10434113172E+03  0.13592986835E+03 -0.95630097593E+03  0.97471158267E+03  0.78658196888E+02 0.  0.
         25    2    1    2    0    0  0.10165627679E+03 -0.18815556113E+03 -0.21550650552E+02  0.24869321939E+03  0.12508946013E+03 0.  0.
         24    2    1    2    0    0  0.26848549283E+01  0.52225692786E+02  0.81651308610E+03  0.82215281071E+03  0.80665314514E+02 0.  0.
        -13    1    5    5    0    0  0.52632550894E+00 -0.20877204520E+02  0.11926281173E+03  0.12107746673E+03  0.00000000000E+00 0.  1.
         14    1    5    5    0    0  0.21585294194E+01  0.73102897305E+02  0.69725027437E+03  0.70107534399E+03  0.00000000000E+00 0. -1.
         11    1    3    3    0    0 -0.78966166272E+02  0.13941846792E+03 -0.75699582890E+03  0.77376730972E+03  0.00000000000E+00 0. -1.
        -12    1    3    3    0    0 -0.25374965443E+02 -0.34885995688E+01 -0.19930514703E+03  0.20094427295E+03  0.00000000000E+00 0.  1.
          5    1    4    4  501    0  0.87807899566E+02 -0.71776844843E+02 -0.55877064325E+02  0.12649846402E+03  0.41800000000E+01 0.  1.
         -5    1    4    4    0  501  0.13848377221E+02 -0.11637871629E+03  0.34326413773E+02  0.12219475537E+03  0.41800000000E+01 0.  1.
</event>
<event>
11    1  0.8328696E-009  0.1578694E+03  0.7561462E-02  0.1089099E+00
         22   -1    0    0    0    0  0.00000000000E+00  0.00000000000E+00  0.10216744807E+04  0.10216744807E+04  0.00000000000E+00 0.  1.
         22   -1    0    0    0    0 -0.00000000000E+00 -0.00000000000E+00 -0.16148998889E+04  0.16148998889E+04  0.00000000000E+00 0.  1.
        -24    2    1    2    0    0  0.95570039287E+02  0.11950754839E+02 -0.15850123447E+04  0.15899934094E+04  0.80860721569E+02 0.  0.
         25    2    1    2    0    0 -0.97741624440E+02  0.83590530967E+01  0.22599046476E+03  0.27630041836E+03  0.12508769767E+03 0.  0.
         24    2    1    2    0    0  0.21715851523E+01 -0.20309807936E+02  0.76579647171E+03  0.77028054172E+03  0.80440492223E+02 0.  0.
        -11    1    5    5    0    0 -0.12046571740E+02 -0.44982528548E+02  0.61889713467E+03  0.62064660723E+03  0.00000000000E+00 0.  1.
         12    1    5    5    0    0  0.14218156893E+02  0.24672720612E+02  0.14689933704E+03  0.14963393449E+03  0.00000000000E+00 0. -1.
         11    1    3    3    0    0  0.79098308443E+02 -0.22711289123E+02 -0.12677934738E+04  0.12704615843E+04  0.00000000000E+00 0. -1.
        -12    1    3    3    0    0  0.16471730844E+02  0.34662043962E+02 -0.31721887091E+03  0.31953182513E+03  0.00000000000E+00 0.  1.
          5    1    4    4  501    0 -0.33614346119E+02  0.48339443553E+02  0.17590384669E+03  0.18554315333E+03  0.41800000000E+01 0.  1.
         -5    1    4    4    0  501 -0.64127278321E+02 -0.39980390456E+02  0.50086618070E+02  0.90757265029E+02  0.41800000000E+01 0.  1.
</event>
<event>
11    1  0.8328696E-009  0.1276628E+03  0.7561462E-02  0.1122174E+00
         22   -1    0    0    0    0  0.00000000000E+00  0.00000000000E+00  0.64875544068E+02  0.64875544068E+02  0.00000000000E+00 0.  1.
         22   -1    0    0    0    0 -0.00000000000E+00 -0.00000000000E+00 -0.75884645339E+03  0.75884645339E+03  0.00000000000E+00 0. -1.
        -24    2    1    2    0    0  0.11277055636E+02  0.19904766582E+02 -0.55005908239E+03  0.55747565364E+03  0.87696856106E+02 0.  0.
         25    2    1    2    0    0 -0.41610854831E+02 -0.27254277618E+02 -0.13140116745E+03  0.18811953847E+03  0.12509370512E+03 0.  0.
         24    2    1    2    0    0  0.30333799195E+02  0.73495110362E+01 -0.12510659480E+02  0.78126805338E+02  0.70520397232E+02 0.  0.
        -11    1    5    5    0    0  0.18899915075E+02  0.39040239370E+02 -0.84879590385E+01  0.44197200460E+02  0.00000000000E+00 0.  1.
         12    1    5    5    0    0  0.11433884120E+02 -0.31690728333E+02 -0.40227004414E+01  0.33929604878E+02  0.00000000000E+00 0. -1.
         13    1    3    3    0    0 -0.12617903483E+02 -0.25300497598E+02 -0.34428560263E+03  0.34544450038E+03  0.00000000000E+00 0. -1.
        -14    1    3    3    0    0  0.23894959119E+02  0.45205264180E+02 -0.20577347976E+03  0.21203115326E+03  0.00000000000E+00 0.  1.
          5    1    4    4  501    0  0.80388302706E+01 -0.35169549384E+02 -0.13277326084E+03  0.13765075805E+03  0.41800000000E+01 0. -1.
         -5    1    4    4    0  501 -0.49649685101E+02  0.79152717657E+01  0.13720933895E+01  0.50468780429E+02  0.41800000000E+01 0. -1.
</event>
<event>
11    1  0.8328696E-009  0.1452570E+03  0.7561462E-02  0.1101826E+00
         22   -1    0    0    0    0  0.00000000000E+00  0.00000000000E+00  0.19499494612E+03  0.19499494612E+03  0.00000000000E+00 0. -1.
         22   -1    0    0    0    0 -0.00000000000E+00 -0.00000000000E+00 -0.42791031999E+03  0.42791031999E+03  0.00000000000E+00 0. -1.
         24    2    1    2    0    0 -0.67800213491E+02  0.18220345838E+02 -0.16761202804E+03  0.19880419051E+03  0.80625456689E+02 0.  0.
         25    2    1    2    0    0  0.52234618830E+02 -0.77274447001E+02 -0.20183436356E+03  0.25511541848E+03  0.12508785260E+03 0.  0.
        -24    2    1    2    0    0  0.15565594661E+02  0.59054101163E+02  0.13653101773E+03  0.16898565712E+03  0.78649595730E+02 0.  0.
        -13    1    3    3    0    0 -0.26380704055E+02  0.27386601331E+02 -0.15802160300E+02  0.41178583621E+02  0.00000000000E+00 0.  1.
         14    1    3    3    0    0 -0.41419509436E+02 -0.91662554928E+01 -0.15180986774E+03  0.15762560689E+03  0.00000000000E+00 0. -1.
         13    1    5    5    0    0 -0.67667660802E+01 -0.86408873091E+00  0.89123444889E+02  0.89384138422E+02  0.00000000000E+00 0. -1.
        -14    1    5    5    0    0  0.22332360742E+02  0.59918189894E+02  0.47407572843E+02  0.79601518699E+02  0.00000000000E+00 0.  1.
          5    1    4    4  501    0  0.16517432496E+02 -0.31676794207E+02 -0.19306298127E+03  0.19638490778E+03  0.41800000000E+01 0.  1.
         -5    1    4    4    0  501  0.35717186334E+02 -0.45597652794E+02 -0.87713822931E+01  0.58730510702E+02  0.41800000000E+01 0.  1.
</event>
<event>
11    1  0.8328696E-009  0.1494659E+03  0.7561462E-02  0.1097426E+00
         22   -1    0    0    0    0  0.00000000000E+00  0.00000000000E+00  0.19666318707E+02  0.19666318707E+02  0.00000000000E+00 0.  1.
         22   -1    0    0    0    0 -0.00000000000E+00 -0.00000000000E+00 -0.35485613293E+04  0.35485613293E+04  0.00000000000E+00 0. -1.
        -24    2    1    2    0    0  0.44980784965E+02 -0.64737940768E+02 -0.25476601822E+04  0.25501635124E+04  0.80915165466E+02 0.  0.
         25    2    1    2    0    0 -0.74208675112E+02  0.70680594379E+02 -0.81413738206E+03  0.83004184061E+03  0.12508839439E+03 0.  0.
         24    2    1    2    0    0  0.29227890147E+02 -0.59426536110E+01 -0.16709744637E+03  0.18802229504E+03  0.80877946028E+02 0.  0.
        -11    1    5    5    0    0 -0.22963694271E+02 -0.21193643355E+02 -0.71765178167E+02  0.78273511296E+02  0.00000000000E+00 0.  1.
         12    1    5    5    0    0  0.52191584418E+02  0.15250989744E+02 -0.95332268205E+02  0.10974878374E+03  0.00000000000E+00 0. -1.
         11    1    3    3    0    0  0.12593556687E+02 -0.72330605882E+02 -0.13094973477E+04  0.13115538944E+04  0.00000000000E+00 0. -1.
        -12    1    3    3    0    0  0.32387228278E+02  0.75926651135E+01 -0.12381628345E+04  0.12386096180E+04  0.00000000000E+00 0.  1.
          5    1    4    4  501    0 -0.88142331072E+02  0.95549354996E+02 -0.71781250189E+03  0.72950052093E+03  0.41800000000E+01 0. -1.
         -5    1    4    4    0  501  0.13933655960E+02 -0.24868760617E+02 -0.96324880164E+02  0.10054131967E+03  0.41800000000E+01 0. -1.
</event>
<event>
11    1  0.8328696E-009  0.2281326E+03  0.7561462E-02  0.1036239E+00
         22   -1    0    0    0    0  0.00000000000E+00  0.00000000000E+00  0.63871357257E+03  0.63871357257E+03  0.00000000000E+00 0.  1.
         22   -1    0    0    0    0 -0.00000000000E+00 -0.00000000000E+00 -0.22158711887E+03  0.22158711887E+03  0.00000000000E+00 0. -1.
         24    2    1    2    0    0 -0.39035666373E+02  0.18107204206E+03 -0.53335794169E+02  0.20848092870E+03  0.79427470229E+02 0.  0.
         25    2    1    2    0    0  0.63577062011E+02 -0.19316607447E+03  0.79291959470E+02  0.25157506275E+03  0.12509045615E+03 0.  0.
        -24    2    1    2    0    0 -0.24541395637E+02  0.12094032407E+02  0.39117028840E+03  0.40024469999E+03  0.80206481166E+02 0.  0.
        -11    1    3    3    0    0  0.18551633659E+02  0.12427460030E+02 -0.12745531306E+02  0.25710959579E+02  0.00000000000E+00 0.  1.
         12    1    3    3    0    0 -0.57587300032E+02  0.16864458203E+03 -0.40590262863E+02  0.18276996912E+03  0.00000000000E+00 0. -1.
         13    1    5    5    0    0 -0.36703891711E+02  0.20357312796E+02  0.96801397361E+02  0.10550879765E+03  0.00000000000E+00 0. -1.
        -14    1    5    5    0    0  0.12162496073E+02 -0.82632803888E+01  0.29436889104E+03  0.29473590233E+03  0.00000000000E+00 0.  1.
          5    1    4    4  501    0  0.12511475494E+02 -0.24821119070E+02 -0.32599734886E+02  0.43044628997E+02  0.41800000000E+01 0.  1.
         -5    1    4    4    0  501  0.51065586517E+02 -0.16834495540E+03  0.11189169436E+03  0.20853043375E+03  0.41800000000E+01 0.  1.
</event>
<event>
11    1  0.8328696E-009  0.1354474E+03  0.7561462E-02  0.1112751E+00
         22   -1    0    0    0    0  0.00000000000E+00  0.00000000000E+00  0.64093666012E+03  0.64093666012E+03  0.00000000000E+00 0.  1.
         22   -1    0    0    0    0 -0.00000000000E+00 -0.00000000000E+00 -0.26609543078E+03  0.26609543078E+03  0.00000000000E+00 0.  1.
        -24    2    1    2    0    0 -0.48366463264E+02 -0.14928170498E+02 -0.18542754952E+03  0.20843628300E+03  0.80623463755E+02 0.  0.
         25    2    1    2    0    0  0.65323652945E+02 -0.62296360515E+01  0.96747903202E+01  0.14155358541E+03  0.12505130137E+03 0.  0.
         24    2    1    2    0    0 -0.16957189681E+02  0.21157806549E+02  0.55059398853E+03  0.55704222249E+03  0.80044352534E+02 0.  0.
        -11    1    5    5    0    0  0.28200723182E+02  0.25744654912E+02  0.29329828043E+03  0.29577347641E+03  0.00000000000E+00 0.  1.
         12    1    5    5    0    0 -0.45157912863E+02 -0.45868483629E+01  0.25729570810E+03  0.26126874608E+03  0.00000000000E+00 0. -1.
         11    1    3    3    0    0 -0.55373891725E+02  0.78010176264E+01 -0.65279514979E+02  0.85956610198E+02  0.00000000000E+00 0. -1.
        -12    1    3    3    0    0  0.70074284610E+01 -0.22729188124E+02 -0.12014803454E+03  0.12247967280E+03  0.00000000000E+00 0.  1.
          5    1    4    4  501    0  0.59590762551E+02 -0.41908139046E+02  0.49067117681E+02  0.87934097694E+02  0.41800000000E+01 0. -1.
         -5    1    4    4    0  501  0.57328903940E+01  0.35678502994E+02 -0.39392327361E+02  0.53619487717E+02  0.41800000000E+01 0. -1.
</event>
<event>
11    1  0.8328696E-009  0.1865909E+04  0.7561462E-02  0.8124282E-01
         22   -1    0    0    0    0  0.00000000000E+00  0.00000000000E+00  0.12122992541E+04  0.12122992541E+04  0.00000000000E+00 0. -1.
         22   -1    0    0    0    0 -0.00000000000E+00 -0.00000000000E+00 -0.33130945906E+04  0.33130945906E+04  0.00000000000E+00 0. -1.
        -24    2    1    2    0    0 -0.75924749455E+02 -0.37596078183E+02 -0.32851188898E+03  0.34849694589E+03  0.79699607397E+02 0.  0.
         25    2    1    2    0    0 -0.14856893559E+04 -0.10389041150E+04 -0.12565035877E+04  0.22093082071E+04  0.12508743211E+03 0.  0.
         24    2    1    2    0    0  0.15616141054E+04  0.10765001932E+04 -0.51577985981E+03  0.19675886917E+04  0.88798174836E+02 0.  0.
        -11    1    5    5    0    0  0.11780656871E+04  0.79793551713E+03 -0.42460448969E+03  0.14848666018E+04  0.00000000000E+00 0.  1.
         12    1    5    5    0    0  0.38354841830E+03  0.27856467604E+03 -0.91175370124E+02  0.48272208986E+03  0.00000000000E+00 0. -1.
         11    1    3    3    0    0 -0.55517712942E+02 -0.61024987865E+02 -0.20139069484E+03  0.21763381530E+03  0.00000000000E+00 0. -1.
        -12    1    3    3    0    0 -0.20407036512E+02  0.23428909682E+02 -0.12712119414E+03  0.13086313059E+03  0.00000000000E+00 0.  1.
          5    1    4    4  501    0 -0.13497229504E+04 -0.98261121651E+03 -0.11406981938E+04  0.20220006645E+04  0.41800000000E+01 0. -1.
         -5    1    4    4    0  501 -0.13596640557E+03 -0.56292898480E+02 -0.11580539384E+03  0.18730754258E+03  0.41800000000E+01 0. -1.
</event>
<event>
11    1  0.8328696E-009  0.1444324E+03  0.7561462E-02  0.1102707E+00
         22   -1    0    0    0    0  0.00000000000E+00  0.00000000000E+00  0.16263962014E+04  0.16263962014E+04  0.00000000000E+00 0. -1.
         22   -1    0    0    0    0 -0.00000000000E+00 -0.00000000000E+00 -0.17861622168E+03  0.17861622168E+03  0.00000000000E+00 0.  1.
         24    2    1    2    0    0 -0.18990190296E+02 -0.67365085308E+02 -0.10428914039E+03  0.14955703020E+03  0.81193586155E+02 0.  0.
         25    2    1    2    0    0 -0.67837554071E+01  0.87624780147E+02  0.65646246576E+02  0.16637651202E+03  0.12509033787E+03 0.  0.
        -24    2    1    2    0    0  0.25773945703E+02 -0.20259694840E+02  0.14864228736E+04  0.14890788809E+04  0.82632940946E+02 0.  0.
        -13    1    3    3    0    0 -0.44083328198E+01 -0.84095396350E+02 -0.74686551357E+02  0.11255909576E+03  0.00000000000E+00 0.  1.
         14    1    3    3    0    0 -0.14581857476E+02  0.16730311042E+02 -0.29602589032E+02  0.36997934435E+02  0.00000000000E+00 0. -1.
         13    1    5    5    0    0 -0.73568069277E+01 -0.31785907756E+02  0.12099153371E+04  0.12103551502E+04  0.00000000000E+00 0. -1.
        -14    1    5    5    0    0  0.33130752631E+02  0.11526212916E+02  0.27650753644E+03  0.27872373071E+03  0.00000000000E+00 0.  1.
          5    1    4    4  501    0 -0.14323786561E+02 -0.30732131837E+02  0.13008840456E+02  0.36555945053E+02  0.41800000000E+01 0. -1.
         -5    1    4    4    0  501  0.75400311540E+01  0.11835691198E+03  0.52637406121E+02  0.12982056697E+03  0.41800000000E+01 0. -1.
</event>
<event>
11    1  0.8328696E-009  0.1332318E+03  0.7561462E-02  0.1115361E+00
         22   -1    0    0    0    0  0.00000000000E+00  0.00000000000E+00  0.13110597117E+04  0.13110597117E+04  0.00000000000E+00 0.  1.
         22   -1    0    0    0    0 -0.00000000000E+00 -0.00000000000E+00 -0.18195947274E+03  0.18195947274E+03  0.00000000000E+00 0. -1.
         24    2    1    2    0    0 -0.42338886390E+02  0.16116483427E+02 -0.13706361175E+03  0.16436583551E+03  0.78596258680E+02 0.  0.
         25    2    1    2    0    0  0.50624267466E+02 -0.13811162073E+02  0.12444333236E+03  0.18408313786E+03  0.12508754542E+03 0.  0.
        -24    2    1    2    0    0 -0.82853810766E+01 -0.23053213533E+01  0.11417205183E+04  0.11445702111E+04  0.80257485570E+02 0.  0.
        -13    1    3    3    0    0  0.10937453679E+02 -0.16178241752E+02 -0.80985886863E+01  0.21141204740E+02  0.00000000000E+00 0.  1.
         14    1    3    3    0    0 -0.53276340069E+02  0.32294725178E+02 -0.12896502307E+03  0.14322463077E+03  0.00000000000E+00 0. -1.
         13    1    5    5    0    0 -0.31741825855E+02  0.19737775500E+02  0.31286032337E+03  0.31508523487E+03  0.00000000000E+00 0. -1.
        -14    1    5    5    0    0  0.23456444778E+02 -0.22043096854E+02  0.82886019497E+03  0.82948497619E+03  0.00000000000E+00 0.  1.
          5    1    4    4  501    0  0.54859272531E+02 -0.16793295702E+02  0.14843167467E+03  0.15918853290E+03  0.41800000000E+01 0.  1.
         -5    1    4    4    0  501 -0.42350050648E+01  0.29821336291E+01 -0.23988342311E+02  0.24894604952E+02  0.41800000000E+01 0.  1.
</event>
<event>
11    1  0.8328696E-009  0.2253367E+03  0.7561462E-02  0.1037925E+00
         22   -1    0    0    0    0  0.00000000000E+00  0.00000000000E+00  0.15494506587E+04  0.15494506587E+04  0.00000000000E+00 0.  1.
         22   -1    0    0    0    0 -0.00000000000E+00 -0.00000000000E+00 -0.22706599117E+03  0.22706599117E+03  0.00000000000E+00 0.  1.
         24    2    1    2    0    0  0.38690326671E+01 -0.54541279848E+02 -0.16750927813E+03  0.19605584904E+03  0.85958228578E+02 0.  0.
         25    2    1    2    0    0  0.18409406260E+03  0.53147363681E+02  0.32711702068E+03  0.39921007509E+03  0.12509145730E+03 0.  0.
        -24    2    1    2    0    0 -0.18796309526E+03  0.13939161676E+01  0.11627769250E+04  0.11812507257E+04  0.89280633989E+02 0.  0.
        -11    1    3    3    0    0 -0.26803335851E+02  0.61932473135E+01 -0.83698545197E+02  0.88103470949E+02  0.00000000000E+00 0.  1.
         12    1    3    3    0    0  0.30672368518E+02 -0.60734527162E+02 -0.83810732937E+02  0.10795237809E+03  0.00000000000E+00 0. -1.
         11    1    5    5    0    0  0.49165649068E+01  0.77516439670E+01  0.16857774604E+02  0.19194925352E+02  0.00000000000E+00 0. -1.
        -12    1    5    5    0    0 -0.19287966017E+03 -0.63577277995E+01  0.11459191504E+04  0.11620558004E+04  0.00000000000E+00 0.  1.
          5    1    4    4  501    0  0.56558878536E+02 -0.41095910572E+02  0.93413549395E+02  0.11675334778E+03  0.41800000000E+01 0.  1.
         -5    1    4    4    0  501  0.12753518406E+03  0.94243274253E+02  0.23370347128E+03  0.28245672731E+03  0.41800000000E+01 0.  1.
</event>
<event>
11    1  0.8328696E-009  0.1460753E+03  0.7561462E-02  0.1100958E+00
         22   -1    0    0    0    0  0.00000000000E+00  0.00000000000E+00  0.82691427975E+02  0.82691427975E+02  0.00000000000E+00 0.  1.
         22   -1    0    0    0    0 -0.00000000000E+00 -0.00000000000E+00 -0.26193825533E+04  0.26193825533E+04  0.00000000000E+00 0.  1.
         24    2    1    2    0    0  0.75368810297E+02 -0.18763423674E+02 -0.22884813796E+04  0.22914583916E+04  0.87189519743E+02 0.  0.
         25    2    1    2    0    0 -0.51751497406E+02  0.98997490339E+01 -0.28826112558E+03  0.31862001908E+03  0.12509203621E+03 0.  0.
        -24    2    1    2    0    0 -0.23617312891E+02  0.88636746405E+01  0.40051379778E+02  0.91995570601E+02  0.78884281018E+02 0.  0.
        -11    1    3    3    0    0  0.30871815140E+02 -0.28827670574E+02 -0.18736382834E+04  0.18741143296E+04  0.00000000000E+00 0.  1.
         12    1    3    3    0    0  0.44496995157E+02  0.10064246900E+02 -0.41484309621E+03  0.41734406203E+03  0.00000000000E+00 0. -1.
         11    1    5    5    0    0 -0.22612614415E+02  0.26346412963E+02 -0.12267915798E+02  0.36823437709E+02  0.00000000000E+00 0. -1.
        -12    1    5    5    0    0 -0.10046984763E+01 -0.17482738322E+02  0.52319295576E+02  0.55172132892E+02  0.00000000000E+00 0.  1.
          5    1    4    4  501    0  0.39581149265E+02  0.16659333623E+02 -0.75735780050E+02  0.87164107026E+02  0.41800000000E+01 0. -1.
         -5    1    4    4    0  501 -0.91332646671E+02 -0.67595845893E+01 -0.21252534553E+03  0.23145591206E+03  0.41800000000E+01 0. -1.
</event>
<event>
11    1  0.8328696E-009  0.1445094E+03  0.7561462E-02  0.1102625E+00
         22   -1    0    0    0    0  0.00000000000E+00  0.00000000000E+00  0.23469584473E+04  0.23469584473E+04  0.00000000000E+00 0. -1.
         22   -1    0    0    0    0 -0.00000000000E+00 -0.00000000000E+00 -0.45597666980E+02  0.45597666980E+02  0.00000000000E+00 0.  1.
        -24    2    1    2    0    0  0.15395205746E+02  0.71431974423E+02  0.42934114630E+02  0.11060554073E+03  0.71068334097E+02 0.  0.
         25    2    1    2    0    0  0.12431560360E+02 -0.71354657724E+02  0.47406087081E+03  0.49560803880E+03  0.12509031942E+03 0.  0.
         24    2    1    2    0    0 -0.27826766106E+02 -0.77316699356E-01  0.17843657949E+04  0.17863425347E+04  0.79271852841E+02 0.  0.
        -13    1    5    5    0    0  0.48496717432E+01 -0.15970426790E+01  0.69406824575E+01  0.86164339672E+01  0.00000000000E+00 0.  1.
         14    1    5    5    0    0 -0.32676437849E+02  0.15197259796E+01  0.17774251124E+04  0.17777261008E+04  0.00000000000E+00 0. -1.
         13    1    3    3    0    0  0.28152940103E+02  0.20088372195E+01  0.25173656618E+02  0.37819789145E+02  0.00000000000E+00 0. -1.
        -14    1    3    3    0    0 -0.12757734357E+02  0.69423137204E+02  0.17760458012E+02  0.72785751586E+02  0.00000000000E+00 0.  1.
          5    1    4    4  501    0 -0.22958164483E+02 -0.61475999753E+01  0.35116418371E+03  0.35199236728E+03  0.41800000000E+01 0. -1.
         -5    1    4    4    0  501  0.35389724843E+02 -0.65207057748E+02  0.12289668710E+03  0.14361567152E+03  0.41800000000E+01 0. -1.
</event>
<event>
11    1  0.8328696E-009  0.1378124E+03  0.7561462E-02  0.1110026E+00
         22   -1    0    0    0    0  0.00000000000E+00  0.00000000000E+00  0.54099911029E+03  0.54099911029E+03  0.00000000000E+00 0. -1.
         22   -1    0    0    0    0 -0.00000000000E+00 -0.00000000000E+00 -0.13572309730E+03  0.13572309730E+03  0.00000000000E+00 0. -1.
        -24    2    1    2    0    0 -0.75143893894E+01 -0.53965924794E+02 -0.63523971736E+02  0.11591200423E+03  0.80196699762E+02 0.  0.
         25    2    1    2    0    0 -0.21965171329E+02  0.77270485639E+02  0.92933512989E+02  0.17531977272E+03  0.12508872118E+03 0.  0.
         24    2    1    2    0    0  0.29479560718E+02 -0.23304560845E+02  0.37586647173E+03  0.38549043064E+03  0.76909820500E+02 0.  0.
        -13    1    5    5    0    0 -0.18999377404E+02  0.45886621006E+01  0.35194699322E+02  0.40257906329E+02  0.00000000000E+00 0.  1.
         14    1    5    5    0    0  0.48478938123E+02 -0.27893222946E+02  0.34067177241E+03  0.34523252431E+03  0.00000000000E+00 0. -1.
         11    1    3    3    0    0 -0.98813055027E+01  0.19415515126E+02 -0.24430563641E+02  0.32733085187E+02  0.00000000000E+00 0. -1.
        -12    1    3    3    0    0  0.23669161133E+01 -0.73381439920E+02 -0.39093408095E+02  0.83178919043E+02  0.00000000000E+00 0.  1.
          5    1    4    4  501    0 -0.17619874280E+02  0.10936214631E+03  0.89527906373E+02  0.14248949938E+03  0.41800000000E+01 0. -1.
         -5    1    4    4    0  501 -0.43452970484E+01 -0.32091660669E+02  0.34056066160E+01  0.32830273337E+02  0.41800000000E+01 0. -1.
</event>
<event>
11    1  0.8328696E-009  0.2322519E+03  0.7561462E-02  0.1033803E+00
         22   -1    0    0    0    0  0.00000000000E+00  0.00000000000E+00  0.11430180823E+04  0.11430180823E+04  0.00000000000E+00 0.  1.
         22   -1    0    0    0    0 -0.00000000000E+00 -0.00000000000E+00 -0.88798459181E+03  0.88798459181E+03  0.00000000000E+00 0.  1.
        -24    2    1    2    0    0  0.10722593698E+03  0.22958169510E+02 -0.78950870165E+03  0.80105028114E+03  0.79580674981E+02 0.  0.
         25    2    1    2    0    0 -0.18549317108E+03 -0.19271190695E+03  0.18893740697E+03  0.35055658887E+03  0.12508789970E+03 0.  0.
         24    2    1    2    0    0  0.78267234096E+02  0.16975373744E+03  0.85560478515E+03  0.87939580409E+03  0.79594852676E+02 0.  0.
        -11    1    5    5    0    0  0.92012279982E+02  0.14555165684E+03  0.78126326028E+03  0.80001489132E+03  0.00000000000E+00 0.  1.
         12    1    5    5    0    0 -0.13745045886E+02  0.24202080597E+02  0.74341524873E+02  0.79380912769E+02  0.00000000000E+00 0. -1.
         11    1    3    3    0    0  0.24457534947E+02  0.19801562507E+02 -0.69492024351E+02  0.76285085972E+02  0.00000000000E+00 0. -1.
        -12    1    3    3    0    0  0.82768402035E+02  0.31566070034E+01 -0.72001667730E+03  0.72476519517E+03  0.00000000000E+00 0.  1.
          5    1    4    4  501    0 -0.14144562224E+03 -0.19285945965E+03  0.19123480372E+03  0.30625129842E+03  0.41800000000E+01 0.  1.
         -5    1    4    4    0  501 -0.44047548836E+02  0.14755270714E+00 -0.22973967468E+01  0.44305290453E+02  0.41800000000E+01 0.  1.
</event>
<event>
11    1  0.8328696E-009  0.1251297E+03  0.7561462E-02  0.1125402E+00
         22   -1    0    0    0    0  0.00000000000E+00  0.00000000000E+00  0.35629695144E+03  0.35629695144E+03  0.00000000000E+00 0. -1.
         22   -1    0    0    0    0 -0.00000000000E+00 -0.00000000000E+00 -0.95661686062E+03  0.95661686062E+03  0.00000000000E+00 0.  1.
         24    2    1    2    0    0  0.70346517613E+00  0.34091381511E+01 -0.89875108242E+03  0.90224151873E+03  0.79209424275E+02 0.  0.
         25    2    1    2    0    0  0.16510704978E+02  0.61813892451E+01  0.27600563686E+02  0.12930470394E+03  0.12508837833E+03 0.  0.
        -24    2    1    2    0    0 -0.17214170154E+02 -0.95905273962E+01  0.27083060955E+03  0.28136758939E+03  0.73689859699E+02 0.  0.
        -11    1    3    3    0    0 -0.32746350373E+02 -0.13487096879E+02 -0.26119337512E+03  0.26358339183E+03  0.00000000000E+00 0.  1.
         12    1    3    3    0    0  0.33449815549E+02  0.16896235030E+02 -0.63755770730E+03  0.63865812690E+03  0.00000000000E+00 0. -1.
         11    1    5    5    0    0 -0.23739879624E+00  0.98012482200E+01  0.24388009696E+03  0.24407708315E+03  0.00000000000E+00 0. -1.
        -12    1    5    5    0    0 -0.16976771358E+02 -0.19391775616E+02  0.26950512593E+02  0.37290506249E+02  0.00000000000E+00 0.  1.
          5    1    4    4  501    0  0.37586454835E+02 -0.50197323880E+02 -0.25771302514E+00  0.62849436973E+02  0.41800000000E+01 0.  1.
         -5    1    4    4    0  501 -0.21075749857E+02  0.56378713126E+02  0.27858276711E+02  0.66455266962E+02  0.41800000000E+01 0.  1.
</event>
<event>
11    1  0.8328696E-009  0.1379010E+03  0.7561462E-02  0.1109925E+00
         22   -1    0    0    0    0  0.00000000000E+00  0.00000000000E+00  0.54546296244E+03  0.54546296244E+03  0.00000000000E+00 0. -1.
         22   -1    0    0    0    0 -0.00000000000E+00 -0.00000000000E+00 -0.23043948834E+03  0.23043948834E+03  0.00000000000E+00 0.  1.
         24    2    1    2    0    0 -0.51529337639E+02 -0.29019871816E+02 -0.18766899910E+03  0.21216472057E+03  0.79352314598E+02 0.  0.
         25    2    1    2    0    0  0.34600466544E+02  0.25655544130E+02  0.14350325107E+03  0.19518534440E+03  0.12509490945E+03 0.  0.
        -24    2    1    2    0    0  0.16928871095E+02  0.33643276851E+01  0.35918922213E+03  0.36855238580E+03  0.80722106091E+02 0.  0.
        -13    1    3    3    0    0 -0.65955019788E+02 -0.29445637242E+02 -0.18340587287E+03  0.19711627125E+03  0.00000000000E+00 0.  1.
         14    1    3    3    0    0  0.14425682149E+02  0.42576542681E+00 -0.42631262337E+01  0.15048449321E+02  0.00000000000E+00 0. -1.
         13    1    5    5    0    0  0.13022489722E+02  0.32850253417E+02  0.30228610532E+03  0.30434456436E+03  0.00000000000E+00 0. -1.
        -14    1    5    5    0    0  0.39063813726E+01 -0.29485925732E+02  0.56903116809E+02  0.64207821441E+02  0.00000000000E+00 0.  1.
          5    1    4    4  501    0 -0.10798613389E+01  0.61784626525E+02  0.12755733398E+03  0.14179863197E+03  0.41800000000E+01 0. -1.
         -5    1    4    4    0  501  0.35680327883E+02 -0.36129082395E+02  0.15945917091E+02  0.53386712433E+02  0.41800000000E+01 0. -1.
</event>
<event>
11    1  0.8328696E-009  0.1637147E+03  0.7561462E-02  0.1083635E+00
         22   -1    0    0    0    0  0.00000000000E+00  0.00000000000E+00  0.22414866289E+02  0.22414866289E+02  0.00000000000E+00 0.  1.
         22   -1    0    0    0    0 -0.00000000000E+00 -0.00000000000E+00 -0.29378053896E+04  0.29378053896E+04  0.00000000000E+00 0. -1.
        -24    2    1    2    0    0  0.37835469839E+02  0.30091424222E+02 -0.18647946006E+04  0.18670993132E+04  0.79144970570E+02 0.  0.
         25    2    1    2    0    0  0.39908959388E+02 -0.10277421310E+03 -0.52591881315E+03  0.55171887730E+03  0.12509139709E+03 0.  0.
         24    2    1    2    0    0 -0.77744429227E+02  0.72682788877E+02 -0.52467710963E+03  0.54140206545E+03  0.80642067375E+02 0.  0.
        -13    1    5    5    0    0 -0.18690539235E+02 -0.11213364963E+02 -0.36104821459E+02  0.42173853788E+02  0.00000000000E+00 0.  1.
         14    1    5    5    0    0 -0.59053889992E+02  0.83896153840E+02 -0.48857228817E+03  0.49922821166E+03  0.00000000000E+00 0. -1.
         13    1    3    3    0    0 -0.21856245476E+02  0.78079049730E+01 -0.84343494669E+03  0.84375421074E+03  0.00000000000E+00 0. -1.
        -14    1    3    3    0    0  0.59691715314E+02  0.22283519249E+02 -0.10213596539E+04  0.10233451024E+04  0.00000000000E+00 0.  1.
          5    1    4    4  501    0  0.59148739455E+02 -0.78580159687E+02 -0.50417408380E+03  0.51369484527E+03  0.41800000000E+01 0. -1.
         -5    1    4    4    0  501 -0.19239780067E+02 -0.24194053413E+02 -0.21744729347E+02  0.38024032031E+02  0.41800000000E+01 0. -1.
</event>
<event>
11    1  0.8328696E-009  0.2226217E+03  0.7561462E-02  0.1039587E+00
         22   -1    0    0    0    0  0.00000000000E+00  0.00000000000E+00  0.66243997283E+03  0.66243997283E+03  0.00000000000E+00 0.  1.
         22   -1    0    0    0    0 -0.00000000000E+00 -0.00000000000E+00 -0.42949862287E+03  0.42949862287E+03  0.00000000000E+00 0.  1.
        -24    2    1    2    0    0 -0.15704388081E+03 -0.96767214104E+02 -0.32978266561E+03  0.38627962255E+03  0.80178962543E+02 0.  0.
         25    2    1    2    0    0  0.10024793774E+03  0.17807183160E+03  0.17276508315E+03  0.29538659090E+03  0.12508492275E+03 0.  0.
         24    2    1    2    0    0  0.56795943075E+02 -0.81304617493E+02  0.38995893241E+03  0.41027238225E+03  0.80120151644E+02 0.  0.
        -11    1    5    5    0    0 -0.18905046081E+02 -0.12877177829E+02  0.10853257923E+03  0.11091683024E+03  0.00000000000E+00 0.  1.
         12    1    5    5    0    0  0.75700989156E+02 -0.68427439664E+02  0.28142635318E+03  0.29935555202E+03  0.00000000000E+00 0. -1.
         13    1    3    3    0    0 -0.11296731933E+03 -0.44969229936E+02 -0.14416166016E+03  0.18859064435E+03  0.00000000000E+00 0. -1.
        -14    1    3    3    0    0 -0.44076561482E+02 -0.51797984168E+02 -0.18562100545E+03  0.19768897819E+03  0.00000000000E+00 0.  1.
          5    1    4    4  501    0  0.22078881309E+00  0.65714536449E+02 -0.55530337903E+00  0.65850055507E+02  0.41800000000E+01 0. -1.
         -5    1    4    4    0  501  0.10002714892E+03  0.11235729515E+03  0.17332038653E+03  0.22953653540E+03  0.41800000000E+01 0. -1.
</event>
<event>
11    1  0.8328696E-009  0.1835358E+03  0.7561462E-02  0.1066818E+00
         22   -1    0    0    0    0  0.00000000000E+00  0.00000000000E+00  0.66380527099E+03  0.66380527099E+03  0.00000000000E+00 0.  1.
         22   -1    0    0    0    0 -0.00000000000E+00 -0.00000000000E+00 -0.92829131023E+02  0.92829131023E+02  0.00000000000E+00 0.  1.
         24    2    1    2    0    0 -0.11103558454E+03 -0.40406442983E+02  0.16610834438E+03  0.21867183542E+03  0.79144221934E+02 0.  0.
         25    2    1    2    0    0  0.16741181541E+03 -0.56003479487E+02  0.23122760203E+03  0.31666931549E+03  0.12510054268E+03 0.  0.
        -24    2    1    2    0    0 -0.56376230872E+02  0.96409922469E+02  0.17364019355E+03  0.22129325110E+03  0.79665761822E+02 0.  0.
        -11    1    3    3    0    0 -0.26438957253E+02 -0.47143548951E+02  0.42615207483E+02  0.68830142940E+02  0.00000000000E+00 0.  1.
         12    1    3    3    0    0 -0.84596627287E+02  0.67371059688E+01  0.12349313690E+03  0.14984169248E+03  0.00000000000E+00 0. -1.
         11    1    5    5    0    0 -0.23504551046E+02 -0.51887984831E+01  0.10382980228E+02  0.26214382083E+02  0.00000000000E+00 0. -1.
        -12    1    5    5    0    0 -0.32871679827E+02  0.10159872095E+03  0.16325721333E+03  0.19507886902E+03  0.00000000000E+00 0.  1.
          5    1    4    4  501    0  0.18308537602E+03 -0.34913769187E+02  0.21834380537E+03  0.28710749892E+03  0.41800000000E+01 0.  1.
         -5    1    4    4    0  501 -0.15673560610E+02 -0.21089710299E+02  0.12883796666E+02  0.29561816575E+02  0.41800000000E+01 0.  1.
</event>
<event>
11    1  0.8328696E-009  0.1439328E+03  0.7561462E-02  0.1103245E+00
         22   -1    0    0    0    0  0.00000000000E+00  0.00000000000E+00  0.16862399174E+03  0.16862399174E+03  0.00000000000E+00 0.  1.
         22   -1    0    0    0    0 -0.00000000000E+00 -0.00000000000E+00 -0.10487927476E+04  0.10487927476E+04  0.00000000000E+00 0. -1.
        -24    2    1    2    0    0  0.26929393990E+02  0.83304162956E+01 -0.87191376899E+03  0.87569028574E+03  0.76192308691E+02 0.  0.
         25    2    1    2    0    0 -0.94479976471E+02 -0.14090289568E+02 -0.11303457626E+03  0.19377694282E+03  0.12509071079E+03 0.  0.
         24    2    1    2    0    0  0.67550582480E+02  0.57598732728E+01  0.10477958943E+03  0.14794951072E+03  0.79460921388E+02 0.  0.
        -11    1    5    5    0    0  0.19268445897E+02 -0.43860659578E+01  0.95781784684E+02  0.97799084142E+02  0.00000000000E+00 0.  1.
         12    1    5    5    0    0  0.48282136583E+02  0.10145939231E+02  0.89978047494E+01  0.50150426580E+02  0.00000000000E+00 0. -1.
         11    1    3    3    0    0  0.33454850112E+02  0.11008366435E+02 -0.86531442588E+03  0.86603086941E+03  0.00000000000E+00 0. -1.
        -12    1    3    3    0    0 -0.65254561223E+01 -0.26779501392E+01 -0.65993431021E+01  0.96594163349E+01  0.00000000000E+00 0.  1.
          5    1    4    4  501    0 -0.58398273319E+02  0.19278200754E+02  0.88673600047E+01  0.62274471691E+02  0.41800000000E+01 0. -1.
         -5    1    4    4    0  501 -0.36081703152E+02 -0.33368490323E+02 -0.12190193626E+03  0.13150247113E+03  0.41800000000E+01 0. -1.
</event>
<event>
11    1  0.8328696E-009  0.1671738E+03  0.7561462E-02  0.1080518E+00
         22   -1    0    0    0    0  0.00000000000E+00  0.00000000000E+00  0.75724539372E+03  0.75724539372E+03  0.00000000000E+00 0.  1.
         22   -1    0    0    0    0 -0.00000000000E+00 -0.00000000000E+00 -0.24261086122E+03  0.24261086122E+03  0.00000000000E+00 0. -1.
        -24    2    1    2    0    0 -0.64453676165E+02  0.81937309742E+02 -0.15574298561E+03  0.20404566446E+03  0.80689258999E+02 0.  0.
         25    2    1    2    0    0  0.69747794851E+02 -0.15195184256E+03  0.13291535052E+03  0.24752291622E+03  0.12508791431E+03 0.  0.
         24    2    1    2    0    0 -0.52941186854E+01  0.70014532821E+02  0.53746216760E+03  0.54828767425E+03  0.82605869275E+02 0.  0.
        -13    1    5    5    0    0 -0.31938148364E+02  0.70280859026E+02  0.45843726293E+03  0.46489156640E+03  0.00000000000E+00 0.  1.
         14    1    5    5    0    0  0.26644029679E+02 -0.26632620449E+00  0.79024904664E+02  0.83396107849E+02  0.00000000000E+00 0. -1.
         11    1    3    3    0    0 -0.53151298346E+02  0.92541377702E+02 -0.10021972470E+03  0.14640000110E+03  0.00000000000E+00 0. -1.
        -12    1    3    3    0    0 -0.11302377819E+02 -0.10604067961E+02 -0.55523260915E+02  0.57645663361E+02  0.00000000000E+00 0.  1.
          5    1    4    4  501    0  0.10060355261E+03 -0.80535001817E+02  0.66126717735E+02  0.14490402518E+03  0.41800000000E+01 0.  1.
         -5    1    4    4    0  501 -0.30855757761E+02 -0.71416840746E+02  0.66788632784E+02  0.10261889104E+03  0.41800000000E+01 0.  1.
</event>
<event>
11    1  0.8328696E-009  0.1464073E+03  0.7561462E-02  0.1100607E+00
         22   -1    0    0    0    0  0.00000000000E+00  0.00000000000E+00  0.47506070676E+02  0.47506070676E+02  0.00000000000E+00 0.  1.
         22   -1    0    0    0    0 -0.00000000000E+00 -0.00000000000E+00 -0.26539014615E+04  0.26539014615E+04  0.00000000000E+00 0. -1.
        -24    2    1    2    0    0  0.49434667899E+02  0.61170162014E+02 -0.22061563620E+04  0.22090877406E+04  0.82202049028E+02 0.  0.
         25    2    1    2    0    0 -0.14059559296E+01 -0.66775395849E+02 -0.38734072249E+03  0.41248275591E+03  0.12509299909E+03 0.  0.
         24    2    1    2    0    0 -0.48028711970E+02  0.56052338352E+01 -0.12898306301E+02  0.79837035657E+02  0.62204582927E+02 0.  0.
        -13    1    5    5    0    0 -0.33915760594E+02  0.27366894936E+02  0.10586264247E+02  0.44847460863E+02  0.00000000000E+00 0.  1.
         14    1    5    5    0    0 -0.14112951375E+02 -0.21761661101E+02 -0.23484570548E+02  0.34989574793E+02  0.00000000000E+00 0. -1.
         13    1    3    3    0    0  0.16249356724E+02  0.74793933240E+02 -0.16513875582E+04  0.16531603193E+04  0.00000000000E+00 0. -1.
        -14    1    3    3    0    0  0.33185311175E+02 -0.13623771226E+02 -0.55476880382E+03  0.55592742126E+03  0.00000000000E+00 0.  1.
          5    1    4    4  501    0 -0.58971312730E+02 -0.56026534623E+02 -0.25531088391E+03  0.26798826121E+03  0.41800000000E+01 0. -1.
         -5    1    4    4    0  501  0.57565356800E+02 -0.10748861226E+02 -0.13202983859E+03  0.14449449470E+03  0.41800000000E+01 0. -1.
</event>
<event>
11    1  0.8328696E-009  0.1918198E+03  0.7561462E-02  0.1060464E+00
         22   -1    0    0    0    0  0.00000000000E+00  0.00000000000E+00  0.25252576843E+03  0.25252576843E+03  0.00000000000E+00 0. -1.
         22   -1    0    0    0    0 -0.00000000000E+00 -0.00000000000E+00 -0.53492705523E+03  0.53492705523E+03  0.00000000000E+00 0.  1.
        -24    2    1    2    0    0  0.11168700122E+03  0.63303320371E+02 -0.26797433151E+03  0.30774257593E+03  0.80087165502E+02 0.  0.
         25    2    1    2    0    0 -0.16390084539E+03 -0.10660686251E+03 -0.17333018703E+03  0.28968869007E+03  0.12509065977E+03 0.  0.
         24    2    1    2    0    0  0.52213844175E+02  0.43303542142E+02  0.15890323174E+03  0.19002155766E+03  0.79097869975E+02 0.  0.
        -11    1    5    5    0    0  0.36987241698E+01  0.43593577745E+02  0.32127098501E+02  0.54279195271E+02  0.00000000000E+00 0.  1.
         12    1    5    5    0    0  0.48515120006E+02 -0.29003560265E+00  0.12677613323E+03  0.13574236239E+03  0.00000000000E+00 0. -1.
         11    1    3    3    0    0  0.76212805676E+02  0.33525316244E+02 -0.84950024465E+02  0.11894891860E+03  0.00000000000E+00 0. -1.
        -12    1    3    3    0    0  0.35474195543E+02  0.29778004126E+02 -0.18302430704E+03  0.18879365733E+03  0.00000000000E+00 0.  1.
          5    1    4    4  501    0 -0.76452741770E+01 -0.32276461855E+02 -0.93086220594E+02  0.98907719980E+02  0.41800000000E+01 0. -1.
         -5    1    4    4    0  501 -0.15625557122E+03 -0.74330400658E+02 -0.80243966437E+02  0.19078097009E+03  0.41800000000E+01 0. -1.
</event>
<event>
11    1  0.8328696E-009  0.1313443E+03  0.7561462E-02  0.1117628E+00
         22   -1    0    0    0    0  0.00000000000E+00  0.00000000000E+00  0.24349512100E+03  0.24349512100E+03  0.00000000000E+00 0.  1.
         22   -1    0    0    0    0 -0.00000000000E+00 -0.00000000000E+00 -0.81906604782E+03  0.81906604782E+03  0.00000000000E+00 0.  1.
        -24    2    1    2    0    0  0.42180918146E+02  0.72197096593E+01 -0.57380752510E+03  0.58092277262E+03  0.79905180209E+02 0.  0.
         25    2    1    2    0    0 -0.20554666656E+02 -0.27968039245E+02 -0.21564183434E+03  0.25170020558E+03  0.12508751829E+03 0.  0.
         24    2    1    2    0    0 -0.21626251490E+02  0.20748329586E+02  0.21387843262E+03  0.22993819062E+03  0.78926545805E+02 0.  0.
        -11    1    5    5    0    0 -0.34634018954E+02  0.30847739459E+02  0.20693034807E+03  0.21206429980E+03  0.00000000000E+00 0.  1.
         12    1    5    5    0    0  0.13007767464E+02 -0.10099409873E+02  0.69480845538E+01  0.17873890823E+02  0.00000000000E+00 0. -1.
         13    1    3    3    0    0  0.12377236084E+02 -0.20786520780E+02 -0.50250792112E+02  0.55771117320E+02  0.00000000000E+00 0. -1.
        -14    1    3    3    0    0  0.29803682062E+02  0.28006230439E+02 -0.52355673299E+03  0.52515165530E+03  0.00000000000E+00 0.  1.
          5    1    4    4  501    0 -0.52816033617E+02  0.28588346207E+02 -0.71431039918E+02  0.93416769424E+02  0.41800000000E+01 0.  1.
         -5    1    4    4    0  501  0.32261366961E+02 -0.56556385452E+02 -0.14421079442E+03  0.15828343615E+03  0.41800000000E+01 0.  1.
</event>
<event>
11    1  0.8328696E-009  0.1454578E+03  0.7561462E-02  0.1101612E+00
         22   -1    0    0    0    0  0.00000000000E+00  0.00000000000E+00  0.15707360745E+03  0.15707360745E+03  0.00000000000E+00 0. -1.
         22   -1    0    0    0    0 -0.00000000000E+00 -0.00000000000E+00 -0.53838915568E+03  0.53838915568E+03  0.00000000000E+00 0.  1.
        -24    2    1    2    0    0  0.78938324211E+02  0.25114618226E+02 -0.25610015393E+03  0.28037447794E+03  0.78489209191E+02 0.  0.
         25    2    1    2    0    0 -0.63071579668E+02  0.21963522999E+01 -0.23623529698E+03  0.27465861973E+03  0.12508954284E+03 0.  0.
         24    2    1    2    0    0 -0.15866744543E+02 -0.27310970526E+02  0.11101990268E+03  0.14042966545E+03  0.79983932480E+02 0.  0.
        -11    1    5    5    0    0 -0.63983765033E+01 -0.11277121845E+02 -0.10996218157E+02  0.17000868000E+02  0.00000000000E+00 0.  1.
         12    1    5    5    0    0 -0.94683680399E+01 -0.16033848681E+02  0.12201612084E+03  0.12342879745E+03  0.00000000000E+00 0. -1.
         13    1    3    3    0    0 -0.78224816110E+01  0.25538987218E+02 -0.73697552645E+02  0.78388521816E+02  0.00000000000E+00 0. -1.
        -14    1    3    3    0    0  0.86760805822E+02 -0.42436899163E+00 -0.18240260129E+03  0.20198595613E+03  0.00000000000E+00 0.  1.
          5    1    4    4  501    0 -0.94539217037E+00 -0.86467149765E+00 -0.20478731105E+03  0.20483397323E+03  0.41800000000E+01 0. -1.
         -5    1    4    4    0  501 -0.62126187497E+02  0.30610237975E+01 -0.31447985928E+02  0.69824646498E+02  0.41800000000E+01 0. -1.
</event>
<event>
11    1  0.8328696E-009  0.3241726E+03  0.7561462E-02  0.9904499E-01
         22   -1    0    0    0    0  0.00000000000E+00  0.00000000000E+00  0.23461145130E+04  0.23461145130E+04  0.00000000000E+00 0.  1.
         22   -1    0    0    0    0 -0.00000000000E+00 -0.00000000000E+00 -0.48346751778E+03  0.48346751778E+03  0.00000000000E+00 0.  1.
         24    2    1    2    0    0  0.14369488793E+03  0.22996571069E+03 -0.26409471954E+03  0.38677610930E+03  0.79481374695E+02 0.  0.
         25    2    1    2    0    0 -0.23666201548E+03 -0.45814563260E+03  0.32448354573E+03  0.62196751460E+03  0.12509071722E+03 0.  0.
        -24    2    1    2    0    0  0.92967127550E+02  0.22817992191E+03  0.18022581690E+04  0.18208384068E+04  0.81295956507E+02 0.  0.
        -13    1    3    3    0    0  0.83166443704E+02  0.10667625475E+03 -0.80203098003E+02  0.15725462669E+03  0.00000000000E+00 0.  1.
         14    1    3    3    0    0  0.60528444226E+02  0.12328945593E+03 -0.18389162154E+03  0.22952148260E+03  0.00000000000E+00 0. -1.
         11    1    5    5    0    0  0.36113441564E+02  0.19189795207E+02  0.21305010303E+03  0.21693956602E+03  0.00000000000E+00 0. -1.
        -12    1    5    5    0    0  0.56853685986E+02  0.20899012670E+03  0.15892080660E+04  0.16038988408E+04  0.00000000000E+00 0.  1.
          5    1    4    4  501    0 -0.34628466034E+02 -0.81896052834E+01  0.34778607755E+02  0.49932196546E+02  0.41800000000E+01 0.  1.
         -5    1    4    4    0  501 -0.20203354945E+03 -0.44995602731E+03  0.28970493797E+03  0.57203531806E+03  0.41800000000E+01 0.  1.
</event>
<event>
11    1  0.8328696E-009  0.1669278E+03  0.7561462E-02  0.1080737E+00
         22   -1    0    0    0    0  0.00000000000E+00  0.00000000000E+00  0.19636848887E+03  0.19636848887E+03  0.00000000000E+00 0. -1.
         22   -1    0    0    0    0 -0.00000000000E+00 -0.00000000000E+00 -0.11052493741E+04  0.11052493741E+04  0.00000000000E+00 0. -1.
        -24    2    1    2    0    0  0.80261984377E+02 -0.10013699384E+03 -0.74175227050E+03  0.75685802456E+03  0.78538110933E+02 0.  0.
         25    2    1    2    0    0 -0.73466886021E+02  0.31184845138E+02 -0.32353024859E+03  0.35593448760E+03  0.12509060637E+03 0.  0.
         24    2    1    2    0    0 -0.67950983564E+01  0.68952148704E+02  0.15640163386E+03  0.18882535083E+03  0.79956049607E+02 0.  0.
        -11    1    5    5    0    0  0.32265876004E+02  0.11711054856E+02  0.34905616862E+02  0.48955465973E+02  0.00000000000E+00 0.  1.
         12    1    5    5    0    0 -0.39060974361E+02  0.57241093848E+02  0.12149601700E+03  0.13986988485E+03  0.00000000000E+00 0. -1.
         13    1    3    3    0    0  0.47471870893E+02 -0.22434794089E+02 -0.45325455061E+03  0.45628564097E+03  0.00000000000E+00 0. -1.
        -14    1    3    3    0    0  0.32790113484E+02 -0.77702199752E+02 -0.28849771990E+03  0.30057238359E+03  0.00000000000E+00 0.  1.
          5    1    4    4  501    0 -0.37346969757E+02 -0.28642409397E+02 -0.34394454522E+02  0.58443431350E+02  0.41800000000E+01 0. -1.
         -5    1    4    4    0  501 -0.36119916263E+02  0.59827254535E+02 -0.28913579407E+03  0.29749105625E+03  0.41800000000E+01 0. -1.
</event>
<event>
11    1  0.8328696E-009  0.1504886E+03  0.7561462E-02  0.1096381E+00
         22   -1    0    0    0    0  0.00000000000E+00  0.00000000000E+00  0.35263738173E+03  0.35263738173E+03  0.00000000000E+00 0.  1.
         22   -1    0    0    0    0 -0.00000000000E+00 -0.00000000000E+00 -0.16186393918E+04  0.16186393918E+04  0.00000000000E+00 0. -1.
         24    2    1    2    0    0  0.25618186685E+02 -0.34174956266E+01 -0.15658837287E+04  0.15684598744E+04  0.86061345016E+02 0.  0.
         25    2    1    2    0    0 -0.86514353705E+02  0.47595714603E+02  0.16196171434E+03  0.22721390356E+03  0.12507787820E+03 0.  0.
        -24    2    1    2    0    0  0.60896167020E+02 -0.44178218976E+02  0.13792000426E+03  0.17560299558E+03  0.78450151639E+02 0.  0.
        -11    1    3    3    0    0  0.28471338068E+00 -0.36738999960E+02 -0.36445119625E+03  0.36629838879E+03  0.00000000000E+00 0.  1.
         12    1    3    3    0    0  0.25333473304E+02  0.33321504333E+02 -0.12014325324E+04  0.12021614856E+04  0.00000000000E+00 0. -1.
         11    1    5    5    0    0 -0.11575998742E+02  0.11538473487E+02  0.30056939933E+02  0.34213444074E+02  0.00000000000E+00 0. -1.
        -12    1    5    5    0    0  0.72472165762E+02 -0.55716692463E+02  0.10786306433E+03  0.14138955151E+03  0.00000000000E+00 0.  1.
          5    1    4    4  501    0 -0.84075100827E+02  0.72626787562E+02  0.69069734896E+02  0.13088687302E+03  0.41800000000E+01 0.  1.
         -5    1    4    4    0  501 -0.24392528783E+01 -0.25031072959E+02  0.92891979441E+02  0.96327030539E+02  0.41800000000E+01 0.  1.
</event>
<event>
11    1  0.1087262E-008  0.1904288E+03  0.7561462E-02  0.1061506E+00
         22   -1    0    0    0    0  0.00000000000E+00  0.00000000000E+00  0.56466500861E+03  0.56466500861E+03  0.00000000000E+00 0.  1.
         22   -1    0    0    0    0 -0.00000000000E+00 -0.00000000000E+00 -0.38635512770E+03  0.38635512770E+03  0.00000000000E+00 0.  1.
        -24    2    1    2    0    0  0.12656500119E+02 -0.49706147471E+02 -0.19544466237E+03  0.21750276911E+03  0.80485715681E+02 0.  0.
         25    2    1    2    0    0 -0.63367162328E+01  0.18937417254E+03 -0.88473685245E+02  0.24367478104E+03  0.12508826778E+03 0.  0.
         24    2    1    2    0    0 -0.63197838865E+01 -0.13966802506E+03  0.46222822854E+03  0.48984258616E+03  0.82120198921E+02 0.  0.
        -11    1    5    5    0    0  0.93057108896E+01 -0.14300485559E+03  0.38105182315E+03  0.40710867947E+03  0.00000000000E+00 0.  1.
         12    1    5    5    0    0 -0.15625494776E+02  0.33368305226E+01  0.81176405387E+02  0.82733906692E+02  0.00000000000E+00 0. -1.
         11    1    3    3    0    0 -0.10048859117E+02  0.19469163527E+02 -0.57317297652E+02  0.61362044523E+02  0.00000000000E+00 0. -1.
        -12    1    3    3    0    0  0.22705359236E+02 -0.69175310997E+02 -0.13812736472E+03  0.15614072459E+03  0.00000000000E+00 0.  1.
          5    1    4    4  501    0 -0.28262165830E+01 -0.12726287041E+02 -0.30376186076E+02  0.33318627861E+02  0.41800000000E+01 0.  1.
         -5    1    4    4    0  501 -0.35104996498E+01  0.20210045958E+03 -0.58097499169E+02  0.21035615317E+03  0.41800000000E+01 0.  1.
</event>
<event>
11    1  0.8328696E-009  0.1395597E+03  0.7561462E-02  0.1108051E+00
         22   -1    0    0    0    0  0.00000000000E+00  0.00000000000E+00  0.63442368873E+03  0.63442368873E+03  0.00000000000E+00 0.  1.
         22   -1    0    0    0    0 -0.00000000000E+00 -0.00000000000E+00 -0.18821196329E+03  0.18821196329E+03  0.00000000000E+00 0. -1.
        -24    2    1    2    0    0 -0.16100357399E+02  0.58485586885E+02 -0.14880154178E+03  0.17984242788E+03  0.80756514589E+02 0.  0.
         25    2    1    2    0    0  0.10407856289E+02 -0.91264060997E+02  0.35177295411E+03  0.38448573561E+03  0.12509043668E+03 0.  0.
         24    2    1    2    0    0  0.56925011106E+01  0.32778474113E+02  0.24324031312E+03  0.25830748852E+03  0.80312363708E+02 0.  0.
        -11    1    5    5    0    0 -0.13640850096E+02  0.32696648714E+02  0.23437634667E+03  0.23703884809E+03  0.00000000000E+00 0.  1.
         12    1    5    5    0    0  0.19333351207E+02  0.81825398839E-01  0.88639664521E+01  0.21268640425E+02  0.00000000000E+00 0. -1.
         13    1    3    3    0    0  0.14954467105E+02 -0.70147116818E+01 -0.73446806198E+02  0.75281309813E+02  0.00000000000E+00 0. -1.
        -14    1    3    3    0    0 -0.31054824504E+02  0.65500298566E+02 -0.75354735583E+02  0.10456111807E+03  0.00000000000E+00 0.  1.
          5    1    4    4  501    0  0.31592617495E+02  0.18616772971E+02  0.46790779075E+02  0.59594690389E+02  0.41800000000E+01 0.  1.
         -5    1    4    4    0  501 -0.21184761206E+02 -0.10988083397E+03  0.30498217503E+03  0.32489104522E+03  0.41800000000E+01 0.  1.
</event>
<event>
11    1  0.8328696E-009  0.1538890E+03  0.7561462E-02  0.1092970E+00
         22   -1    0    0    0    0  0.00000000000E+00  0.00000000000E+00  0.16571298419E+04  0.16571298419E+04  0.00000000000E+00 0.  1.
         22   -1    0    0    0    0 -0.00000000000E+00 -0.00000000000E+00 -0.89547660631E+02  0.89547660631E+02  0.00000000000E+00 0.  1.
        -24    2    1    2    0    0  0.46972131163E+02  0.72622108040E+01 -0.43910785249E+02  0.10346962296E+03  0.80738373786E+02 0.  0.
         25    2    1    2    0    0  0.19629989858E+01  0.74706652666E+02  0.40740908316E+03  0.43268600396E+03  0.12510027845E+03 0.  0.
         24    2    1    2    0    0 -0.48935130149E+02 -0.81968863471E+02  0.12040838834E+04  0.12105218756E+04  0.80197703351E+02 0.  0.
        -13    1    5    5    0    0 -0.38733055046E+02 -0.20888690978E+02  0.84440660418E+03  0.84555254133E+03  0.00000000000E+00 0.  1.
         14    1    5    5    0    0 -0.10202075103E+02 -0.61080172493E+02  0.35967727920E+03  0.36496933430E+03  0.00000000000E+00 0. -1.
         13    1    3    3    0    0  0.36646085129E+02  0.32839866313E+02  0.27294891622E+01  0.49283288099E+02  0.00000000000E+00 0. -1.
        -14    1    3    3    0    0  0.10326046034E+02 -0.25577655509E+02 -0.46640274412E+02  0.54186334857E+02  0.00000000000E+00 0.  1.
          5    1    4    4  501    0  0.54022106099E+02  0.75714654170E+02  0.27568953328E+03  0.29098674878E+03  0.41800000000E+01 0. -1.
         -5    1    4    4    0  501 -0.52059107114E+02 -0.10080015034E+01  0.13171954987E+03  0.14169925518E+03  0.41800000000E+01 0. -1.
</event>
<event>
11    1  0.8647319E-009  0.1398105E+03  0.7561462E-02  0.1107770E+00
         22   -1    0    0    0    0  0.00000000000E+00  0.00000000000E+00  0.25717527146E+04  0.25717527146E+04  0.00000000000E+00 0.  1.
         22   -1    0    0    0    0 -0.00000000000E+00 -0.00000000000E+00 -0.11504972477E+04  0.11504972477E+04  0.00000000000E+00 0.  1.
         24    2    1    2    0    0 -0.51826198180E+01 -0.63164885697E+01 -0.94129511497E+03  0.94477579357E+03  0.80610477468E+02 0.  0.
         25    2    1    2    0    0 -0.12531085452E+02  0.66168620840E+02 -0.18199929428E+03  0.23088342215E+03  0.12509235397E+03 0.  0.
        -24    2    1    2    0    0  0.17713705270E+02 -0.59852132271E+02  0.25445498761E+04  0.25465907466E+04  0.80587252557E+02 0.  0.
        -13    1    3    3    0    0 -0.13219748913E+02 -0.30980475649E+01 -0.93190395550E+03  0.93200286584E+03  0.00000000000E+00 0.  1.
         14    1    3    3    0    0  0.80371290950E+01 -0.32184410048E+01 -0.93911594647E+01  0.12772927726E+02  0.00000000000E+00 0. -1.
         13    1    5    5    0    0  0.37814021349E+02 -0.12308015261E+02  0.57940774074E+03  0.58077079599E+03  0.00000000000E+00 0. -1.
        -14    1    5    5    0    0 -0.20100316080E+02 -0.47544117010E+02  0.19651421354E+04  0.19658199506E+04  0.00000000000E+00 0.  1.
          5    1    4    4  501    0  0.50034681750E+01 -0.71296590981E+01  0.16163846966E+02  0.18831066921E+02  0.41800000000E+01 0.  1.
         -5    1    4    4    0  501 -0.17534553627E+02  0.73298279938E+02 -0.19816314124E+03  0.21205235523E+03  0.41800000000E+01 0.  1.
</event>
<event>
11    1  0.8328696E-009  0.1522266E+03  0.7561462E-02  0.1094625E+00
         22   -1    0    0    0    0  0.00000000000E+00  0.00000000000E+00  0.21395291307E+04  0.21395291307E+04  0.00000000000E+00 0.  1.
         22   -1    0    0    0    0 -0.00000000000E+00 -0.00000000000E+00 -0.49315328292E+02  0.49315328292E+02  0.00000000000E+00 0.  1.
         24    2    1    2    0    0 -0.27962255793E+02 -0.76360509673E+02  0.65892665846E+02  0.13105487399E+03  0.78871549988E+02 0.  0.
         25    2    1    2    0    0  0.27280012186E+02  0.10885070641E+03  0.43818527742E+03  0.46930536997E+03  0.12509403496E+03 0.  0.
        -24    2    1    2    0    0  0.68224360762E+00 -0.32490196736E+02  0.15861358591E+04  0.15884842150E+04  0.79994121173E+02 0.  0.
        -13    1    3    3    0    0 -0.31752411700E+02 -0.80639310186E+02  0.25612256570E+02  0.90370911706E+02  0.00000000000E+00 0.  1.
         14    1    3    3    0    0  0.37901559063E+01  0.42788005130E+01  0.40280409276E+02  0.40683962283E+02  0.00000000000E+00 0. -1.
         11    1    5    5    0    0  0.33623913821E+02 -0.20753304702E+02  0.42787524920E+03  0.42969581813E+03  0.00000000000E+00 0. -1.
        -12    1    5    5    0    0 -0.32941670213E+02 -0.11736892034E+02  0.11582606099E+04  0.11587883969E+04  0.00000000000E+00 0.  1.
          5    1    4    4  501    0 -0.34788941498E+02  0.12349823431E+02  0.21637134103E+03  0.21953773755E+03  0.41800000000E+01 0.  1.
         -5    1    4    4    0  501  0.62068953683E+02  0.96500882978E+02  0.22181393639E+03  0.24976763242E+03  0.41800000000E+01 0.  1.
</event>
<event>
11    1  0.8328696E-009  0.1587816E+03  0.7561462E-02  0.1088229E+00
         22   -1    0    0    0    0  0.00000000000E+00  0.00000000000E+00  0.21008944019E+03  0.21008944019E+03  0.00000000000E+00 0.  1.
         22   -1    0    0    0    0 -0.00000000000E+00 -0.00000000000E+00 -0.14140408766E+04  0.14140408766E+04  0.00000000000E+00 0. -1.
         24    2    1    2    0    0  0.19293628290E+02 -0.88882422744E+02 -0.98992488994E+03  0.99725189716E+03  0.79295204802E+02 0.  0.
         25    2    1    2    0    0 -0.68052432348E+02  0.12686277177E+03 -0.38444080341E+03  0.42914788849E+03  0.12509149635E+03 0.  0.
        -24    2    1    2    0    0  0.48758804058E+02 -0.37980349024E+02  0.17041425690E+03  0.19773053119E+03  0.78970982795E+02 0.  0.
        -13    1    3    3    0    0  0.15321255285E+02  0.62140045812E+01 -0.33923842559E+03  0.33964108131E+03  0.00000000000E+00 0.  1.
         14    1    3    3    0    0  0.39723730057E+01 -0.95096427326E+02 -0.65068646435E+03  0.65761081585E+03  0.00000000000E+00 0. -1.
         13    1    5    5    0    0  0.23707564804E+02 -0.55992412085E+02  0.70190913239E+02  0.92865295678E+02  0.00000000000E+00 0. -1.
        -14    1    5    5    0    0  0.25051239254E+02  0.18012063061E+02  0.10022334366E+03  0.10486523551E+03  0.00000000000E+00 0.  1.
          5    1    4    4  501    0 -0.89776398961E+01  0.13094770581E+03 -0.26841280186E+03  0.29881566939E+03  0.41800000000E+01 0. -1.
         -5    1    4    4    0  501 -0.59074792452E+02 -0.40849340449E+01 -0.11602800156E+03  0.13033221910E+03  0.41800000000E+01 0. -1.
</event>
<event>
11    1  0.8328696E-009  0.1573752E+03  0.7561462E-02  0.1089572E+00
         22   -1    0    0    0    0  0.00000000000E+00  0.00000000000E+00  0.13092053405E+03  0.13092053405E+03  0.00000000000E+00 0.  1.
         22   -1    0    0    0    0 -0.00000000000E+00 -0.00000000000E+00 -0.14425157003E+04  0.14425157003E+04  0.00000000000E+00 0. -1.
        -24    2    1    2    0    0  0.58915691505E+02 -0.70885922918E+02 -0.11566744634E+04  0.11632142173E+04  0.81704519243E+02 0.  0.
         25    2    1    2    0    0 -0.51135452704E+02  0.12324809099E+03 -0.22713087129E+03  0.29161892501E+03  0.12509291857E+03 0.  0.
         24    2    1    2    0    0 -0.77802388006E+01 -0.52362168069E+02  0.72210168405E+02  0.11860309199E+03  0.77782107503E+02 0.  0.
        -13    1    5    5    0    0 -0.13597564541E+02 -0.40913350146E+02  0.88153067679E+02  0.98131337109E+02  0.00000000000E+00 0.  1.
         14    1    5    5    0    0  0.58173257405E+01 -0.11448817924E+02 -0.15942899274E+02  0.20471754880E+02  0.00000000000E+00 0. -1.
         13    1    3    3    0    0  0.56642772900E+02 -0.51828231657E+02 -0.11112818553E+04  0.11139308467E+04  0.00000000000E+00 0. -1.
        -14    1    3    3    0    0  0.22729186054E+01 -0.19057691261E+02 -0.45392608080E+02  0.49283370659E+02  0.00000000000E+00 0.  1.
          5    1    4    4  501    0  0.14371364377E+01  0.87924877584E+02 -0.20713769753E+03  0.22506965055E+03  0.41800000000E+01 0.  1.
         -5    1    4    4    0  501 -0.52572589142E+02  0.35323213404E+02 -0.19993173754E+02  0.66549274459E+02  0.41800000000E+01 0.  1.
</event>
<event>
11    1  0.8328696E-009  0.3501075E+03  0.7561462E-02  0.9809646E-01
         22   -1    0    0    0    0  0.00000000000E+00  0.00000000000E+00  0.10549424437E+04  0.10549424437E+04  0.00000000000E+00 0. -1.
         22   -1    0    0    0    0 -0.00000000000E+00 -0.00000000000E+00 -0.64713457002E+03  0.64713457002E+03  0.00000000000E+00 0. -1.
        -24    2    1    2    0    0  0.51877689225E+02  0.24568023838E+02 -0.11855574723E+03  0.15379866263E+03  0.79395724020E+02 0.  0.
         25    2    1    2    0    0  0.27370915774E+03 -0.76471208105E+02 -0.43174136600E+03  0.53180154123E+03  0.12509086076E+03 0.  0.
         24    2    1    2    0    0 -0.32558684697E+03  0.51903184267E+02  0.95810498687E+03  0.10164768098E+04  0.80988910350E+02 0.  0.
        -13    1    5    5    0    0 -0.20876644061E+02 -0.16959709663E+02  0.66830277248E+02  0.72039933205E+02  0.00000000000E+00 0.  1.
         14    1    5    5    0    0 -0.30471020291E+03  0.68862893931E+02  0.89127470962E+03  0.94443687662E+03  0.00000000000E+00 0. -1.
         11    1    3    3    0    0  0.67144033228E+02  0.70381700610E+01 -0.58250233132E+02  0.89168081150E+02  0.00000000000E+00 0. -1.
        -12    1    3    3    0    0 -0.15266344003E+02  0.17529853777E+02 -0.60305514095E+02  0.64630581484E+02  0.00000000000E+00 0.  1.
          5    1    4    4  501    0  0.14559444000E+03 -0.10369076903E+03 -0.26623633577E+03  0.32070044500E+03  0.41800000000E+01 0.  1.
         -5    1    4    4    0  501  0.12811471774E+03  0.27219560927E+02 -0.16550503023E+03  0.21110109623E+03  0.41800000000E+01 0.  1.
</event>
<event>
11    1  0.8328696E-009  0.1495286E+03  0.7561462E-02  0.1097361E+00
         22   -1    0    0    0    0  0.00000000000E+00  0.00000000000E+00  0.10838196595E+04  0.10838196595E+04  0.00000000000E+00 0.  1.
         22   -1    0    0    0    0 -0.00000000000E+00 -0.00000000000E+00 -0.95029064250E+02  0.95029064250E+02  0.00000000000E+00 0.  1.
        -24    2    1    2    0    0 -0.36093090172E+01  0.20548790613E+02 -0.55472827858E+02  0.10030847567E+03  0.80927595748E+02 0.  0.
         25    2    1    2    0    0  0.82315832780E+02 -0.31604744111E+02  0.50363664181E+03  0.52637728277E+03  0.12509364756E+03 0.  0.
         24    2    1    2    0    0 -0.78706523763E+02  0.11055953498E+02  0.54062678124E+03  0.55216296526E+03  0.79307456259E+02 0.  0.
        -13    1    5    5    0    0 -0.81145963028E+02 -0.97867710757E+01  0.49786594104E+03  0.50453041876E+03  0.00000000000E+00 0.  1.
         14    1    5    5    0    0  0.24394392658E+01  0.20842724573E+02  0.42760840204E+02  0.47632546504E+02  0.00000000000E+00 0. -1.
         11    1    3    3    0    0 -0.10725933536E+02  0.45422313518E+02 -0.96084496539E+01  0.47650335993E+02  0.00000000000E+00 0. -1.
        -12    1    3    3    0    0  0.71166245192E+01 -0.24873522905E+02 -0.45864378204E+02  0.52658139678E+02  0.00000000000E+00 0.  1.
          5    1    4    4  501    0  0.23199587008E+01  0.42260746636E+02  0.17731339985E+03  0.18234271875E+03  0.41800000000E+01 0.  1.
         -5    1    4    4    0  501  0.79995874079E+02 -0.73865490747E+02  0.32632324196E+03  0.34403456401E+03  0.41800000000E+01 0.  1.
</event>
<event>
11    1  0.8328696E-009  0.1654797E+03  0.7561462E-02  0.1082034E+00
         22   -1    0    0    0    0  0.00000000000E+00  0.00000000000E+00  0.93643370302E+03  0.93643370302E+03  0.00000000000E+00 0. -1.
         22   -1    0    0    0    0 -0.00000000000E+00 -0.00000000000E+00 -0.33233103090E+03  0.33233103090E+03  0.00000000000E+00 0.  1.
        -24    2    1    2    0    0 -0.91347872598E+02  0.42747301086E+02 -0.22396010871E+03  0.25822380503E+03  0.79684613395E+02 0.  0.
         25    2    1    2    0    0  0.14969296861E+03 -0.55537455195E+02  0.28488154912E+02  0.20482241938E+03  0.12509298434E+03 0.  0.
         24    2    1    2    0    0 -0.58345096009E+02  0.12790154109E+02  0.79957462592E+03  0.80571850951E+03  0.79341010024E+02 0.  0.
        -13    1    5    5    0    0  0.10423638188E+02 -0.47608849143E+01  0.38079178557E+03  0.38096417446E+03  0.00000000000E+00 0.  1.
         14    1    5    5    0    0 -0.68768734197E+02  0.17551039024E+02  0.41878284035E+03  0.42475433505E+03  0.00000000000E+00 0. -1.
         11    1    3    3    0    0 -0.12738890177E+02  0.33604758174E+02 -0.13245492134E+03  0.13724381691E+03  0.00000000000E+00 0. -1.
        -12    1    3    3    0    0 -0.78608982421E+02  0.91425429113E+01 -0.91505187379E+02  0.12097998812E+03  0.00000000000E+00 0.  1.
          5    1    4    4  501    0 -0.21653311920E+00  0.21502470977E+02  0.28848968630E+02  0.36223452841E+02  0.41800000000E+01 0. -1.
         -5    1    4    4    0  501  0.14990950173E+03 -0.77039926172E+02 -0.36081371840E+00  0.16859896654E+03  0.41800000000E+01 0. -1.
</event>
<event>
11    1  0.8328696E-009  0.1604450E+03  0.7561462E-02  0.1086660E+00
         22   -1    0    0    0    0  0.00000000000E+00  0.00000000000E+00  0.91826413342E+03  0.91826413342E+03  0.00000000000E+00 0.  1.
         22   -1    0    0    0    0 -0.00000000000E+00 -0.00000000000E+00 -0.53440318365E+03  0.53440318365E+03  0.00000000000E+00 0.  1.
         24    2    1    2    0    0  0.81062447576E+02 -0.14909263351E+02 -0.43809276146E+03  0.45354541640E+03  0.83574939758E+02 0.  0.
         25    2    1    2    0    0 -0.17550134384E+03  0.30695730284E+02  0.58372370732E+02  0.22538389546E+03  0.12509043577E+03 0.  0.
        -24    2    1    2    0    0  0.94438896264E+02 -0.15786466933E+02  0.76358134049E+03  0.77373800521E+03  0.80287729407E+02 0.  0.
        -11    1    3    3    0    0 -0.47636066488E+01  0.99231895989E+01 -0.18166321867E+03  0.18199639188E+03  0.00000000000E+00 0.  1.
         12    1    3    3    0    0  0.85826054225E+02 -0.24832452950E+02 -0.25642954279E+03  0.27154902452E+03  0.00000000000E+00 0. -1.
         13    1    5    5    0    0  0.44404907290E+02  0.31539549327E+02  0.40002225313E+03  0.40371319270E+03  0.00000000000E+00 0. -1.
        -14    1    5    5    0    0  0.50033988974E+02 -0.47326016260E+02  0.36355908737E+03  0.37002481251E+03  0.00000000000E+00 0.  1.
          5    1    4    4  501    0 -0.76498220135E+02  0.14536575366E+02  0.90976154411E+02  0.11982246358E+03  0.41800000000E+01 0.  1.
         -5    1    4    4    0  501 -0.99003123706E+02  0.16159154918E+02 -0.32603783679E+02  0.10556143188E+03  0.41800000000E+01 0.  1.
</event>
<event>
11    1  0.8328696E-009  0.1348734E+03  0.7561462E-02  0.1113422E+00
         22   -1    0    0    0    0  0.00000000000E+00  0.00000000000E+00  0.68733310184E+03  0.68733310184E+03  0.00000000000E+00 0.  1.
         22   -1    0    0    0    0 -0.00000000000E+00 -0.00000000000E+00 -0.21142165097E+03  0.21142165097E+03  0.00000000000E+00 0. -1.
         24    2    1    2    0    0 -0.46983716905E+02 -0.94712623839E+01 -0.13213409215E+03  0.16185492656E+03  0.80252255272E+02 0.  0.
         25    2    1    2    0    0  0.59385026739E+02  0.27659018157E+02  0.19778745294E+02  0.14258764555E+03  0.12509370573E+03 0.  0.
        -24    2    1    2    0    0 -0.12401309834E+02 -0.18187755773E+02  0.58826679773E+03  0.59431218070E+03  0.81636731109E+02 0.  0.
        -13    1    3    3    0    0 -0.12793799077E+02  0.28114190887E+02 -0.15340648956E+02  0.34488034656E+02  0.00000000000E+00 0.  1.
         14    1    3    3    0    0 -0.34189917829E+02 -0.37585453271E+02 -0.11679344320E+03  0.12736689190E+03  0.00000000000E+00 0. -1.
         13    1    5    5    0    0 -0.20622604270E+02  0.11322179311E+02  0.50567991622E+03  0.50622688710E+03  0.00000000000E+00 0. -1.
        -14    1    5    5    0    0  0.82212944367E+01 -0.29509935084E+02  0.82586881510E+02  0.88085293599E+02  0.00000000000E+00 0.  1.
          5    1    4    4  501    0  0.34272148572E+02 -0.46037687078E+02 -0.11312497433E+02  0.58647197695E+02  0.41800000000E+01 0.  1.
         -5    1    4    4    0  501  0.25112878167E+02  0.73696705235E+02  0.31091242727E+02  0.83940447859E+02  0.41800000000E+01 0.  1.
</event>
<event>
11    1  0.8328696E-009  0.1425957E+03  0.7561462E-02  0.1104694E+00
         22   -1    0    0    0    0  0.00000000000E+00  0.00000000000E+00  0.29770287229E+04  0.29770287229E+04  0.00000000000E+00 0.  1.
         22   -1    0    0    0    0 -0.00000000000E+00 -0.00000000000E+00 -0.91593484759E+03  0.91593484759E+03  0.00000000000E+00 0.  1.
        -24    2    1    2    0    0  0.13781088706E+02 -0.12029576962E+02 -0.83000871079E+03  0.83393229536E+03  0.78701868687E+02 0.  0.
         25    2    1    2    0    0 -0.24003190287E+02 -0.55770303922E+02 -0.24779789752E+02  0.14123760856E+03  0.12509014409E+03 0.  0.
         24    2    1    2    0    0  0.10222101581E+02  0.67799880884E+02  0.29158823759E+04  0.29177936666E+04  0.80302775118E+02 0.  0.
        -13    1    5    5    0    0 -0.27418257600E+02  0.43171871536E+02  0.21381709949E+04  0.21387825450E+04  0.00000000000E+00 0.  1.
         14    1    5    5    0    0  0.37640359181E+02  0.24628009349E+02  0.77771138102E+03  0.77901112164E+03  0.00000000000E+00 0. -1.
         13    1    3    3    0    0 -0.10655110677E+02  0.11713000613E+02 -0.37686166113E+02  0.40877535190E+02  0.00000000000E+00 0. -1.
        -14    1    3    3    0    0  0.24436199383E+02 -0.23742577575E+02 -0.79232254467E+03  0.79305476017E+03  0.00000000000E+00 0.  1.
          5    1    4    4  501    0 -0.52361794119E+02 -0.83797536869E+02 -0.15802486810E+02  0.10015475854E+03  0.41800000000E+01 0. -1.
         -5    1    4    4    0  501  0.28358603831E+02  0.28027232947E+02 -0.89773029423E+01  0.41082850023E+02  0.41800000000E+01 0. -1.
</event>
<event>
11    1  0.8328696E-009  0.2893737E+03  0.7561462E-02  0.1004792E+00
         22   -1    0    0    0    0  0.00000000000E+00  0.00000000000E+00  0.12640772703E+04  0.12640772703E+04  0.00000000000E+00 0.  1.
         22   -1    0    0    0    0 -0.00000000000E+00 -0.00000000000E+00 -0.13582889397E+03  0.13582889397E+03  0.00000000000E+00 0. -1.
        -24    2    1    2    0    0 -0.25449543773E+03 -0.24795506385E+03  0.50874749263E+03  0.62563497593E+03  0.79658460489E+02 0.  0.
         25    2    1    2    0    0  0.84797765343E+02  0.20291659657E+03  0.24107564278E+03  0.34947199906E+03  0.12508959354E+03 0.  0.
         24    2    1    2    0    0  0.16969767239E+03  0.45038467287E+02  0.37842524087E+03  0.42479918924E+03  0.80143151316E+02 0.  0.
        -13    1    5    5    0    0  0.17332800767E+03  0.36839546697E+02  0.37575811475E+03  0.41544423362E+03  0.00000000000E+00 0.  1.
         14    1    5    5    0    0 -0.36303352782E+01  0.81989205895E+01  0.26671261215E+01  0.93549556286E+01  0.00000000000E+00 0. -1.
         11    1    3    3    0    0 -0.11266209894E+03 -0.16339683994E+03  0.26071976399E+03  0.32766762302E+03  0.00000000000E+00 0. -1.
        -12    1    3    3    0    0 -0.14183333879E+03 -0.84558223916E+02  0.24802772864E+03  0.29796735291E+03  0.00000000000E+00 0.  1.
          5    1    4    4  501    0  0.24853179992E+02  0.10581968714E+03  0.20083426702E+03  0.22840175557E+03  0.41800000000E+01 0. -1.
         -5    1    4    4    0  501  0.59944585351E+02  0.97096909429E+02  0.40241375766E+02  0.12107024348E+03  0.41800000000E+01 0. -1.
</event>
<event>
11    1  0.8328696E-009  0.1489795E+03  0.7561462E-02  0.1097926E+00
         22   -1    0    0    0    0  0.00000000000E+00  0.00000000000E+00  0.13700404201E+04  0.13700404201E+04  0.00000000000E+00 0. -1.
         22   -1    0    0    0    0 -0.00000000000E+00 -0.00000000000E+00 -0.39861751285E+03  0.39861751285E+03  0.00000000000E+00 0.  1.
        -24    2    1    2    0    0  0.65139944312E+02  0.46891497453E+02 -0.35864583063E+03  0.37551060726E+03  0.77067239875E+02 0.  0.
         25    2    1    2    0    0 -0.10023895939E+03 -0.28393627192E+02  0.19603652628E+03  0.25481924536E+03  0.12509388924E+03 0.  0.
         24    2    1    2    0    0  0.35099015078E+02 -0.18497870261E+02  0.11340322116E+04  0.11383280803E+04  0.90485631303E+02 0.  0.
        -13    1    5    5    0    0 -0.13989255917E+02  0.10040502168E+02  0.51395683919E+02  0.54203572672E+02  0.00000000000E+00 0.  1.
         14    1    5    5    0    0  0.49088270995E+02 -0.28538372428E+02  0.10826365276E+04  0.10841245076E+04  0.00000000000E+00 0. -1.
         13    1    3    3    0    0 -0.11729172129E+02  0.36144174890E+01 -0.12773465497E+03  0.12832295030E+03  0.00000000000E+00 0. -1.
        -14    1    3    3    0    0  0.76869116441E+02  0.43277079964E+02 -0.23091117566E+03  0.24718765696E+03  0.00000000000E+00 0.  1.
          5    1    4    4  501    0  0.13670397661E+02 -0.16355969213E+02 -0.59981871162E+01  0.22535486455E+02  0.41800000000E+01 0. -1.
         -5    1    4    4    0  501 -0.11390935705E+03 -0.12037657979E+02  0.20203471339E+03  0.23228375890E+03  0.41800000000E+01 0. -1.
</event>
<event>
11    1  0.8328696E-009  0.1595892E+03  0.7561462E-02  0.1087464E+00
         22   -1    0    0    0    0  0.00000000000E+00  0.00000000000E+00  0.34862585678E+03  0.34862585678E+03  0.00000000000E+00 0. -1.
         22   -1    0    0    0    0 -0.00000000000E+00 -0.00000000000E+00 -0.37831179109E+04  0.37831179109E+04  0.00000000000E+00 0. -1.
        -24    2    1    2    0    0 -0.26517411625E+02  0.41782760191E+02 -0.31096720467E+04  0.31111854186E+04  0.83459562555E+02 0.  0.
         25    2    1    2    0    0  0.71372896996E+02 -0.12920273710E+03 -0.64709470273E+03  0.67540211389E+03  0.12509605691E+03 0.  0.
         24    2    1    2    0    0 -0.44855485371E+02  0.87419976911E+02  0.32227469538E+03  0.34515623513E+03  0.74950519932E+02 0.  0.
        -13    1    5    5    0    0 -0.47736476603E+02  0.30313289329E+02  0.92856452873E+02  0.10871976614E+03  0.00000000000E+00 0.  1.
         14    1    5    5    0    0  0.28809912323E+01  0.57106687582E+02  0.22941824250E+03  0.23643646899E+03  0.00000000000E+00 0. -1.
         11    1    3    3    0    0  0.18719051908E+02  0.17797151507E+02 -0.21449956494E+04  0.21451511549E+04  0.00000000000E+00 0. -1.
        -12    1    3    3    0    0 -0.45236463533E+02  0.23985608684E+02 -0.96467639735E+03  0.96603426371E+03  0.00000000000E+00 0.  1.
          5    1    4    4  501    0 -0.14711454822E+02  0.13356730703E+02 -0.14447763958E+03  0.14589753218E+03  0.41800000000E+01 0. -1.
         -5    1    4    4    0  501  0.86084351817E+02 -0.14255946780E+03 -0.50261706314E+03  0.52950458171E+03  0.41800000000E+01 0. -1.
</event>
<event>
11    1  0.8328696E-009  0.1353900E+03  0.7561462E-02  0.1112818E+00
         22   -1    0    0    0    0  0.00000000000E+00  0.00000000000E+00  0.78695486580E+03  0.78695486580E+03  0.00000000000E+00 0. -1.
         22   -1    0    0    0    0 -0.00000000000E+00 -0.00000000000E+00 -0.15596625124E+03  0.15596625124E+03  0.00000000000E+00 0.  1.
        -24    2    1    2    0    0  0.13492636021E+02 -0.11804846437E+02 -0.12369594918E+03  0.14703705985E+03  0.77445487277E+02 0.  0.
         25    2    1    2    0    0  0.35799631350E+02 -0.15193532159E+02  0.26301850784E+03  0.29383411735E+03  0.12508915233E+03 0.  0.
         24    2    1    2    0    0 -0.49292267371E+02  0.26998378596E+02  0.49166605589E+03  0.50204993985E+03  0.84616733050E+02 0.  0.
        -13    1    5    5    0    0 -0.25356093119E+02  0.53474119874E+02  0.21165066868E+03  0.21976901171E+03  0.00000000000E+00 0.  1.
         14    1    5    5    0    0 -0.23936174252E+02 -0.26475741278E+02  0.28001538721E+03  0.28228092813E+03  0.00000000000E+00 0. -1.
         11    1    3    3    0    0 -0.78318165548E+01 -0.41649792238E+02 -0.58612184496E+02  0.72328629985E+02  0.00000000000E+00 0. -1.
        -12    1    3    3    0    0  0.21324452576E+02  0.29844945801E+02 -0.65083764680E+02  0.74708429862E+02  0.00000000000E+00 0.  1.
          5    1    4    4  501    0  0.19046114126E+02  0.37763166364E+02  0.21831401284E+03  0.22241243625E+03  0.41800000000E+01 0. -1.
         -5    1    4    4    0  501  0.16753517224E+02 -0.52956698524E+02  0.44704494997E+02  0.71421681098E+02  0.41800000000E+01 0. -1.
</event>
<event>
11    1  0.8328696E-009  0.1849816E+03  0.7561462E-02  0.1065683E+00
         22   -1    0    0    0    0  0.00000000000E+00  0.00000000000E+00  0.60020739958E+03  0.60020739958E+03  0.00000000000E+00 0.  1.
         22   -1    0    0    0    0 -0.00000000000E+00 -0.00000000000E+00 -0.15191799750E+04  0.15191799750E+04  0.00000000000E+00 0. -1.
         24    2    1    2    0    0 -0.95031687107E+02  0.98057501538E+02 -0.14422509938E+04  0.14508801502E+04  0.79492049935E+02 0.  0.
         25    2    1    2    0    0  0.61959119596E+02 -0.11858928203E+03  0.53690470535E+02  0.19087206490E+03  0.12508848155E+03 0.  0.
        -24    2    1    2    0    0  0.33072567511E+02  0.20531780495E+02  0.46958794787E+03  0.47763515946E+03  0.78148295138E+02 0.  0.
        -11    1    3    3    0    0 -0.78082556712E+01  0.63816054396E+02 -0.57960364583E+03  0.58315850669E+03  0.00000000000E+00 0.  1.
         12    1    3    3    0    0 -0.87223431436E+02  0.34241447142E+02 -0.86264734794E+03  0.86772164350E+03  0.00000000000E+00 0. -1.
         13    1    5    5    0    0 -0.79679428138E+01  0.16003411237E+02  0.22942626019E+02  0.29085415117E+02  0.00000000000E+00 0. -1.
        -14    1    5    5    0    0  0.41040510324E+02  0.45283692579E+01  0.44664532185E+03  0.44854974434E+03  0.00000000000E+00 0.  1.
          5    1    4    4  501    0  0.13144337888E+02  0.94289562459E+00 -0.32674077062E+02  0.35478590481E+02  0.41800000000E+01 0. -1.
         -5    1    4    4    0  501  0.48814781709E+02 -0.11953217766E+03  0.86364547597E+02  0.15539347441E+03  0.41800000000E+01 0. -1.
</event>
<event>
11    1  0.8328696E-009  0.1705004E+03  0.7561462E-02  0.1077597E+00
         22   -1    0    0    0    0  0.00000000000E+00  0.00000000000E+00  0.35290034824E+03  0.35290034824E+03  0.00000000000E+00 0. -1.
         22   -1    0    0    0    0 -0.00000000000E+00 -0.00000000000E+00 -0.91442476246E+03  0.91442476246E+03  0.00000000000E+00 0.  1.
        -24    2    1    2    0    0  0.23973728530E+02 -0.10459307841E+03 -0.54366772126E+03  0.55987561355E+03  0.79822677238E+02 0.  0.
         25    2    1    2    0    0  0.26737890701E+02  0.15144545359E+03 -0.32585627941E+03  0.38142050660E+03  0.12509455549E+03 0.  0.
         24    2    1    2    0    0 -0.50711619231E+02 -0.46852375180E+02  0.30799958645E+03  0.32602899054E+03  0.81635433697E+02 0.  0.
        -11    1    5    5    0    0  0.22623500334E+02 -0.10296335439E+02  0.78366517471E+02  0.82214039867E+02  0.00000000000E+00 0.  1.
         12    1    5    5    0    0 -0.73335119565E+02 -0.36556039741E+02  0.22963306898E+03  0.24381495068E+03  0.00000000000E+00 0. -1.
         11    1    3    3    0    0  0.39128471357E+02 -0.15201745317E+02 -0.20696609744E+03  0.21118024487E+03  0.00000000000E+00 0. -1.
        -12    1    3    3    0    0 -0.15154742827E+02 -0.89391333098E+02 -0.33670162382E+03  0.34869536869E+03  0.00000000000E+00 0.  1.
          5    1    4    4  501    0  0.32649656861E+02  0.15322894725E+03 -0.19419460654E+03  0.24954784707E+03  0.41800000000E+01 0. -1.
         -5    1    4    4    0  501 -0.59117661601E+01 -0.17834936589E+01 -0.13166167287E+03  0.13187265953E+03  0.41800000000E+01 0. -1.
</event>
<event>
11    1  0.8328696E-009  0.1328780E+03  0.7561462E-02  0.1115783E+00
         22   -1    0    0    0    0  0.00000000000E+00  0.00000000000E+00  0.94400771467E+03  0.94400771467E+03  0.00000000000E+00 0. -1.
         22   -1    0    0    0    0 -0.00000000000E+00 -0.00000000000E+00 -0.35557649041E+03  0.35557649041E+03  0.00000000000E+00 0.  1.
        -24    2    1    2    0    0  0.18354120291E+02  0.17827278651E+02 -0.26762392225E+03  0.28134890678E+03  0.82945512196E+02 0.  0.
         25    2    1    2    0    0 -0.37553226472E+02 -0.57528094529E+02 -0.13908364920E+02  0.14338951061E+03  0.12508949860E+03 0.  0.
         24    2    1    2    0    0  0.19199106180E+02  0.39700815878E+02  0.86996351143E+03  0.87484578768E+03  0.81079470550E+02 0.  0.
        -13    1    5    5    0    0 -0.11446150061E+02 -0.12827339948E+02  0.55184208195E+02  0.57800102383E+02  0.00000000000E+00 0.  1.
         14    1    5    5    0    0  0.30645256241E+02  0.52528155826E+02  0.81477930323E+03  0.81704568529E+03  0.00000000000E+00 0. -1.
         13    1    3    3    0    0 -0.21903250745E+02 -0.98384004811E+01 -0.28405944629E+02  0.37194679828E+02  0.00000000000E+00 0. -1.
        -14    1    3    3    0    0  0.40257371036E+02  0.27665679132E+02 -0.23921797762E+03  0.24415422696E+03  0.00000000000E+00 0.  1.
          5    1    4    4  501    0 -0.42151010141E+02  0.25017700231E+02 -0.31960541911E+02  0.58664653924E+02  0.41800000000E+01 0.  1.
         -5    1    4    4    0  501  0.45977836694E+01 -0.82545794760E+02  0.18052176991E+02  0.84724856691E+02  0.41800000000E+01 0.  1.
</event>
<event>
11    1  0.8328696E-009  0.4994223E+03  0.7561462E-02  0.9394813E-01
         22   -1    0    0    0    0  0.00000000000E+00  0.00000000000E+00  0.92141826929E+03  0.92141826929E+03  0.00000000000E+00 0. -1.
         22   -1    0    0    0    0 -0.00000000000E+00 -0.00000000000E+00 -0.47766017812E+03  0.47766017812E+03  0.00000000000E+00 0. -1.
        -24    2    1    2    0    0  0.19092061967E+03  0.57930783366E+02 -0.59074589044E+02  0.22422713989E+03  0.83554440429E+02 0.  0.
         25    2    1    2    0    0 -0.20936168795E+03  0.43798265452E+03  0.60042943876E+02  0.50488872625E+03  0.12508536582E+03 0.  0.
         24    2    1    2    0    0  0.18441068283E+02 -0.49591343788E+03  0.44278973634E+03  0.66996258127E+03  0.80727311564E+02 0.  0.
        -11    1    5    5    0    0  0.86366811493E+01 -0.22878937831E+03  0.25835447707E+03  0.34520458820E+03  0.00000000000E+00 0.  1.
         12    1    5    5    0    0  0.98043871333E+01 -0.26712405957E+03  0.18443525927E+03  0.32475799308E+03  0.00000000000E+00 0. -1.
         11    1    3    3    0    0  0.17533326558E+03  0.47347476819E+02 -0.22391878033E+02  0.18298888978E+03  0.00000000000E+00 0. -1.
        -12    1    3    3    0    0  0.15587354086E+02  0.10583306547E+02 -0.36682711011E+02  0.41238250108E+02  0.00000000000E+00 0.  1.
          5    1    4    4  501    0 -0.34269996709E+02  0.67352763852E+02 -0.36074044955E+02  0.83842928099E+02  0.41800000000E+01 0.  1.
         -5    1    4    4    0  501 -0.17509169124E+03  0.37062989066E+03  0.96116988831E+02  0.42104579815E+03  0.41800000000E+01 0.  1.
</event>
<event>
11    1  0.8328696E-009  0.1271378E+03  0.7561462E-02  0.1122837E+00
         22   -1    0    0    0    0  0.00000000000E+00  0.00000000000E+00  0.25608363897E+03  0.25608363897E+03  0.00000000000E+00 0.  1.
         22   -1    0    0    0    0 -0.00000000000E+00 -0.00000000000E+00 -0.39404723256E+03  0.39404723256E+03  0.00000000000E+00 0. -1.
        -24    2    1    2    0    0  0.28242415957E+00  0.33880966151E+01 -0.33516663232E+03  0.34514517918E+03  0.82322319768E+02 0.  0.
         25    2    1    2    0    0  0.12343715628E+02 -0.21629140161E+02  0.52906184894E+02  0.13808032421E+03  0.12508766731E+03 0.  0.
         24    2    1    2    0    0 -0.12626139788E+02  0.18241043546E+02  0.14429685384E+03  0.16690536814E+03  0.80892921878E+02 0.  0.
        -13    1    5    5    0    0 -0.14686096635E+02 -0.22840941200E+02  0.11014230513E+03  0.11344036940E+03  0.00000000000E+00 0.  1.
         14    1    5    5    0    0  0.20599568474E+01  0.41081984746E+02  0.34154548706E+02  0.53464998739E+02  0.00000000000E+00 0. -1.
         11    1    3    3    0    0  0.75371046849E+01 -0.14324539093E+02 -0.32081132154E+03  0.32121940227E+03  0.00000000000E+00 0. -1.
        -12    1    3    3    0    0 -0.72546805253E+01  0.17712635708E+02 -0.14355310775E+02  0.23925776909E+02  0.00000000000E+00 0.  1.
          5    1    4    4  501    0  0.39438875085E+02  0.34320481441E+02  0.54656216211E+02  0.75750212441E+02  0.41800000000E+01 0. -1.
         -5    1    4    4    0  501 -0.27095159456E+02 -0.55949621601E+02 -0.17500313178E+01  0.62330111767E+02  0.41800000000E+01 0. -1.
</event>
<event>
11    1  0.8328696E-009  0.1409867E+03  0.7561462E-02  0.1106462E+00
         22   -1    0    0    0    0  0.00000000000E+00  0.00000000000E+00  0.42825190120E+03  0.42825190120E+03  0.00000000000E+00 0.  1.
         22   -1    0    0    0    0 -0.00000000000E+00 -0.00000000000E+00 -0.57757273716E+03  0.57757273716E+03  0.00000000000E+00 0. -1.
         24    2    1    2    0    0 -0.28675318304E+02 -0.59719805155E+02 -0.43233541868E+03  0.44465916486E+03  0.80119471043E+02 0.  0.
         25    2    1    2    0    0  0.16716867566E+02  0.56166372116E+02 -0.96473257296E+02  0.16848929584E+03  0.12508972148E+03 0.  0.
        -24    2    1    2    0    0  0.11958450739E+02  0.35534330391E+01  0.37948784002E+03  0.39267617766E+03  0.10013954439E+03 0.  0.
        -13    1    3    3    0    0  0.19413278306E+02 -0.54349828656E+01 -0.20611572876E+03  0.20709927102E+03  0.00000000000E+00 0.  1.
         14    1    3    3    0    0 -0.48088596611E+02 -0.54284822289E+02 -0.22621968993E+03  0.23755989385E+03  0.00000000000E+00 0. -1.
         11    1    5    5    0    0 -0.31912732619E+02  0.26127679141E+02  0.26234209427E+03  0.26556440376E+03  0.00000000000E+00 0. -1.
        -12    1    5    5    0    0  0.43871183358E+02 -0.22574246102E+02  0.11714574575E+03  0.12711177390E+03  0.00000000000E+00 0.  1.
          5    1    4    4  501    0 -0.59427767983E+01  0.93728604755E+02 -0.67978981713E+02  0.11601285403E+03  0.41800000000E+01 0. -1.
         -5    1    4    4    0  501  0.22659644364E+02 -0.37562232639E+02 -0.28494275582E+02  0.52476441805E+02  0.41800000000E+01 0. -1.
</event>
<event>
11    1  0.8328696E-009  0.1305438E+03  0.7561462E-02  0.1118603E+00
         22   -1    0    0    0    0  0.00000000000E+00  0.00000000000E+00  0.53665908909E+03  0.53665908909E+03  0.00000000000E+00 0. -1.
         22   -1    0    0    0    0 -0.00000000000E+00 -0.00000000000E+00 -0.11505714242E+03  0.11505714242E+03  0.00000000000E+00 0. -1.
         24    2    1    2    0    0  0.34064484872E+02  0.28891305861E+02  0.28477290729E+01  0.87662051732E+02  0.75375255019E+02 0.  0.
         25    2    1    2    0    0 -0.64726435479E+02 -0.93180853600E+01  0.54764226163E+01  0.14125660445E+03  0.12508836449E+03 0.  0.
        -24    2    1    2    0    0  0.30661950606E+02 -0.19573220501E+02  0.41327779497E+03  0.42279757533E+03  0.81461571977E+02 0.  0.
        -13    1    3    3    0    0 -0.12346213590E+02  0.26735044395E+02  0.22656032540E+02  0.37154910836E+02  0.00000000000E+00 0.  1.
         14    1    3    3    0    0  0.46410698463E+02  0.21562614658E+01 -0.19808303467E+02  0.50507140896E+02  0.00000000000E+00 0. -1.
         11    1    5    5    0    0  0.56072998874E+02 -0.19275616316E+02  0.21976799383E+03  0.22762623245E+03  0.00000000000E+00 0. -1.
        -12    1    5    5    0    0 -0.25411048267E+02 -0.29760418429E+00  0.19350980114E+03  0.19517134287E+03  0.00000000000E+00 0.  1.
          5    1    4    4  501    0 -0.39047554927E+02 -0.35915199101E+02  0.56819850658E+02  0.77849732826E+02  0.41800000000E+01 0. -1.
         -5    1    4    4    0  501 -0.25678880551E+02  0.26597113741E+02 -0.51343428042E+02  0.63406871621E+02  0.41800000000E+01 0. -1.
</event>
<event>
11    1  0.1554266E-008  0.1821656E+03  0.7561462E-02  0.1067904E+00
         22   -1    0    0    0    0  0.00000000000E+00  0.00000000000E+00  0.49437226856E+03  0.49437226856E+03  0.00000000000E+00 0.  1.
         22   -1    0    0    0    0 -0.00000000000E+00 -0.00000000000E+00 -0.71431840488E+03  0.71431840488E+03  0.00000000000E+00 0.  1.
        -24    2    1    2    0    0  0.43263390888E+02  0.57661654599E+02 -0.52438542455E+03  0.53529454700E+03  0.79772120236E+02 0.  0.
         25    2    1    2    0    0  0.91402678474E+02 -0.36951927382E+02 -0.13341981403E+03  0.20777015819E+03  0.12509075621E+03 0.  0.
         24    2    1    2    0    0 -0.13466606936E+03 -0.20709727217E+02  0.43785910226E+03  0.46562596825E+03  0.80765746672E+02 0.  0.
        -11    1    5    5    0    0 -0.12932164906E+03 -0.18955000185E+02  0.29502519375E+03  0.32268133800E+03  0.00000000000E+00 0.  1.
         12    1    5    5    0    0 -0.53444202988E+01 -0.17547270319E+01  0.14283390851E+03  0.14294463024E+03  0.00000000000E+00 0. -1.
         13    1    3    3    0    0  0.30433462130E+02 -0.14176138624E+02 -0.13359086689E+03  0.13774497537E+03  0.00000000000E+00 0. -1.
        -14    1    3    3    0    0  0.12829928758E+02  0.71837793223E+02 -0.39079455766E+03  0.39754957164E+03  0.00000000000E+00 0.  1.
          5    1    4    4  501    0  0.15248079911E+02  0.14292674196E+02 -0.11121580247E+03  0.11323962025E+03  0.41800000000E+01 0. -1.
         -5    1    4    4    0  501  0.76154598563E+02 -0.51244601579E+02 -0.22204011561E+02  0.94530537937E+02  0.41800000000E+01 0. -1.
</event>
<event>
11    1  0.8328696E-009  0.1401467E+03  0.7561462E-02  0.1107395E+00
         22   -1    0    0    0    0  0.00000000000E+00  0.00000000000E+00  0.55470927185E+03  0.55470927185E+03  0.00000000000E+00 0. -1.
         22   -1    0    0    0    0 -0.00000000000E+00 -0.00000000000E+00 -0.24747008397E+03  0.24747008397E+03  0.00000000000E+00 0.  1.
        -24    2    1    2    0    0 -0.24408602530E+02  0.88339783991E+01 -0.20757090341E+03  0.22812116634E+03  0.90993227992E+02 0.  0.
         25    2    1    2    0    0  0.56024056109E+02  0.43783852253E+02  0.22368266329E+03  0.26595374333E+03  0.12506693869E+03 0.  0.
         24    2    1    2    0    0 -0.31615453579E+02 -0.52617830652E+02  0.29112742800E+03  0.30810444615E+03  0.80031227648E+02 0.  0.
        -13    1    5    5    0    0 -0.91572070454E+01 -0.39903602153E+02  0.45831597939E+02  0.61454757955E+02  0.00000000000E+00 0.  1.
         14    1    5    5    0    0 -0.22458246534E+02 -0.12714228499E+02  0.24529583006E+03  0.24664968820E+03  0.00000000000E+00 0. -1.
         11    1    3    3    0    0 -0.45837062255E+02  0.10118847442E+02 -0.48089214476E+02  0.67201189711E+02  0.00000000000E+00 0. -1.
        -12    1    3    3    0    0  0.21428459725E+02 -0.12848690425E+01 -0.15948168893E+03  0.16091997663E+03  0.00000000000E+00 0.  1.
          5    1    4    4  501    0  0.56939728264E+02 -0.33601563094E+02  0.97787694978E+02  0.11811478902E+03  0.41800000000E+01 0. -1.
         -5    1    4    4    0  501 -0.91567215446E+00  0.77385415347E+02  0.12589496831E+03  0.14783895430E+03  0.41800000000E+01 0. -1.
</event>
<event>
11    1  0.8328696E-009  0.1664659E+03  0.7561462E-02  0.1081149E+00
         22   -1    0    0    0    0  0.00000000000E+00  0.00000000000E+00  0.10250116584E+04  0.10250116584E+04  0.00000000000E+00 0.  1.
         22   -1    0    0    0    0 -0.00000000000E+00 -0.00000000000E+00 -0.16346321407E+03  0.16346321407E+03  0.00000000000E+00 0.  1.
         24    2    1    2    0    0 -0.42107196294E+02 -0.37589074617E+02 -0.68547467357E+02  0.11933725540E+03  0.79728732175E+02 0.  0.
         25    2    1    2    0    0  0.13947353993E+03  0.78479533395E+02  0.97075720333E+02  0.22512991431E+03  0.12509147587E+03 0.  0.
        -24    2    1    2    0    0 -0.97366343633E+02 -0.40890458778E+02  0.83302019138E+03  0.84400770280E+03  0.85288502445E+02 0.  0.
        -13    1    3    3    0    0 -0.36700088464E+02 -0.61043627248E+02 -0.61902635202E+02  0.94367140286E+02  0.00000000000E+00 0.  1.
         14    1    3    3    0    0 -0.54071078308E+01  0.23454552632E+02 -0.66448321547E+01  0.24970115110E+02  0.00000000000E+00 0. -1.
         13    1    5    5    0    0  0.15562014670E+02  0.12848001406E+00  0.89673205961E+02  0.91013607087E+02  0.00000000000E+00 0. -1.
        -14    1    5    5    0    0 -0.11292835830E+03 -0.41018938792E+02  0.74334698542E+03  0.75299409572E+03  0.00000000000E+00 0.  1.
          5    1    4    4  501    0  0.80657084160E+02  0.10870695369E+03  0.52377999250E+02  0.14520225278E+03  0.41800000000E+01 0.  1.
         -5    1    4    4    0  501  0.58816455767E+02 -0.30227420300E+02  0.44697721083E+02  0.79927661526E+02  0.41800000000E+01 0.  1.
</event>
<event>
11    1  0.8328696E-009  0.1415811E+03  0.7561462E-02  0.1105806E+00
         22   -1    0    0    0    0  0.00000000000E+00  0.00000000000E+00  0.31351014800E+04  0.31351014800E+04  0.00000000000E+00 0. -1.
         22   -1    0    0    0    0 -0.00000000000E+00 -0.00000000000E+00 -0.32454891844E+03  0.32454891844E+03  0.00000000000E+00 0. -1.
        -24    2    1    2    0    0 -0.14008887777E+02  0.88670418368E+01 -0.24846191266E+03  0.26142323902E+03  0.79585893797E+02 0.  0.
         25    2    1    2    0    0 -0.41724577940E+02 -0.44887395677E+02  0.18561468742E+01  0.13932798352E+03  0.12511204185E+03 0.  0.
         24    2    1    2    0    0  0.55733465717E+02  0.36020353840E+02  0.30571583274E+04  0.30588991759E+04  0.79015471356E+02 0.  0.
        -11    1    5    5    0    0  0.56547630390E+01  0.25225678202E+02  0.22333083785E+04  0.22334579971E+04  0.00000000000E+00 0.  1.
         12    1    5    5    0    0  0.50078702678E+02  0.10794675638E+02  0.82384994883E+03  0.82544117881E+03  0.00000000000E+00 0. -1.
         11    1    3    3    0    0 -0.40953917386E+02  0.23386902175E+02 -0.18570592712E+03  0.19160078786E+03  0.00000000000E+00 0. -1.
        -12    1    3    3    0    0  0.26945029609E+02 -0.14519860339E+02 -0.62755985540E+02  0.69822451160E+02  0.00000000000E+00 0.  1.
          5    1    4    4  501    0 -0.77256574054E+02 -0.53714681205E+02  0.22846762387E+02  0.96918997948E+02  0.41800000000E+01 0. -1.
         -5    1    4    4    0  501  0.35531996114E+02  0.88272855281E+01 -0.20990615513E+02  0.42408985572E+02  0.41800000000E+01 0. -1.
</event>
<event>
11    1  0.8328696E-009  0.1311272E+03  0.7561462E-02  0.1117892E+00
         22   -1    0    0    0    0  0.00000000000E+00  0.00000000000E+00  0.12882363148E+03  0.12882363148E+03  0.00000000000E+00 0. -1.
         22   -1    0    0    0    0 -0.00000000000E+00 -0.00000000000E+00 -0.10703233626E+04  0.10703233626E+04  0.00000000000E+00 0.  1.
        -24    2    1    2    0    0 -0.26747877358E+02  0.20452503846E+02 -0.97091873170E+03  0.97376442571E+03  0.66334149233E+02 0.  0.
         25    2    1    2    0    0 -0.17903236776E+02 -0.31657921783E+02  0.97438565779E+01  0.13063626500E+03  0.12509253013E+03 0.  0.
         24    2    1    2    0    0  0.44651114134E+02  0.11205417936E+02  0.19675143995E+02  0.94746303370E+02  0.80439215104E+02 0.  0.
        -11    1    5    5    0    0  0.48940846387E+02  0.33893661513E+02 -0.64498730777E+01  0.59879776206E+02  0.00000000000E+00 0.  1.
         12    1    5    5    0    0 -0.42897322532E+01 -0.22688243576E+02  0.26125017073E+02  0.34866527164E+02  0.00000000000E+00 0. -1.
         11    1    3    3    0    0 -0.35413905942E+02 -0.14082783305E+02 -0.43633380486E+03  0.43799504424E+03  0.00000000000E+00 0. -1.
        -12    1    3    3    0    0  0.86660285845E+01  0.34535287151E+02 -0.53458492684E+03  0.53576938147E+03  0.00000000000E+00 0.  1.
          5    1    4    4  501    0 -0.22392045506E+02 -0.21312912158E+01  0.64328103515E+02  0.68275349915E+02  0.41800000000E+01 0.  1.
         -5    1    4    4    0  501  0.44888087300E+01 -0.29526630567E+02 -0.54584246937E+02  0.62360915084E+02  0.41800000000E+01 0.  1.
</event>
<event>
11    1  0.8328696E-009  0.1484126E+03  0.7561462E-02  0.1098512E+00
         22   -1    0    0    0    0  0.00000000000E+00  0.00000000000E+00  0.11543906318E+04  0.11543906318E+04  0.00000000000E+00 0. -1.
         22   -1    0    0    0    0 -0.00000000000E+00 -0.00000000000E+00 -0.38677829947E+03  0.38677829947E+03  0.00000000000E+00 0.  1.
         24    2    1    2    0    0  0.63514976991E+02 -0.49322756334E+02 -0.35959843932E+03  0.37707514381E+03  0.80048359902E+02 0.  0.
         25    2    1    2    0    0 -0.79949974261E+02 -0.16752428577E+02  0.36311470489E+03  0.39266030692E+03  0.12512867565E+03 0.  0.
        -24    2    1    2    0    0  0.16434997270E+02  0.66075184911E+02  0.76409606680E+03  0.77143348058E+03  0.81429579799E+02 0.  0.
        -13    1    3    3    0    0  0.35084377330E+02 -0.49646404715E+02 -0.10848377507E+03  0.12435597487E+03  0.00000000000E+00 0.  1.
         14    1    3    3    0    0  0.28430599661E+02  0.32364838059E+00 -0.25111466425E+03  0.25271916894E+03  0.00000000000E+00 0. -1.
         11    1    5    5    0    0  0.15257970874E+02  0.47077523995E+02  0.73500244549E+03  0.73666660968E+03  0.00000000000E+00 0. -1.
        -12    1    5    5    0    0  0.11770263969E+01  0.18997660916E+02  0.29093621315E+02  0.34766870906E+02  0.00000000000E+00 0.  1.
          5    1    4    4  501    0 -0.16564374600E+02 -0.42476664944E+02  0.28537562308E+03  0.28902485052E+03  0.41800000000E+01 0. -1.
         -5    1    4    4    0  501 -0.63385599661E+02  0.25724236367E+02  0.77739081811E+02  0.10363545639E+03  0.41800000000E+01 0. -1.
</event>
<event>
11    1  0.8328696E-009  0.1408738E+03  0.7561462E-02  0.1106587E+00
         22   -1    0    0    0    0  0.00000000000E+00  0.00000000000E+00  0.33112097847E+03  0.33112097847E+03  0.00000000000E+00 0. -1.
         22   -1    0    0    0    0 -0.00000000000E+00 -0.00000000000E+00 -0.93335502138E+03  0.93335502138E+03  0.00000000000E+00 0.  1.
         24    2    1    2    0    0 -0.51952620080E+01  0.15089764415E+01 -0.87631682268E+03  0.88003807417E+03  0.80663315874E+02 0.  0.
         25    2    1    2    0    0 -0.29281375314E+02  0.54542298233E+02  0.76423701814E+02  0.15911705405E+03  0.12508154721E+03 0.  0.
        -24    2    1    2    0    0  0.34476637322E+02 -0.56051274675E+02  0.19765907795E+03  0.22532087163E+03  0.85848705185E+02 0.  0.
        -13    1    3    3    0    0  0.10448546465E+01 -0.36812298145E+02 -0.58311067965E+03  0.58427245505E+03  0.00000000000E+00 0.  1.
         14    1    3    3    0    0 -0.62401166545E+01  0.38321274586E+02 -0.29320614303E+03  0.29576561912E+03  0.00000000000E+00 0. -1.
         11    1    5    5    0    0  0.22161902061E+02 -0.78383560600E+02  0.13500354431E+03  0.15767399738E+03  0.00000000000E+00 0. -1.
        -12    1    5    5    0    0  0.12314735261E+02  0.22332285925E+02  0.62655533640E+02  0.67646874244E+02  0.00000000000E+00 0.  1.
          5    1    4    4  501    0 -0.18579036359E+02  0.68600711390E+02 -0.90214482025E+01  0.71764177156E+02  0.41800000000E+01 0. -1.
         -5    1    4    4    0  501 -0.10702338955E+02 -0.14058413156E+02  0.85445150017E+02  0.87352876890E+02  0.41800000000E+01 0. -1.
</event>
<event>
11    1  0.8328696E-009  0.2216117E+03  0.7561462E-02  0.1040213E+00
         22   -1    0    0    0    0  0.00000000000E+00  0.00000000000E+00  0.58285834478E+02  0.58285834478E+02  0.00000000000E+00 0.  1.
         22   -1    0    0    0    0 -0.00000000000E+00 -0.00000000000E+00 -0.29136874762E+04  0.29136874762E+04  0.00000000000E+00 0.  1.
         24    2    1    2    0    0 -0.33375474823E+02 -0.61780904465E+01 -0.14813272983E+04  0.14836765637E+04  0.76246244917E+02 0.  0.
         25    2    1    2    0    0  0.16395149338E+03 -0.11759223461E+03 -0.12065668763E+04  0.12296986724E+04  0.12508865666E+03 0.  0.
        -24    2    1    2    0    0 -0.13057601855E+03  0.12377032506E+03 -0.16750746713E+03  0.25859807461E+03  0.80280898498E+02 0.  0.
        -11    1    3    3    0    0 -0.53330022927E+02 -0.10228736476E+02 -0.70727277967E+03  0.70935428614E+03  0.00000000000E+00 0.  1.
         12    1    3    3    0    0  0.19954548104E+02  0.40506460290E+01 -0.77405451867E+03  0.77432227760E+03  0.00000000000E+00 0. -1.
         13    1    5    5    0    0 -0.11486278191E+03  0.56652266933E+02 -0.10789976682E+03  0.16746730336E+03  0.00000000000E+00 0. -1.
        -14    1    5    5    0    0 -0.15713236645E+02  0.67118058125E+02 -0.59607700313E+02  0.91130771251E+02  0.00000000000E+00 0.  1.
          5    1    4    4  501    0  0.64331985740E+02  0.59933179908E+01 -0.56827397839E+03  0.57195044468E+03  0.41800000000E+01 0. -1.
         -5    1    4    4    0  501  0.99619507636E+02 -0.12358555260E+03 -0.63829289789E+03  0.65774822768E+03  0.41800000000E+01 0. -1.
</event>
<event>
11    1  0.8328696E-009  0.1365154E+03  0.7561462E-02  0.1111513E+00
         22   -1    0    0    0    0  0.00000000000E+00  0.00000000000E+00  0.52340569802E+03  0.52340569802E+03  0.00000000000E+00 0.  1.
         22   -1    0    0    0    0 -0.00000000000E+00 -0.00000000000E+00 -0.62552834630E+03  0.62552834630E+03  0.00000000000E+00 0.  1.
         24    2    1    2    0    0  0.39980499843E+01 -0.53238731632E+02 -0.56045230299E+03  0.56808894767E+03  0.75946833930E+02 0.  0.
         25    2    1    2    0    0 -0.18862708164E+02  0.89150503357E+02  0.49875746589E+02  0.16259986477E+03  0.12509001526E+03 0.  0.
        -24    2    1    2    0    0  0.14864658180E+02 -0.35911771725E+02  0.40845390813E+03  0.41824523188E+03  0.81141022371E+02 0.  0.
        -13    1    3    3    0    0  0.25330415381E+02 -0.15583075942E+02 -0.42161569938E+03  0.42266329408E+03  0.00000000000E+00 0.  1.
         14    1    3    3    0    0 -0.21332365396E+02 -0.37655655690E+02 -0.13883660361E+03  0.14542565359E+03  0.00000000000E+00 0. -1.
         11    1    5    5    0    0  0.41017529855E+02  0.50948591033E+01  0.18756346024E+03  0.19206365341E+03  0.00000000000E+00 0. -1.
        -12    1    5    5    0    0 -0.26152871675E+02 -0.41006630828E+02  0.22089044789E+03  0.22618157847E+03  0.00000000000E+00 0.  1.
          5    1    4    4  501    0 -0.20762136934E+02  0.62894694998E+02  0.91584483041E+02  0.11310171936E+03  0.41800000000E+01 0. -1.
         -5    1    4    4    0  501  0.18994287702E+01  0.26255808359E+02 -0.41708736453E+02  0.49498145407E+02  0.41800000000E+01 0. -1.
</event>
<event>
11    1  0.8328696E-009  0.1535323E+03  0.7561462E-02  0.1093323E+00
         22   -1    0    0    0    0  0.00000000000E+00  0.00000000000E+00  0.10566937279E+04  0.10566937279E+04  0.00000000000E+00 0. -1.
         22   -1    0    0    0    0 -0.00000000000E+00 -0.00000000000E+00 -0.62896396887E+03  0.62896396887E+03  0.00000000000E+00 0.  1.
        -24    2    1    2    0    0 -0.65646814253E+02 -0.62894849242E+02 -0.59516573893E+03  0.60735304434E+03  0.79938710231E+02 0.  0.
         25    2    1    2    0    0  0.24733094956E+02  0.24518208480E+02  0.14989069092E+03  0.19831360531E+03  0.12509275876E+03 0.  0.
         24    2    1    2    0    0  0.40913719297E+02  0.38376640763E+02  0.87300480704E+03  0.87999104713E+03  0.95394711235E+02 0.  0.
        -13    1    5    5    0    0  0.27358478356E+02  0.42011782431E+02  0.18020129294E+03  0.18704540138E+03  0.00000000000E+00 0.  1.
         14    1    5    5    0    0  0.13555240941E+02 -0.36351416684E+01  0.69280351410E+03  0.69294564575E+03  0.00000000000E+00 0. -1.
         11    1    3    3    0    0 -0.32036146844E+02 -0.10018680014E+02 -0.61864536429E+02  0.70384014672E+02  0.00000000000E+00 0. -1.
        -12    1    3    3    0    0 -0.33610667409E+02 -0.52876169228E+02 -0.53330120250E+03  0.53696902967E+03  0.00000000000E+00 0.  1.
          5    1    4    4  501    0 -0.28887734259E+02 -0.35431067258E+02  0.77221828347E+02  0.89836211468E+02  0.41800000000E+01 0. -1.
         -5    1    4    4    0  501  0.53620829215E+02  0.59949275738E+02  0.72668862575E+02  0.10847739384E+03  0.41800000000E+01 0. -1.
</event>
<event>
11    1  0.8328696E-009  0.1300619E+03  0.7561462E-02  0.1119193E+00
         22   -1    0    0    0    0  0.00000000000E+00  0.00000000000E+00  0.93817079925E+03  0.93817079925E+03  0.00000000000E+00 0. -1.
         22   -1    0    0    0    0 -0.00000000000E+00 -0.00000000000E+00 -0.55547550616E+02  0.55547550616E+02  0.00000000000E+00 0. -1.
        -24    2    1    2    0    0  0.60211240007E+01 -0.10782278169E+02 -0.16497875609E+01  0.82634514980E+02  0.81689839088E+02 0.  0.
         25    2    1    2    0    0 -0.39619454706E+02  0.49343687495E+01  0.46332690655E+03  0.48157494099E+03  0.12509417360E+03 0.  0.
         24    2    1    2    0    0  0.33598330705E+02  0.58479094197E+01  0.42094612964E+03  0.42950889390E+03  0.78225315619E+02 0.  0.
        -13    1    5    5    0    0 -0.14206698140E+02 -0.10416863151E+02  0.26359507554E+02  0.31704336430E+02  0.00000000000E+00 0.  1.
         14    1    5    5    0    0  0.47805028845E+02  0.16264772571E+02  0.39458662209E+03  0.39780455747E+03  0.00000000000E+00 0. -1.
         13    1    3    3    0    0  0.31576168392E+02  0.22770208771E+02  0.70692241411E+01  0.39566535706E+02  0.00000000000E+00 0. -1.
        -14    1    3    3    0    0 -0.25555044391E+02 -0.33552486940E+02 -0.87190117020E+01  0.43067979274E+02  0.00000000000E+00 0.  1.
          5    1    4    4  501    0 -0.68109246119E+02  0.15254959857E+02  0.13694475268E+03  0.15376254711E+03  0.41800000000E+01 0. -1.
         -5    1    4    4    0  501  0.28489791413E+02 -0.10320591107E+02  0.32638215387E+03  0.32781239388E+03  0.41800000000E+01 0. -1.
</event>
<event>
11    1  0.8328696E-009  0.1407900E+03  0.7561462E-02  0.1106679E+00
         22   -1    0    0    0    0  0.00000000000E+00  0.00000000000E+00  0.16967760579E+03  0.16967760579E+03  0.00000000000E+00 0. -1.
         22   -1    0    0    0    0 -0.00000000000E+00 -0.00000000000E+00 -0.28254604014E+03  0.28254604014E+03  0.00000000000E+00 0. -1.
        -24    2    1    2    0    0  0.50190109968E+02 -0.28053821154E+02 -0.12406692725E+03  0.15879811304E+03  0.80735210718E+02 0.  0.
         25    2    1    2    0    0 -0.88881141221E+02 -0.20620230294E+02 -0.64429490310E+02  0.16769933772E+03  0.12508739940E+03 0.  0.
         24    2    1    2    0    0  0.38691031253E+02  0.48674051448E+02  0.75627983211E+02  0.12572619516E+03  0.78875377158E+02 0.  0.
        -11    1    5    5    0    0  0.21311050403E+02 -0.18879796146E+02  0.10653696842E+02  0.30399158347E+02  0.00000000000E+00 0.  1.
         12    1    5    5    0    0  0.17379980850E+02  0.67553847594E+02  0.64974286369E+02  0.95327036816E+02  0.00000000000E+00 0. -1.
         13    1    3    3    0    0  0.71250343045E+02 -0.26113447491E+02 -0.10906937618E+03  0.13287081073E+03  0.00000000000E+00 0. -1.
        -14    1    3    3    0    0 -0.21060233077E+02 -0.19403736629E+01 -0.14997551066E+02  0.25927302312E+02  0.00000000000E+00 0.  1.
          5    1    4    4  501    0 -0.33634362381E+01 -0.24881512610E+02 -0.76962426994E+02  0.81062259664E+02  0.41800000000E+01 0.  1.
         -5    1    4    4    0  501 -0.85517704983E+02  0.42612823156E+01  0.12532936684E+02  0.86637078058E+02  0.41800000000E+01 0.  1.
</event>
<event>
11    1  0.8328696E-009  0.1964411E+03  0.7561462E-02  0.1057069E+00
         22   -1    0    0    0    0  0.00000000000E+00  0.00000000000E+00  0.85508106353E+03  0.85508106353E+03  0.00000000000E+00 0. -1.
         22   -1    0    0    0    0 -0.00000000000E+00 -0.00000000000E+00 -0.33287527026E+03  0.33287527026E+03  0.00000000000E+00 0.  1.
         24    2    1    2    0    0  0.12058340449E+03 -0.88319094194E+02 -0.27350029844E+03  0.32318315880E+03  0.85465320722E+02 0.  0.
         25    2    1    2    0    0 -0.13356655613E+03  0.13456985305E+03  0.41825852801E+03  0.47595852717E+03  0.12508898060E+03 0.  0.
        -24    2    1    2    0    0  0.12983151640E+02 -0.46250758852E+02  0.37744756370E+03  0.38881464782E+03  0.80015449126E+02 0.  0.
        -13    1    3    3    0    0  0.13202039591E+03 -0.73336459026E+02 -0.22342874498E+03  0.26968134018E+03  0.00000000000E+00 0.  1.
         14    1    3    3    0    0 -0.11436991422E+02 -0.14982635168E+02 -0.50071553456E+02  0.53501818613E+02  0.00000000000E+00 0. -1.
         11    1    5    5    0    0  0.24950096621E+02 -0.60318403950E+02  0.19941137202E+03  0.20982305038E+03  0.00000000000E+00 0. -1.
        -12    1    5    5    0    0 -0.11966944980E+02  0.14067645098E+02  0.17803619167E+03  0.17899159744E+03  0.00000000000E+00 0.  1.
          5    1    4    4  501    0 -0.50004366613E+02 -0.44745270963E+01  0.39886757825E+02  0.64256392078E+02  0.41800000000E+01 0.  1.
         -5    1    4    4    0  501 -0.83562189513E+02  0.13904438014E+03  0.37837177019E+03  0.41170213509E+03  0.41800000000E+01 0.  1.
</event>
<event>
11    1  0.8328696E-009  0.1354795E+03  0.7561462E-02  0.1112714E+00
         22   -1    0    0    0    0  0.00000000000E+00  0.00000000000E+00  0.20742124124E+03  0.20742124124E+03  0.00000000000E+00 0. -1.
         22   -1    0    0    0    0 -0.00000000000E+00 -0.00000000000E+00 -0.40899637293E+03  0.40899637293E+03  0.00000000000E+00 0. -1.
         24    2    1    2    0    0 -0.24869228718E+01  0.27789074871E+02 -0.19884564669E+03  0.21695452175E+03  0.82166026009E+02 0.  0.
         25    2    1    2    0    0 -0.49647796755E+02 -0.23488575101E+02 -0.16312265027E+03  0.21277461811E+03  0.12508965665E+03 0.  0.
        -24    2    1    2    0    0  0.52134719626E+02 -0.43004997706E+01  0.16039316527E+03  0.18668847431E+03  0.79938074081E+02 0.  0.
        -13    1    3    3    0    0 -0.29197863567E+02  0.25118737854E+02 -0.38791499645E+02  0.54664857751E+02  0.00000000000E+00 0.  1.
         14    1    3    3    0    0  0.26710940695E+02  0.26703370175E+01 -0.16005414705E+03  0.16228966400E+03  0.00000000000E+00 0. -1.
         11    1    5    5    0    0  0.45349823276E+02 -0.11678282961E+02  0.16780860122E+03  0.17422030710E+03  0.00000000000E+00 0. -1.
        -12    1    5    5    0    0  0.67848963504E+01  0.73777831908E+01 -0.74154359492E+01  0.12468167211E+02  0.00000000000E+00 0.  1.
          5    1    4    4  501    0 -0.18201212448E+02 -0.22243118342E+02 -0.17609863793E+03  0.17847757038E+03  0.41800000000E+01 0. -1.
         -5    1    4    4    0  501 -0.31446584306E+02 -0.12454567582E+01  0.12975987665E+02  0.34297047729E+02  0.41800000000E+01 0. -1.
</event>
<event>
11    1  0.8328696E-009  0.1979385E+03  0.7561462E-02  0.1055991E+00
         22   -1    0    0    0    0  0.00000000000E+00  0.00000000000E+00  0.23032143959E+03  0.23032143959E+03  0.00000000000E+00 0.  1.
         22   -1    0    0    0    0 -0.00000000000E+00 -0.00000000000E+00 -0.15185096410E+04  0.15185096410E+04  0.00000000000E+00 0. -1.
         24    2    1    2    0    0 -0.55440678451E+01  0.40148746005E+02 -0.10870078963E+04  0.10909285431E+04  0.83043729310E+02 0.  0.
         25    2    1    2    0    0 -0.70709933115E+02 -0.17003451737E+03 -0.36055961767E+03  0.42374864058E+03  0.12509212908E+03 0.  0.
        -24    2    1    2    0    0  0.76254000960E+02  0.12988577137E+03  0.15937931258E+03  0.23415389692E+03  0.82105395085E+02 0.  0.
        -13    1    3    3    0    0  0.17792528900E+02  0.29015623737E+02 -0.16093904905E+03  0.16449880855E+03  0.00000000000E+00 0.  1.
         14    1    3    3    0    0 -0.23336596745E+02  0.11133122268E+02 -0.92606884729E+03  0.92642973456E+03  0.00000000000E+00 0. -1.
         13    1    5    5    0    0  0.49594809351E+02  0.15558880703E+02  0.32528993496E+02  0.61317691583E+02  0.00000000000E+00 0. -1.
        -14    1    5    5    0    0  0.26659191610E+02  0.11432689066E+03  0.12685031908E+03  0.17283620534E+03  0.00000000000E+00 0.  1.
          5    1    4    4  501    0 -0.70771626313E+02 -0.16048599507E+03 -0.37012412347E+03  0.40960190048E+03  0.41800000000E+01 0.  1.
         -5    1    4    4    0  501  0.61693197824E-01 -0.95485223007E+01  0.95645057972E+01  0.14146740095E+02  0.41800000000E+01 0.  1.
</event>
<event>
11    1  0.8328696E-009  0.1360572E+03  0.7561462E-02  0.1112043E+00
         22   -1    0    0    0    0  0.00000000000E+00  0.00000000000E+00  0.13018769070E+04  0.13018769070E+04  0.00000000000E+00 0. -1.
         22   -1    0    0    0    0 -0.00000000000E+00 -0.00000000000E+00 -0.63180466523E+03  0.63180466523E+03  0.00000000000E+00 0. -1.
         24    2    1    2    0    0  0.78732459400E+01 -0.53072911413E+02 -0.59745823951E+03  0.60540857234E+03  0.81758605524E+02 0.  0.
         25    2    1    2    0    0  0.59201989539E+00  0.48560862843E+02  0.12657375266E+03  0.18446532623E+03  0.12509210140E+03 0.  0.
        -24    2    1    2    0    0 -0.84652658354E+01  0.45120485701E+01  0.11409567286E+04  0.11438076737E+04  0.80135625225E+02 0.  0.
        -11    1    3    3    0    0  0.21065791438E+02 -0.48024504846E+02 -0.17438425560E+03  0.18209884468E+03  0.00000000000E+00 0.  1.
         12    1    3    3    0    0 -0.13192545498E+02 -0.50484065663E+01 -0.42307398391E+03  0.42330972766E+03  0.00000000000E+00 0. -1.
         13    1    5    5    0    0 -0.30215711242E+02  0.32279730851E+02  0.73120854453E+03  0.73254413234E+03  0.00000000000E+00 0. -1.
        -14    1    5    5    0    0  0.21750445406E+02 -0.27767682281E+02  0.40974818410E+03  0.41126354133E+03  0.00000000000E+00 0.  1.
          5    1    4    4  501    0  0.48276093454E+02  0.50252220035E+01  0.10585167645E+03  0.11652417716E+03  0.41800000000E+01 0. -1.
         -5    1    4    4    0  501 -0.47684073559E+02  0.43535640839E+02  0.20722076207E+02  0.67941149069E+02  0.41800000000E+01 0. -1.
</event>
<event>
11    1  0.8328696E-009  0.1781193E+03  0.7561462E-02  0.1071174E+00
         22   -1    0    0    0    0  0.00000000000E+00  0.00000000000E+00  0.31432757446E+03  0.31432757446E+03  0.00000000000E+00 0. -1.
         22   -1    0    0    0    0 -0.00000000000E+00 -0.00000000000E+00 -0.51976525450E+03  0.51976525450E+03  0.00000000000E+00 0. -1.
        -24    2    1    2    0    0  0.12785633222E+03 -0.15415966288E+02 -0.32408409470E+03  0.35749368835E+03  0.78653309341E+02 0.  0.
         25    2    1    2    0    0 -0.12370378513E+03 -0.47191394754E+02 -0.11958149492E+03  0.21789132154E+03  0.12508892790E+03 0.  0.
         24    2    1    2    0    0 -0.41525470953E+01  0.62607361042E+02  0.23822790959E+03  0.25870781906E+03  0.78995401355E+02 0.  0.
        -13    1    5    5    0    0  0.12454881388E+02 -0.12283868194E+02  0.91292618530E+02  0.92953535093E+02  0.00000000000E+00 0.  1.
         14    1    5    5    0    0 -0.16607428483E+02  0.74891229236E+02  0.14693529106E+03  0.16575428397E+03  0.00000000000E+00 0. -1.
         13    1    3    3    0    0  0.49640810153E+02  0.28781955849E+02 -0.16635735394E+03  0.17597551030E+03  0.00000000000E+00 0. -1.
        -14    1    3    3    0    0  0.78215522070E+02 -0.44197922137E+02 -0.15772674076E+03  0.18151817805E+03  0.00000000000E+00 0.  1.
          5    1    4    4  501    0 -0.48086010013E+02 -0.10066991713E+02 -0.12398929039E+03  0.13343322380E+03  0.41800000000E+01 0.  1.
         -5    1    4    4    0  501 -0.75617775115E+02 -0.37124403041E+02  0.44077954695E+01  0.84458097749E+02  0.41800000000E+01 0.  1.
</event>
<event>
11    1  0.8328696E-009  0.2388768E+04  0.7561462E-02  0.7923987E-01
         22   -1    0    0    0    0  0.00000000000E+00  0.00000000000E+00  0.76448311513E+03  0.76448311513E+03  0.00000000000E+00 0. -1.
         22   -1    0    0    0    0 -0.00000000000E+00 -0.00000000000E+00 -0.18660364136E+04  0.18660364136E+04  0.00000000000E+00 0. -1.
         24    2    1    2    0    0 -0.41428879640E+03  0.51184315445E+03 -0.81537983903E+03  0.10514631448E+04  0.84331734538E+02 0.  0.
         25    2    1    2    0    0  0.55309068312E+03 -0.93883081005E+03 -0.20719163658E+03  0.11161940185E+04  0.12509244218E+03 0.  0.
        -24    2    1    2    0    0 -0.13880188672E+03  0.42698765561E+03 -0.78981822850E+02  0.46286236536E+03  0.80118781366E+02 0.  0.
        -11    1    3    3    0    0 -0.80359844604E+02  0.10654423761E+03 -0.11563399198E+03  0.17658029135E+03  0.00000000000E+00 0.  1.
         12    1    3    3    0    0 -0.33392895180E+03  0.40529891684E+03 -0.69974584705E+03  0.87488285347E+03  0.00000000000E+00 0. -1.
         13    1    5    5    0    0 -0.99459137792E+02  0.18502318323E+03 -0.22208124878E+02  0.21123186131E+03  0.00000000000E+00 0. -1.
        -14    1    5    5    0    0 -0.39342748931E+02  0.24196447237E+03 -0.56773697972E+02  0.25163050404E+03  0.00000000000E+00 0.  1.
          5    1    4    4  501    0  0.28430611005E+03 -0.60080196294E+03 -0.13652141374E+03  0.67856357970E+03  0.41800000000E+01 0.  1.
         -5    1    4    4    0  501  0.26878457308E+03 -0.33802884712E+03 -0.70670222841E+02  0.43763043884E+03  0.41800000000E+01 0.  1.
</event>
<event>
11    1  0.8328696E-009  0.1805654E+03  0.7561462E-02  0.1069186E+00
         22   -1    0    0    0    0  0.00000000000E+00  0.00000000000E+00  0.61126261857E+02  0.61126261857E+02  0.00000000000E+00 0. -1.
         22   -1    0    0    0    0 -0.00000000000E+00 -0.00000000000E+00 -0.15276985822E+04  0.15276985822E+04  0.00000000000E+00 0.  1.
        -24    2    1    2    0    0  0.42254297706E+02  0.12735100011E+02 -0.84314392277E+03  0.84830371657E+03  0.82340224672E+02 0.  0.
         25    2    1    2    0    0 -0.14501452065E+03  0.56876997363E+02 -0.51893035490E+03  0.55605728959E+03  0.12508713780E+03 0.  0.
         24    2    1    2    0    0  0.10276022295E+03 -0.69612097374E+02 -0.10449804265E+03  0.18446383786E+03  0.87758526890E+02 0.  0.
        -11    1    5    5    0    0  0.11744570191E+03 -0.66651989441E+02 -0.10209658653E+03  0.16929174101E+03  0.00000000000E+00 0.  1.
         12    1    5    5    0    0 -0.14685478964E+02 -0.29601079325E+01 -0.24014561119E+01  0.15172096850E+02  0.00000000000E+00 0. -1.
         13    1    3    3    0    0 -0.18982891608E+02  0.22140120091E+02 -0.36486980517E+03  0.36603348182E+03  0.00000000000E+00 0. -1.
        -14    1    3    3    0    0  0.61237189314E+02 -0.94050200800E+01 -0.47827411760E+03  0.48227023475E+03  0.00000000000E+00 0.  1.
          5    1    4    4  501    0 -0.14555578970E+03  0.86697807148E+02 -0.44894680619E+03  0.47986842454E+03  0.41800000000E+01 0.  1.
         -5    1    4    4    0  501  0.54126904448E+00 -0.29820809785E+02 -0.69983548701E+02  0.76188865048E+02  0.41800000000E+01 0.  1.
</event>
<event>
11    1  0.8328696E-009  0.1665174E+03  0.7561462E-02  0.1081103E+00
         22   -1    0    0    0    0  0.00000000000E+00  0.00000000000E+00  0.16042551410E+04  0.16042551410E+04  0.00000000000E+00 0.  1.
         22   -1    0    0    0    0 -0.00000000000E+00 -0.00000000000E+00 -0.10476969426E+04  0.10476969426E+04  0.00000000000E+00 0. -1.
        -24    2    1    2    0    0 -0.56587396030E+02 -0.31769762335E+02 -0.10213843431E+04  0.10265874197E+04  0.80276414551E+02 0.  0.
         25    2    1    2    0    0 -0.40596761962E+02 -0.39563882795E+02  0.21851993014E+03  0.25809599387E+03  0.12509669971E+03 0.  0.
         24    2    1    2    0    0  0.97184157991E+02  0.71333645130E+02  0.13594226114E+04  0.13672686700E+04  0.82828316968E+02 0.  0.
        -13    1    5    5    0    0  0.16705452242E+02  0.20370318971E+02  0.74855761516E+03  0.74902104460E+03  0.00000000000E+00 0.  1.
         14    1    5    5    0    0  0.80478705750E+02  0.50963326159E+02  0.61086499623E+03  0.61824762540E+03  0.00000000000E+00 0. -1.
         13    1    3    3    0    0 -0.70347507959E+02 -0.33850031781E+02 -0.97600254740E+03  0.97911979300E+03  0.00000000000E+00 0. -1.
        -14    1    3    3    0    0  0.13760111929E+02  0.20802694453E+01 -0.45381795705E+02  0.47467626681E+02  0.00000000000E+00 0.  1.
          5    1    4    4  501    0 -0.23893211036E+02 -0.59590021706E+02  0.22229372209E+03  0.23141699916E+03  0.41800000000E+01 0. -1.
         -5    1    4    4    0  501 -0.16703550926E+02  0.20026138911E+02 -0.37737919438E+01  0.26678994712E+02  0.41800000000E+01 0. -1.
</event>
<event>
11    1  0.8328696E-009  0.1449152E+03  0.7561462E-02  0.1102191E+00
         22   -1    0    0    0    0  0.00000000000E+00  0.00000000000E+00  0.13474620084E+04  0.13474620084E+04  0.00000000000E+00 0.  1.
         22   -1    0    0    0    0 -0.00000000000E+00 -0.00000000000E+00 -0.13440067574E+03  0.13440067574E+03  0.00000000000E+00 0. -1.
         24    2    1    2    0    0 -0.38277495808E+02 -0.40492547123E+02 -0.94090256898E+02  0.13630702385E+03  0.81374536866E+02 0.  0.
         25    2    1    2    0    0 -0.30083189472E+02 -0.51308910621E+01  0.24301852075E+03  0.27502164591E+03  0.12509028724E+03 0.  0.
        -24    2    1    2    0    0  0.68360685279E+02  0.45623438185E+02  0.10641330688E+04  0.10705340144E+04  0.83121636107E+02 0.  0.
        -13    1    3    3    0    0  0.90534483216E+01  0.89297041466E+01 -0.57139230838E+02  0.58537135593E+02  0.00000000000E+00 0.  1.
         14    1    3    3    0    0 -0.47330944129E+02 -0.49422251269E+02 -0.36951026060E+02  0.77769888257E+02  0.00000000000E+00 0. -1.
         11    1    5    5    0    0 -0.11335371356E+02 -0.13502257296E+02  0.15211515744E+03  0.15313334947E+03  0.00000000000E+00 0. -1.
        -12    1    5    5    0    0  0.79696056635E+02  0.59125695481E+02  0.91201791139E+03  0.91740066493E+03  0.00000000000E+00 0.  1.
          5    1    4    4  501    0 -0.19683552042E+02  0.37650513430E+02  0.22197902666E+03  0.22604681829E+03  0.41800000000E+01 0.  1.
         -5    1    4    4    0  501 -0.10399637430E+02 -0.42781404492E+02  0.21039494088E+02  0.48974827621E+02  0.41800000000E+01 0.  1.
</event>
<event>
11    1  0.8328696E-009  0.2614635E+03  0.7561462E-02  0.1017964E+00
         22   -1    0    0    0    0  0.00000000000E+00  0.00000000000E+00  0.18789717353E+04  0.18789717353E+04  0.00000000000E+00 0.  1.
         22   -1    0    0    0    0 -0.00000000000E+00 -0.00000000000E+00 -0.13025892262E+04  0.13025892262E+04  0.00000000000E+00 0. -1.
        -24    2    1    2    0    0 -0.22167099047E+03 -0.27909470431E+02 -0.74021920794E+03  0.77772987822E+03  0.83799290697E+02 0.  0.
         25    2    1    2    0    0  0.24270088864E+03 -0.78760431430E+01 -0.50798252390E+03  0.57676538642E+03  0.12508522288E+03 0.  0.
         24    2    1    2    0    0 -0.21029898169E+02  0.35785513574E+02  0.18245842409E+04  0.18270656969E+04  0.85665331330E+02 0.  0.
        -11    1    5    5    0    0  0.28431482269E+02  0.26561035510E+02  0.11259438113E+04  0.11266158635E+04  0.00000000000E+00 0.  1.
         12    1    5    5    0    0 -0.49461380438E+02  0.92244780641E+01  0.69864042965E+03  0.70044983339E+03  0.00000000000E+00 0. -1.
         11    1    3    3    0    0 -0.21073104967E+03 -0.22889972525E+01 -0.65071308847E+03  0.68398855130E+03  0.00000000000E+00 0. -1.
        -12    1    3    3    0    0 -0.10939940799E+02 -0.25620473179E+02 -0.89506119462E+02  0.93741326915E+02  0.00000000000E+00 0.  1.
          5    1    4    4  501    0  0.21879826529E+03  0.35540633400E+00 -0.50572489957E+03  0.55104260603E+03  0.41800000000E+01 0.  1.
         -5    1    4    4    0  501  0.23902623351E+02 -0.82314494770E+01 -0.22576243241E+01  0.25722780393E+02  0.41800000000E+01 0.  1.
</event>
<event>
11    1  0.8328696E-009  0.3086362E+03  0.7561462E-02  0.9966010E-01
         22   -1    0    0    0    0  0.00000000000E+00  0.00000000000E+00  0.26266751178E+03  0.26266751178E+03  0.00000000000E+00 0.  1.
         22   -1    0    0    0    0 -0.00000000000E+00 -0.00000000000E+00 -0.69701425271E+03  0.69701425271E+03  0.00000000000E+00 0. -1.
        -24    2    1    2    0    0 -0.14621375600E+03  0.13136275778E+03 -0.10235255469E+03  0.23795810154E+03  0.86679732708E+02 0.  0.
         25    2    1    2    0    0  0.33688081017E+03  0.93908875592E+00 -0.32266925318E+03  0.48296227212E+03  0.12509015626E+03 0.  0.
         24    2    1    2    0    0 -0.19066705417E+03 -0.13230184654E+03 -0.93249330602E+01  0.23876139083E+03  0.55338442612E+02 0.  0.
        -13    1    5    5    0    0 -0.12149434368E+03 -0.54072376404E+02 -0.16940195514E+02  0.13405844868E+03  0.00000000000E+00 0.  1.
         14    1    5    5    0    0 -0.69172710485E+02 -0.78229470132E+02  0.76152624538E+01  0.10470294215E+03  0.00000000000E+00 0. -1.
         13    1    3    3    0    0 -0.14630607186E+03  0.12015136253E+03 -0.11464049398E+03  0.22132387905E+03  0.00000000000E+00 0. -1.
        -14    1    3    3    0    0  0.92315856030E-01  0.11211395255E+02  0.12287939291E+02  0.16634222489E+02  0.00000000000E+00 0.  1.
          5    1    4    4  501    0  0.33017062501E+03 -0.29707364576E+01 -0.33328071696E+03  0.46916412436E+03  0.41800000000E+01 0.  1.
         -5    1    4    4    0  501  0.67101851613E+01  0.39098252135E+01  0.10611463774E+02  0.13798147757E+02  0.41800000000E+01 0.  1.
</event>
<event>
11    1  0.8328696E-009  0.1975117E+03  0.7561462E-02  0.1056297E+00
         22   -1    0    0    0    0  0.00000000000E+00  0.00000000000E+00  0.45356779354E+03  0.45356779354E+03  0.00000000000E+00 0. -1.
         22   -1    0    0    0    0 -0.00000000000E+00 -0.00000000000E+00 -0.29817790887E+04  0.29817790887E+04  0.00000000000E+00 0. -1.
         24    2    1    2    0    0 -0.59827356215E+02  0.20255011768E+02 -0.20144250959E+04  0.20170353262E+04  0.80829834435E+02 0.  0.
         25    2    1    2    0    0  0.20456964478E+03 -0.65779821674E+02 -0.93268083320E+03  0.96525500410E+03  0.12509181354E+03 0.  0.
        -24    2    1    2    0    0 -0.14474228856E+03  0.45524809906E+02  0.41889463394E+03  0.45305655194E+03  0.82247714209E+02 0.  0.
        -11    1    3    3    0    0 -0.32083992764E+02 -0.12905743364E+01 -0.22645110865E+03  0.22871631508E+03  0.00000000000E+00 0.  1.
         12    1    3    3    0    0 -0.27743363451E+02  0.21545586105E+02 -0.17879739872E+04  0.17883190111E+04  0.00000000000E+00 0. -1.
         13    1    5    5    0    0 -0.55676340286E+02 -0.21622216498E+02  0.17374148277E+03  0.18372119624E+03  0.00000000000E+00 0. -1.
        -14    1    5    5    0    0 -0.89065948275E+02  0.67147026404E+02  0.24515315117E+03  0.26933535570E+03  0.00000000000E+00 0.  1.
          5    1    4    4  501    0  0.48234353236E+02 -0.52825964423E+02 -0.14091284445E+03  0.15808553850E+03  0.41800000000E+01 0. -1.
         -5    1    4    4    0  501  0.15633529154E+03 -0.12953857251E+02 -0.79176798875E+03  0.80716946561E+03  0.41800000000E+01 0. -1.
</event>
<event>
11    1  0.8328696E-009  0.1361182E+03  0.7561462E-02  0.1111972E+00
         22   -1    0    0    0    0  0.00000000000E+00  0.00000000000E+00  0.35927742633E+03  0.35927742633E+03  0.00000000000E+00 0.  1.
         22   -1    0    0    0    0 -0.00000000000E+00 -0.00000000000E+00 -0.25902300078E+03  0.25902300078E+03  0.00000000000E+00 0.  1.
         24    2    1    2    0    0  0.40713868802E+02 -0.36471612107E+02 -0.18101209686E+03  0.20377306658E+03  0.75962397622E+02 0.  0.
         25    2    1    2    0    0 -0.25691184795E+01  0.63337249415E+02  0.22924881917E+02  0.14209540871E+03  0.12508935780E+03 0.  0.
        -24    2    1    2    0    0 -0.38144750322E+02 -0.26865637308E+02  0.25834164049E+03  0.27243195181E+03  0.72814701179E+02 0.  0.
        -13    1    3    3    0    0  0.33113264927E+01 -0.38187050691E+02 -0.15099547791E+03  0.15578462721E+03  0.00000000000E+00 0.  1.
         14    1    3    3    0    0  0.37402542309E+02  0.17154385835E+01 -0.30016618944E+02  0.47988439374E+02  0.00000000000E+00 0. -1.
         13    1    5    5    0    0 -0.18436762522E+02  0.23047248702E+02  0.58676522118E+02  0.65681231207E+02  0.00000000000E+00 0. -1.
        -14    1    5    5    0    0 -0.19707987800E+02 -0.49912886010E+02  0.19966511838E+03  0.20675072060E+03  0.00000000000E+00 0.  1.
          5    1    4    4  501    0 -0.52376995334E+02  0.13756811664E+02  0.42563348032E+02  0.69005148381E+02  0.41800000000E+01 0. -1.
         -5    1    4    4    0  501  0.49807876854E+02  0.49580437751E+02 -0.19638466115E+02  0.73090260334E+02  0.41800000000E+01 0. -1.
</event>
<event>
11    1  0.8328696E-009  0.1393045E+03  0.7561462E-02  0.1108338E+00
         22   -1    0    0    0    0  0.00000000000E+00  0.00000000000E+00  0.16362879679E+03  0.16362879679E+03  0.00000000000E+00 0.  1.
         22   -1    0    0    0    0 -0.00000000000E+00 -0.00000000000E+00 -0.18824273066E+04  0.18824273066E+04  0.00000000000E+00 0. -1.
         24    2    1    2    0    0 -0.19217238748E+02 -0.61023527666E+02 -0.15974810301E+04  0.16008951563E+04  0.82622557049E+02 0.  0.
         25    2    1    2    0    0  0.25937092818E+02  0.29710494422E+02 -0.25457581723E+03  0.28637855226E+03  0.12509349388E+03 0.  0.
        -24    2    1    2    0    0 -0.67198540698E+01  0.31313033244E+02  0.13325833750E+03  0.15878239479E+03  0.80177315312E+02 0.  0.
        -13    1    3    3    0    0  0.87473868115E+01  0.60665904665E+00 -0.18588247073E+02  0.20552560436E+02  0.00000000000E+00 0.  1.
         14    1    3    3    0    0 -0.27964625559E+02 -0.61630186713E+02 -0.15788927830E+04  0.15803425959E+04  0.00000000000E+00 0. -1.
         13    1    5    5    0    0 -0.77567739073E+01 -0.16122809044E+02  0.60825514902E+00  0.17902024669E+02  0.00000000000E+00 0. -1.
        -14    1    5    5    0    0  0.10369198375E+01  0.47435842288E+02  0.13265008235E+03  0.14088037012E+03  0.00000000000E+00 0.  1.
          5    1    4    4  501    0  0.52964210001E+02  0.59137044866E+02 -0.10618865590E+03  0.13264954074E+03  0.41800000000E+01 0. -1.
         -5    1    4    4    0  501 -0.27027117184E+02 -0.29426550444E+02 -0.14838716134E+03  0.15372901152E+03  0.41800000000E+01 0. -1.
</event>
<event>
11    1  0.8328696E-009  0.1426527E+03  0.7561462E-02  0.1104632E+00
         22   -1    0    0    0    0  0.00000000000E+00  0.00000000000E+00  0.22133887258E+03  0.22133887258E+03  0.00000000000E+00 0. -1.
         22   -1    0    0    0    0 -0.00000000000E+00 -0.00000000000E+00 -0.22740140487E+04  0.22740140487E+04  0.00000000000E+00 0. -1.
        -24    2    1    2    0    0  0.59151608871E+02 -0.81370264061E+01 -0.21635016622E+04  0.21659821635E+04  0.84700451428E+02 0.  0.
         25    2    1    2    0    0 -0.29225333076E+02  0.72383737339E+02 -0.30726129015E+02  0.15061726898E+03  0.12509173109E+03 0.  0.
         24    2    1    2    0    0 -0.29926275796E+02 -0.64246710933E+02  0.14155261503E+03  0.17875348879E+03  0.83020750927E+02 0.  0.
        -13    1    5    5    0    0  0.18161403640E+02 -0.32368030746E+02  0.15685634253E+02  0.40293487296E+02  0.00000000000E+00 0.  1.
         14    1    5    5    0    0 -0.48087679436E+02 -0.31878680187E+02  0.12586698078E+03  0.13846000150E+03  0.00000000000E+00 0. -1.
         11    1    3    3    0    0  0.54394150345E+02 -0.33785143564E+02 -0.19237897055E+04  0.19248550570E+04  0.00000000000E+00 0. -1.
        -12    1    3    3    0    0  0.47574585262E+01  0.25648117158E+02 -0.23971195664E+03  0.24112710649E+03  0.00000000000E+00 0.  1.
          5    1    4    4  501    0  0.11905359161E+02  0.82205306717E+02 -0.56845104305E+02  0.10073871308E+03  0.41800000000E+01 0.  1.
         -5    1    4    4    0  501 -0.41130692236E+02 -0.98215693781E+01  0.26118975290E+02  0.49878555904E+02  0.41800000000E+01 0.  1.
</event>
<event>
11    1  0.8328696E-009  0.1508666E+03  0.7561462E-02  0.1095997E+00
         22   -1    0    0    0    0  0.00000000000E+00  0.00000000000E+00  0.15603475160E+04  0.15603475160E+04  0.00000000000E+00 0. -1.
         22   -1    0    0    0    0 -0.00000000000E+00 -0.00000000000E+00 -0.43447049629E+02  0.43447049629E+02  0.00000000000E+00 0.  1.
        -24    2    1    2    0    0  0.29756934223E+02  0.34871403625E+02  0.49415832454E+02  0.10554376858E+03  0.81216209372E+02 0.  0.
         25    2    1    2    0    0 -0.49883991504E+02 -0.10631614842E+03  0.61775373213E+03  0.64113861435E+03  0.12509002048E+03 0.  0.
         24    2    1    2    0    0  0.20127057280E+02  0.71444744796E+02  0.84973090181E+03  0.85711218272E+03  0.84197614459E+02 0.  0.
        -13    1    5    5    0    0  0.17759188063E+02 -0.13775538287E+02  0.29654548483E+03  0.29739599659E+03  0.00000000000E+00 0.  1.
         14    1    5    5    0    0  0.23678692175E+01  0.85220283083E+02  0.55318541698E+03  0.55971618612E+03  0.00000000000E+00 0. -1.
         11    1    3    3    0    0 -0.40681826223E+01  0.17629917957E+02  0.62748442153E+02  0.65304908771E+02  0.00000000000E+00 0. -1.
        -12    1    3    3    0    0  0.33825116846E+02  0.17241485668E+02 -0.13332609699E+02  0.40238859813E+02  0.00000000000E+00 0.  1.
          5    1    4    4  501    0  0.37332005646E+02 -0.56307092853E+01  0.15394019442E+03  0.15855736940E+03  0.41800000000E+01 0.  1.
         -5    1    4    4    0  501 -0.87215997150E+02 -0.10068543914E+03  0.46381353771E+03  0.48258124495E+03  0.41800000000E+01 0.  1.
</event>
<event>
11    1  0.8328696E-009  0.1306364E+03  0.7561462E-02  0.1118489E+00
         22   -1    0    0    0    0  0.00000000000E+00  0.00000000000E+00  0.32197915028E+03  0.32197915028E+03  0.00000000000E+00 0. -1.
         22   -1    0    0    0    0 -0.00000000000E+00 -0.00000000000E+00 -0.50615606160E+03  0.50615606160E+03  0.00000000000E+00 0.  1.
         24    2    1    2    0    0 -0.31405955199E+02  0.14634402172E+02 -0.35894529526E+03  0.37011885221E+03  0.83341106427E+02 0.  0.
         25    2    1    2    0    0  0.44831207117E+02 -0.36829395131E+02 -0.10027522028E+03  0.17049669255E+03  0.12509101043E+03 0.  0.
        -24    2    1    2    0    0 -0.13425251917E+02  0.22194992959E+02  0.27504360422E+03  0.28751966712E+03  0.79660025447E+02 0.  0.
        -13    1    3    3    0    0 -0.24732758826E+02  0.40570184385E+02 -0.31568002763E+03  0.31923585179E+03  0.00000000000E+00 0.  1.
         14    1    3    3    0    0 -0.66731963731E+01 -0.25935782213E+02 -0.43265267632E+02  0.50883000424E+02  0.00000000000E+00 0. -1.
         13    1    5    5    0    0 -0.23167608808E+02  0.45608176963E+02  0.23189920734E+03  0.23747439076E+03  0.00000000000E+00 0. -1.
        -14    1    5    5    0    0  0.97423568910E+01 -0.23413184005E+02  0.43144396889E+02  0.50045276360E+02  0.00000000000E+00 0.  1.
          5    1    4    4  501    0  0.64602995847E+02 -0.72167742060E+02 -0.75076500691E+02  0.12262007757E+03  0.41800000000E+01 0.  1.
         -5    1    4    4    0  501 -0.19771788730E+02  0.35338346929E+02 -0.25198719585E+02  0.47876614981E+02  0.41800000000E+01 0.  1.
</event>
<event>
11    1  0.8328696E-009  0.2098598E+03  0.7561462E-02  0.1047762E+00
         22   -1    0    0    0    0  0.00000000000E+00  0.00000000000E+00  0.10137556369E+04  0.10137556369E+04  0.00000000000E+00 0. -1.
         22   -1    0    0    0    0 -0.00000000000E+00 -0.00000000000E+00 -0.23316677715E+03  0.23316677715E+03  0.00000000000E+00 0.  1.
        -24    2    1    2    0    0  0.21141579150E+02  0.91332784562E+02 -0.11009084556E+03  0.16555663445E+03  0.80624816463E+02 0.  0.
         25    2    1    2    0    0 -0.11610472193E+03 -0.21841643177E+03  0.14300509888E+03  0.31190278872E+03  0.12508735822E+03 0.  0.
         24    2    1    2    0    0  0.94963142783E+02  0.12708364720E+03  0.74767460639E+03  0.76946299083E+03  0.88812866986E+02 0.  0.
        -11    1    5    5    0    0 -0.52195398622E-01  0.58367877586E+02  0.35100349324E+03  0.35582336085E+03  0.00000000000E+00 0.  1.
         12    1    5    5    0    0  0.95015338181E+02  0.68715769618E+02  0.39667111315E+03  0.41363962998E+03  0.00000000000E+00 0. -1.
         13    1    3    3    0    0  0.18760758062E+02  0.53867909421E+00  0.45355440891E+01  0.19308738395E+02  0.00000000000E+00 0. -1.
        -14    1    3    3    0    0  0.23808210885E+01  0.90794105468E+02 -0.11462638965E+03  0.14624789606E+03  0.00000000000E+00 0.  1.
          5    1    4    4  501    0  0.24452514641E+02 -0.28411138894E+02  0.46345227181E+01  0.38000914283E+02  0.41800000000E+01 0. -1.
         -5    1    4    4    0  501 -0.14055723657E+03 -0.19000529287E+03  0.13837057616E+03  0.27390187444E+03  0.41800000000E+01 0. -1.
</event>
<event>
11    1  0.8328696E-009  0.1314737E+03  0.7561462E-02  0.1117471E+00
         22   -1    0    0    0    0  0.00000000000E+00  0.00000000000E+00  0.82443754684E+03  0.82443754684E+03  0.00000000000E+00 0.  1.
         22   -1    0    0    0    0 -0.00000000000E+00 -0.00000000000E+00 -0.72949125242E+02  0.72949125242E+02  0.00000000000E+00 0. -1.
         24    2    1    2    0    0 -0.80821579992E+01 -0.39962093873E+02  0.65246470049E+01  0.90759773254E+02  0.80823729176E+02 0.  0.
         25    2    1    2    0    0  0.12647098641E+02  0.37833536897E+02  0.12463371363E+03  0.18102407525E+03  0.12507928537E+03 0.  0.
        -24    2    1    2    0    0 -0.45649406420E+01  0.21285569755E+01  0.62033006096E+03  0.62560282358E+03  0.80895852177E+02 0.  0.
        -13    1    3    3    0    0  0.27690951207E+02 -0.92467833650E+01  0.26617539168E+02  0.39506773757E+02  0.00000000000E+00 0.  1.
         14    1    3    3    0    0 -0.35773109206E+02 -0.30715310508E+02 -0.20092892163E+02  0.51252999496E+02  0.00000000000E+00 0. -1.
         13    1    5    5    0    0  0.33734604203E+01  0.24695298230E+02  0.62880348969E+02  0.67640049352E+02  0.00000000000E+00 0. -1.
        -14    1    5    5    0    0 -0.79384010622E+01 -0.22566741255E+02  0.55744971199E+03  0.55796277422E+03  0.00000000000E+00 0.  1.
          5    1    4    4  501    0  0.53576348685E+02 -0.10303912399E+02  0.98177110774E+02  0.11239578831E+03  0.41800000000E+01 0.  1.
         -5    1    4    4    0  501 -0.40929250044E+02  0.48137449297E+02  0.26456602858E+02  0.68628286943E+02  0.41800000000E+01 0.  1.
</event>
<event>
11    1  0.8328696E-009  0.1523668E+03  0.7561462E-02  0.1094485E+00
         22   -1    0    0    0    0  0.00000000000E+00  0.00000000000E+00  0.88736806893E+03  0.88736806893E+03  0.00000000000E+00 0. -1.
         22   -1    0    0    0    0 -0.00000000000E+00 -0.00000000000E+00 -0.34351443393E+03  0.34351443393E+03  0.00000000000E+00 0.  1.
        -24    2    1    2    0    0  0.62966719477E+02 -0.58422126672E+02 -0.26070273831E+03  0.28575291476E+03  0.79440908142E+02 0.  0.
         25    2    1    2    0    0 -0.52015977950E+02  0.83071937291E+02  0.23685830129E+02  0.16067152502E+03  0.12509081372E+03 0.  0.
         24    2    1    2    0    0 -0.10950741527E+02 -0.24649810618E+02  0.78087054318E+03  0.78445806308E+03  0.69915060035E+02 0.  0.
        -11    1    5    5    0    0  0.61162790589E+01 -0.30446756774E+02  0.14301448178E+03  0.14634738080E+03  0.00000000000E+00 0.  1.
         12    1    5    5    0    0 -0.17067020586E+02  0.57969461563E+01  0.63785606140E+03  0.63811068228E+03  0.00000000000E+00 0. -1.
         13    1    3    3    0    0  0.10889411145E+02 -0.63695325589E+02 -0.14049284494E+03  0.15464124048E+03  0.00000000000E+00 0. -1.
        -14    1    3    3    0    0  0.52077308332E+02  0.52731989166E+01 -0.12020989337E+03  0.13111167429E+03  0.00000000000E+00 0.  1.
          5    1    4    4  501    0 -0.25689351878E+02  0.11174773519E+03  0.34928697004E+02  0.11993742283E+03  0.41800000000E+01 0.  1.
         -5    1    4    4    0  501 -0.26326626072E+02 -0.28675797904E+02 -0.11242866876E+02  0.40734102192E+02  0.41800000000E+01 0.  1.
</event>
<event>
11    1  0.8328696E-009  0.1743183E+03  0.7561462E-02  0.1074334E+00
         22   -1    0    0    0    0  0.00000000000E+00  0.00000000000E+00  0.79975584437E+03  0.79975584437E+03  0.00000000000E+00 0. -1.
         22   -1    0    0    0    0 -0.00000000000E+00 -0.00000000000E+00 -0.87532498957E+03  0.87532498957E+03  0.00000000000E+00 0. -1.
        -24    2    1    2    0    0  0.56094503826E+01 -0.47397509646E+02 -0.80480329039E+03  0.81044113584E+03  0.82634790445E+02 0.  0.
         25    2    1    2    0    0 -0.52298628265E+02 -0.69948406996E+02  0.37587328126E+02  0.15712581298E+03  0.12509111763E+03 0.  0.
         24    2    1    2    0    0  0.46689177882E+02  0.11734591664E+03  0.69164681707E+03  0.70751388512E+03  0.79060954867E+02 0.  0.
        -13    1    5    5    0    0  0.38182963307E+02  0.57549893205E+02  0.18848324987E+03  0.20073829823E+03  0.00000000000E+00 0.  1.
         14    1    5    5    0    0  0.85062145749E+01  0.59796023436E+02  0.50316356720E+03  0.50677558689E+03  0.00000000000E+00 0. -1.
         13    1    3    3    0    0  0.20549836321E+01 -0.55000730515E+02 -0.79725657719E+03  0.79915414857E+03  0.00000000000E+00 0. -1.
        -14    1    3    3    0    0  0.35544667505E+01  0.76032208692E+01 -0.75467132017E+01  0.11286987269E+02  0.00000000000E+00 0.  1.
          5    1    4    4  501    0 -0.66817753276E+02 -0.20135813199E+02 -0.26320477719E+02  0.74701426180E+02  0.41800000000E+01 0.  1.
         -5    1    4    4    0  501  0.14519125011E+02 -0.49812593797E+02  0.63907805845E+02  0.82424386803E+02  0.41800000000E+01 0.  1.
</event>
<event>
11    1  0.8328696E-009  0.1794082E+03  0.7561462E-02  0.1070123E+00
         22   -1    0    0    0    0  0.00000000000E+00  0.00000000000E+00  0.11588940152E+04  0.11588940152E+04  0.00000000000E+00 0. -1.
         22   -1    0    0    0    0 -0.00000000000E+00 -0.00000000000E+00 -0.48316646437E+03  0.48316646437E+03  0.00000000000E+00 0. -1.
         24    2    1    2    0    0 -0.70692023642E+02  0.52132048207E+02 -0.41486794510E+03  0.43156859643E+03  0.80130698876E+02 0.  0.
         25    2    1    2    0    0  0.18801422880E+03 -0.13176430140E+02  0.18149314154E+03  0.29001830073E+03  0.12509150966E+03 0.  0.
        -24    2    1    2    0    0 -0.11732220516E+03 -0.38955618067E+02  0.90910235444E+03  0.92047358245E+03  0.74313425036E+02 0.  0.
        -11    1    3    3    0    0  0.10108569016E+02  0.51347399358E+00 -0.63478250499E+01  0.11947456046E+02  0.00000000000E+00 0.  1.
         12    1    3    3    0    0 -0.80800592658E+02  0.51618574213E+02 -0.40852012005E+03  0.41962114039E+03  0.00000000000E+00 0. -1.
         13    1    5    5    0    0 -0.61067091527E+02  0.17632025066E+02  0.35316481744E+03  0.35883905341E+03  0.00000000000E+00 0. -1.
        -14    1    5    5    0    0 -0.56255113632E+02 -0.56587643133E+02  0.55593753700E+03  0.56163452904E+03  0.00000000000E+00 0.  1.
          5    1    4    4  501    0  0.10767435265E+02  0.35215369862E+02  0.93851813668E+01  0.38231060226E+02  0.41800000000E+01 0. -1.
         -5    1    4    4    0  501  0.17724679354E+03 -0.48391800002E+02  0.17210796017E+03  0.25178724051E+03  0.41800000000E+01 0. -1.
</event>
<event>
11    1  0.8328696E-009  0.2613823E+03  0.7561462E-02  0.1018005E+00
         22   -1    0    0    0    0  0.00000000000E+00  0.00000000000E+00  0.14767208905E+04  0.14767208905E+04  0.00000000000E+00 0. -1.
         22   -1    0    0    0    0 -0.00000000000E+00 -0.00000000000E+00 -0.54030098279E+03  0.54030098279E+03  0.00000000000E+00 0. -1.
        -24    2    1    2    0    0 -0.13094381293E+02  0.47424687866E+02 -0.44805275961E+03  0.45773925906E+03  0.79708155471E+02 0.  0.
         25    2    1    2    0    0  0.10489616870E+03 -0.25049932952E+03  0.22069330670E+03  0.37162945781E+03  0.12509915261E+03 0.  0.
         24    2    1    2    0    0 -0.91801787410E+02  0.20307464166E+03  0.11637793606E+04  0.11876531564E+04  0.80440919396E+02 0.  0.
        -11    1    5    5    0    0 -0.45814566712E+02  0.44195329351E+02  0.20319744992E+03  0.21293521389E+03  0.00000000000E+00 0.  1.
         12    1    5    5    0    0 -0.45987220698E+02  0.15887931231E+03  0.96058191069E+03  0.97471794253E+03  0.00000000000E+00 0. -1.
         13    1    3    3    0    0 -0.21061898733E+02  0.39478550731E+02 -0.44325289114E+03  0.44550565097E+03  0.00000000000E+00 0. -1.
        -14    1    3    3    0    0  0.79675174400E+01  0.79461371354E+01 -0.47998684772E+01  0.12233608091E+02  0.00000000000E+00 0.  1.
          5    1    4    4  501    0  0.43545161185E+02 -0.35244663952E+01  0.24413728633E+02  0.50220568214E+02  0.41800000000E+01 0.  1.
         -5    1    4    4    0  501  0.61351007518E+02 -0.24697486313E+03  0.19627957807E+03  0.32140888959E+03  0.41800000000E+01 0.  1.
</event>
<event>
11    1  0.8328696E-009  0.1433506E+03  0.7561462E-02  0.1103874E+00
         22   -1    0    0    0    0  0.00000000000E+00  0.00000000000E+00  0.31887689858E+03  0.31887689858E+03  0.00000000000E+00 0. -1.
         22   -1    0    0    0    0 -0.00000000000E+00 -0.00000000000E+00 -0.18661249605E+03  0.18661249605E+03  0.00000000000E+00 0.  1.
        -24    2    1    2    0    0  0.33062619176E+02  0.13542070688E+02 -0.83794278969E+02  0.12100942140E+03  0.79657230773E+02 0.  0.
         25    2    1    2    0    0  0.26917499072E+02  0.30258194090E+02 -0.15337241071E+02  0.13237417527E+03  0.12509029239E+03 0.  0.
         24    2    1    2    0    0 -0.59980118248E+02 -0.43800264778E+02  0.23139592257E+03  0.25210579796E+03  0.67061036408E+02 0.  0.
        -13    1    5    5    0    0 -0.38032192586E+02 -0.40164729397E+01  0.39800670973E+02  0.55196676872E+02  0.00000000000E+00 0.  1.
         14    1    5    5    0    0 -0.21947925662E+02 -0.39783791838E+02  0.19159525159E+03  0.19690912109E+03  0.00000000000E+00 0. -1.
         11    1    3    3    0    0  0.37011743449E+02  0.35862800200E+02 -0.23589248514E+02  0.56678587110E+02  0.00000000000E+00 0. -1.
        -12    1    3    3    0    0 -0.39491242725E+01 -0.22320729512E+02 -0.60205030455E+02  0.64330834291E+02  0.00000000000E+00 0.  1.
          5    1    4    4  501    0 -0.32296493524E+02 -0.27277510456E+02 -0.24760733931E+02  0.49170035748E+02  0.41800000000E+01 0.  1.
         -5    1    4    4    0  501  0.59213992596E+02  0.57535704546E+02  0.94234928598E+01  0.83204139527E+02  0.41800000000E+01 0.  1.
</event>
<event>
11    1  0.8328696E-009  0.2303956E+03  0.7561462E-02  0.1034894E+00
         22   -1    0    0    0    0  0.00000000000E+00  0.00000000000E+00  0.89565314102E+03  0.89565314102E+03  0.00000000000E+00 0.  1.
         22   -1    0    0    0    0 -0.00000000000E+00 -0.00000000000E+00 -0.86315685531E+03  0.86315685531E+03  0.00000000000E+00 0. -1.
         24    2    1    2    0    0 -0.20118988494E+02  0.18378818359E+03 -0.53175688239E+03  0.56864389136E+03  0.80047630083E+02 0.  0.
         25    2    1    2    0    0  0.11205442196E+03 -0.20377172199E+03 -0.25167445248E+03  0.36478346014E+03  0.12509130504E+03 0.  0.
        -24    2    1    2    0    0 -0.91935433465E+02  0.19983538397E+02  0.81592762058E+03  0.82538264483E+03  0.81652695169E+02 0.  0.
        -13    1    3    3    0    0  0.16490872733E+02  0.14837367330E+03 -0.42244002599E+03  0.44804271155E+03  0.00000000000E+00 0.  1.
         14    1    3    3    0    0 -0.36609861226E+02  0.35414510291E+02 -0.10931685640E+03  0.12060117981E+03  0.00000000000E+00 0. -1.
         11    1    5    5    0    0 -0.10356269043E+03  0.94633520907E+01  0.60498064832E+03  0.61385370466E+03  0.00000000000E+00 0. -1.
        -12    1    5    5    0    0  0.11627256964E+02  0.10520186306E+02  0.21094697225E+03  0.21152894017E+03  0.00000000000E+00 0.  1.
          5    1    4    4  501    0  0.47670284724E+02 -0.19275316745E+03 -0.18956446809E+03  0.27455126947E+03  0.41800000000E+01 0. -1.
         -5    1    4    4    0  501  0.64384137235E+02 -0.11018554546E+02 -0.62109984385E+02  0.90232190665E+02  0.41800000000E+01 0. -1.
</event>
<event>
11    1  0.8328696E-009  0.1302332E+03  0.7561462E-02  0.1118983E+00
         22   -1    0    0    0    0  0.00000000000E+00  0.00000000000E+00  0.91174517078E+02  0.91174517078E+02  0.00000000000E+00 0.  1.
         22   -1    0    0    0    0 -0.00000000000E+00 -0.00000000000E+00 -0.44021044592E+03  0.44021044592E+03  0.00000000000E+00 0. -1.
        -24    2    1    2    0    0  0.36658609244E+02  0.76383574645E+01 -0.27173405975E+03  0.28724091327E+03  0.85239338879E+02 0.  0.
         25    2    1    2    0    0 -0.33544193958E+02  0.14124858431E+02 -0.93403222760E+02  0.16029906729E+03  0.12508758683E+03 0.  0.
         24    2    1    2    0    0 -0.31144152857E+01 -0.21763215896E+02  0.16101353673E+02  0.83844982428E+02  0.79293066151E+02 0.  0.
        -11    1    5    5    0    0 -0.17452806903E+02 -0.44654076072E+01  0.44280692623E+02  0.47805021421E+02  0.00000000000E+00 0.  1.
         12    1    5    5    0    0  0.14338391617E+02 -0.17297808289E+02 -0.28179338950E+02  0.36039961007E+02  0.00000000000E+00 0. -1.
         13    1    3    3    0    0  0.26039376208E+02 -0.10304653370E+01 -0.27227762330E+03  0.27352187321E+03  0.00000000000E+00 0. -1.
        -14    1    3    3    0    0  0.10619233036E+02  0.86688228015E+01  0.54356354885E+00  0.13719040067E+02  0.00000000000E+00 0.  1.
          5    1    4    4  501    0  0.41378640784E+01  0.58956000574E+02 -0.12861505404E+02  0.60628562939E+02  0.41800000000E+01 0. -1.
         -5    1    4    4    0  501 -0.37682058036E+02 -0.44831142142E+02 -0.80541717355E+02  0.99670504354E+02  0.41800000000E+01 0. -1.
</event>
<event>
11    1  0.8328696E-009  0.2903403E+03  0.7561462E-02  0.1004364E+00
         22   -1    0    0    0    0  0.00000000000E+00  0.00000000000E+00  0.24688492929E+04  0.24688492929E+04  0.00000000000E+00 0. -1.
         22   -1    0    0    0    0 -0.00000000000E+00 -0.00000000000E+00 -0.11460436108E+03  0.11460436108E+03  0.00000000000E+00 0.  1.
        -24    2    1    2    0    0 -0.19953962285E+02  0.63344746051E+02 -0.31664883866E+02  0.11546025259E+03  0.88981389037E+02 0.  0.
         25    2    1    2    0    0  0.25761463448E+03 -0.14411701188E+03  0.82761625889E+03  0.88754173716E+03  0.12508657083E+03 0.  0.
         24    2    1    2    0    0 -0.23766067219E+03  0.80772265834E+02  0.15582935568E+04  0.15804516643E+04  0.80882011739E+02 0.  0.
        -13    1    5    5    0    0  0.49220539779E+01 -0.13401439244E+01  0.78065780664E+02  0.78232274106E+02  0.00000000000E+00 0.  1.
         14    1    5    5    0    0 -0.24258272617E+03  0.82112409758E+02  0.14802277762E+04  0.15022193902E+04  0.00000000000E+00 0. -1.
         11    1    3    3    0    0 -0.27951739297E+02 -0.98378743301E+01  0.94955000349E+01  0.31116683981E+02  0.00000000000E+00 0. -1.
        -12    1    3    3    0    0  0.79977770120E+01  0.73182620381E+02 -0.41160383901E+02  0.84343568610E+02  0.00000000000E+00 0.  1.
          5    1    4    4  501    0  0.14702229593E+02  0.20438304206E+02  0.94412875367E+02  0.97801550442E+02  0.41800000000E+01 0.  1.
         -5    1    4    4    0  501  0.24291240488E+03 -0.16455531609E+03  0.73320338353E+03  0.78974018672E+03  0.41800000000E+01 0.  1.
</event>
<event>
11    1  0.8328696E-009  0.1516025E+03  0.7561462E-02  0.1095253E+00
         22   -1    0    0    0    0  0.00000000000E+00  0.00000000000E+00  0.24453032677E+03  0.24453032677E+03  0.00000000000E+00 0. -1.
         22   -1    0    0    0    0 -0.00000000000E+00 -0.00000000000E+00 -0.11062733097E+04  0.11062733097E+04  0.00000000000E+00 0. -1.
         24    2    1    2    0    0 -0.56178666771E+01  0.88187121624E+02 -0.10090156952E+04  0.10161699650E+04  0.81732464722E+02 0.  0.
         25    2    1    2    0    0 -0.50914279382E+02 -0.38475763453E+02 -0.11784671520E+02  0.14094044176E+03  0.12511067669E+03 0.  0.
        -24    2    1    2    0    0  0.56532146059E+02 -0.49711358171E+02  0.15905738379E+03  0.19369322968E+03  0.80936476425E+02 0.  0.
        -13    1    3    3    0    0  0.22380172203E+01 -0.10779687886E+02 -0.27140853150E+02  0.29288842615E+02  0.00000000000E+00 0.  1.
         14    1    3    3    0    0 -0.78558838974E+01  0.98966809511E+02 -0.98187484205E+03  0.98688112240E+03  0.00000000000E+00 0. -1.
         13    1    5    5    0    0  0.11330122705E+02 -0.47955368445E+02  0.13220040817E+03  0.14108521171E+03  0.00000000000E+00 0. -1.
        -14    1    5    5    0    0  0.45202023354E+02 -0.17559897266E+01  0.26856975624E+02  0.52608017972E+02  0.00000000000E+00 0.  1.
          5    1    4    4  501    0 -0.34679323810E+02 -0.42559586185E+02 -0.64890824975E+02  0.85101500822E+02  0.41800000000E+01 0. -1.
         -5    1    4    4    0  501 -0.16234955571E+02  0.40838227323E+01  0.53106153455E+02  0.55838940940E+02  0.41800000000E+01 0. -1.
</event>
<event>
11    1  0.8328696E-009  0.2207749E+03  0.7561462E-02  0.1040733E+00
         22   -1    0    0    0    0  0.00000000000E+00  0.00000000000E+00  0.15753632042E+03  0.15753632042E+03  0.00000000000E+00 0.  1.
         22   -1    0    0    0    0 -0.00000000000E+00 -0.00000000000E+00 -0.14824892030E+04  0.14824892030E+04  0.00000000000E+00 0.  1.
        -24    2    1    2    0    0  0.54935802110E+02  0.79485586406E+02 -0.10882400791E+04  0.10954284455E+04  0.79756558863E+02 0.  0.
         25    2    1    2    0    0 -0.19753630362E+03 -0.15484723581E+03 -0.23206604900E+03  0.36400611169E+03  0.12509012975E+03 0.  0.
         24    2    1    2    0    0  0.14260050151E+03  0.75361649403E+02 -0.46467544823E+01  0.18059096622E+03  0.81100083367E+02 0.  0.
        -11    1    5    5    0    0  0.13819219300E+03  0.63182866567E+02 -0.27407410022E+02  0.15440311835E+03  0.00000000000E+00 0.  1.
         12    1    5    5    0    0  0.44083085102E+01  0.12178782836E+02  0.22760655540E+02  0.26187847867E+02  0.00000000000E+00 0. -1.
         13    1    3    3    0    0  0.99352472924E+01  0.79546790898E+02 -0.67346827107E+03  0.67822261332E+03  0.00000000000E+00 0. -1.
        -14    1    3    3    0    0  0.45000554818E+02 -0.61204492865E-01 -0.41477180801E+03  0.41720583217E+03  0.00000000000E+00 0.  1.
          5    1    4    4  501    0 -0.58621304112E+02 -0.20535540479E+02 -0.33574586911E+00  0.62255528620E+02  0.41800000000E+01 0.  1.
         -5    1    4    4    0  501 -0.13891499951E+03 -0.13431169533E+03 -0.23173030313E+03  0.30175058307E+03  0.41800000000E+01 0.  1.
</event>
<event>
11    1  0.8328696E-009  0.2381271E+03  0.7561462E-02  0.1030421E+00
         22   -1    0    0    0    0  0.00000000000E+00  0.00000000000E+00  0.19792515430E+04  0.19792515430E+04  0.00000000000E+00 0.  1.
         22   -1    0    0    0    0 -0.00000000000E+00 -0.00000000000E+00 -0.43374755642E+03  0.43374755642E+03  0.00000000000E+00 0. -1.
        -24    2    1    2    0    0  0.10155606919E+02 -0.20469402850E+03 -0.38136282254E+03  0.43954226327E+03  0.75875009919E+02 0.  0.
         25    2    1    2    0    0 -0.35251834768E+02  0.16160897180E+03  0.47198500476E+03  0.51553567926E+03  0.12508812992E+03 0.  0.
         24    2    1    2    0    0  0.25096227849E+02  0.43085056702E+02  0.14548818044E+04  0.14579211569E+04  0.79792808585E+02 0.  0.
        -11    1    5    5    0    0  0.27361882376E+02  0.46711676434E+02  0.14513932527E+04  0.14524025019E+04  0.00000000000E+00 0.  1.
         12    1    5    5    0    0 -0.22656545274E+01 -0.36266197322E+01  0.34885516630E+01  0.55186550740E+01  0.00000000000E+00 0. -1.
         13    1    3    3    0    0  0.26084722592E+02 -0.19513899364E+03 -0.32275638404E+03  0.37806259142E+03  0.00000000000E+00 0. -1.
        -14    1    3    3    0    0 -0.15929115673E+02 -0.95550348584E+01 -0.58606438505E+02  0.61479671856E+02  0.00000000000E+00 0.  1.
          5    1    4    4  501    0 -0.35821607546E+02  0.51369391572E+02  0.32902702087E+03  0.33496007944E+03  0.41800000000E+01 0. -1.
         -5    1    4    4    0  501  0.56977277831E+00  0.11023958023E+03  0.14295798389E+03  0.18057559981E+03  0.41800000000E+01 0. -1.
</event>
<event>
11    1  0.8328696E-009  0.1562959E+03  0.7561462E-02  0.1090614E+00
         22   -1    0    0    0    0  0.00000000000E+00  0.00000000000E+00  0.19075108427E+03  0.19075108427E+03  0.00000000000E+00 0.  1.
         22   -1    0    0    0    0 -0.00000000000E+00 -0.00000000000E+00 -0.86109918663E+03  0.86109918663E+03  0.00000000000E+00 0. -1.
        -24    2    1    2    0    0  0.74066774487E+01 -0.39579235336E+02 -0.70238285908E+03  0.70799102009E+03  0.79298354742E+02 0.  0.
         25    2    1    2    0    0 -0.70824164254E+02 -0.34723397825E+02 -0.89249411780E+02  0.17269086142E+03  0.12503959180E+03 0.  0.
         24    2    1    2    0    0  0.63417486805E+02  0.74302633161E+02  0.12128416850E+03  0.17116838937E+03  0.71035970215E+02 0.  0.
        -11    1    5    5    0    0  0.64910871205E+01  0.37058451887E+02  0.87432761258E+02  0.95183773877E+02  0.00000000000E+00 0.  1.
         12    1    5    5    0    0  0.56926399685E+02  0.37244181274E+02  0.33851407244E+02  0.75984615497E+02  0.00000000000E+00 0. -1.
         13    1    3    3    0    0 -0.17361733378E+02 -0.55178535582E+02 -0.52917213861E+03  0.53232438687E+03  0.00000000000E+00 0. -1.
        -14    1    3    3    0    0  0.24768410826E+02  0.15599300245E+02 -0.17321072047E+03  0.17566663323E+03  0.00000000000E+00 0.  1.
          5    1    4    4  501    0 -0.30983479982E+02  0.83867188406E+01 -0.10654426652E+03  0.11135289046E+03  0.41800000000E+01 0. -1.
         -5    1    4    4    0  501 -0.39840684272E+02 -0.43110116665E+02  0.17294854739E+02  0.61337970969E+02  0.41800000000E+01 0. -1.
</event>
<event>
11    1  0.8328696E-009  0.1628215E+03  0.7561462E-02  0.1084453E+00
         22   -1    0    0    0    0  0.00000000000E+00  0.00000000000E+00  0.20362374819E+04  0.20362374819E+04  0.00000000000E+00 0. -1.
         22   -1    0    0    0    0 -0.00000000000E+00 -0.00000000000E+00 -0.79051801306E+03  0.79051801306E+03  0.00000000000E+00 0.  1.
         24    2    1    2    0    0 -0.50282736206E+02 -0.57448611051E+02 -0.76487925860E+03  0.77287484027E+03  0.80414812162E+02 0.  0.
         25    2    1    2    0    0  0.46304612282E+02  0.15407097899E+03  0.53379852207E+03  0.57137570565E+03  0.12508937270E+03 0.  0.
        -24    2    1    2    0    0  0.39781239236E+01 -0.96622367937E+02  0.14768002054E+04  0.14825049491E+04  0.86777704087E+02 0.  0.
        -11    1    3    3    0    0 -0.66772677083E+02 -0.64545886629E+02 -0.65020190113E+03  0.65680078724E+03  0.00000000000E+00 0.  1.
         12    1    3    3    0    0  0.16489940877E+02  0.70972755786E+01 -0.11467735746E+03  0.11607405303E+03  0.00000000000E+00 0. -1.
         13    1    5    5    0    0 -0.18331821928E+02 -0.52838928439E+02  0.12050765036E+04  0.12063736518E+04  0.00000000000E+00 0. -1.
        -14    1    5    5    0    0  0.22309945852E+02 -0.43783439498E+02  0.27172370175E+03  0.27613129730E+03  0.00000000000E+00 0.  1.
          5    1    4    4  501    0  0.48642739993E+02  0.16535123716E+03  0.53168522832E+03  0.55893989140E+03  0.41800000000E+01 0. -1.
         -5    1    4    4    0  501 -0.23381277107E+01 -0.11280258173E+02  0.21132937489E+01  0.12435814252E+02  0.41800000000E+01 0. -1.
</event>
<event>
11    1  0.8328696E-009  0.1371791E+03  0.7561462E-02  0.1110750E+00
         22   -1    0    0    0    0  0.00000000000E+00  0.00000000000E+00  0.11733848502E+03  0.11733848502E+03  0.00000000000E+00 0.  1.
         22   -1    0    0    0    0 -0.00000000000E+00 -0.00000000000E+00 -0.55877795133E+03  0.55877795133E+03  0.00000000000E+00 0.  1.
         24    2    1    2    0    0  0.44647022329E+02  0.46070699208E+02 -0.23875108082E+03  0.25920695705E+03  0.77912143234E+02 0.  0.
         25    2    1    2    0    0 -0.36992311353E+02 -0.25979789786E+02 -0.27619840107E+03  0.30655612752E+03  0.12509085493E+03 0.  0.
        -24    2    1    2    0    0 -0.76547109757E+01 -0.20090909421E+02  0.73510015581E+02  0.11035335178E+03  0.79447470809E+02 0.  0.
        -11    1    3    3    0    0 -0.21743618708E+02  0.20028316199E+02 -0.66345436953E+02  0.72633569435E+02  0.00000000000E+00 0.  1.
         12    1    3    3    0    0  0.66390641037E+02  0.26042383008E+02 -0.17240564387E+03  0.18657338762E+03  0.00000000000E+00 0. -1.
         13    1    5    5    0    0 -0.39231114224E+02  0.43555124651E+01  0.51072013268E+02  0.64547667280E+02  0.00000000000E+00 0. -1.
        -14    1    5    5    0    0  0.31576403248E+02 -0.24446421886E+02  0.22438002313E+02  0.45805684505E+02  0.00000000000E+00 0.  1.
          5    1    4    4  501    0  0.32770699360E+02  0.24594961341E+02 -0.13448164202E+03  0.14064713044E+03  0.41800000000E+01 0. -1.
         -5    1    4    4    0  501 -0.69763010714E+02 -0.50574751127E+02 -0.14171675905E+03  0.16590899708E+03  0.41800000000E+01 0. -1.
</event>
<event>
11    1  0.9050509E-009  0.1490570E+03  0.7561462E-02  0.1097846E+00
         22   -1    0    0    0    0  0.00000000000E+00  0.00000000000E+00  0.11058922220E+04  0.11058922220E+04  0.00000000000E+00 0. -1.
         22   -1    0    0    0    0 -0.00000000000E+00 -0.00000000000E+00 -0.59755938001E+03  0.59755938001E+03  0.00000000000E+00 0.  1.
         24    2    1    2    0    0  0.22318664176E+02  0.64232066487E+02 -0.48192908080E+03  0.49347639998E+03  0.81482742255E+02 0.  0.
         25    2    1    2    0    0 -0.69590143001E+02 -0.12780028832E+03 -0.20504827280E+02  0.19298684765E+03  0.12509106175E+03 0.  0.
        -24    2    1    2    0    0  0.47271478825E+02  0.63568221828E+02  0.10107667501E+04  0.10169883544E+04  0.79626492673E+02 0.  0.
        -11    1    3    3    0    0  0.12288698195E+02  0.17030255544E+02 -0.38127230549E+03  0.38185024897E+03  0.00000000000E+00 0.  1.
         12    1    3    3    0    0  0.10029965982E+02  0.47201810943E+02 -0.10065677531E+03  0.11162615101E+03  0.00000000000E+00 0. -1.
         11    1    5    5    0    0  0.53611814133E+02  0.77862406316E+02  0.92404188337E+03  0.92886499727E+03  0.00000000000E+00 0. -1.
        -12    1    5    5    0    0 -0.63403353082E+01 -0.14294184488E+02  0.86724866724E+02  0.88123357122E+02  0.00000000000E+00 0.  1.
          5    1    4    4  501    0 -0.92570433014E+02 -0.96608244874E+02 -0.51260241785E+02  0.14334407150E+03  0.41800000000E+01 0. -1.
         -5    1    4    4    0  501  0.22980290013E+02 -0.31192043442E+02  0.30755414505E+02  0.49642776156E+02  0.41800000000E+01 0. -1.
</event>
<event>
11    1  0.8328696E-009  0.1668485E+03  0.7561462E-02  0.1080807E+00
         22   -1    0    0    0    0  0.00000000000E+00  0.00000000000E+00  0.49029817224E+03  0.49029817224E+03  0.00000000000E+00 0.  1.
         22   -1    0    0    0    0 -0.00000000000E+00 -0.00000000000E+00 -0.13320722756E+04  0.13320722756E+04  0.00000000000E+00 0.  1.
        -24    2    1    2    0    0 -0.11076496755E+02  0.31436882700E+02 -0.59770163378E+03  0.60403379557E+03  0.80613998807E+02 0.  0.
         25    2    1    2    0    0 -0.56995848045E+02  0.56036590670E+02 -0.71371684639E+03  0.72899077153E+03  0.12508869641E+03 0.  0.
         24    2    1    2    0    0  0.68072344800E+02 -0.87473473370E+02  0.46964437683E+03  0.48934588072E+03  0.81290206182E+02 0.  0.
        -11    1    5    5    0    0  0.24562281091E+02 -0.68895099278E+02  0.15772740536E+03  0.17386136650E+03  0.00000000000E+00 0.  1.
         12    1    5    5    0    0  0.43510063708E+02 -0.18578374092E+02  0.31191697146E+03  0.31548451422E+03  0.00000000000E+00 0. -1.
         11    1    3    3    0    0  0.14896488718E+02  0.43228288619E+02 -0.19357110317E+03  0.19889786901E+03  0.00000000000E+00 0. -1.
        -12    1    3    3    0    0 -0.25972985473E+02 -0.11791405919E+02 -0.40413053061E+03  0.40513592657E+03  0.00000000000E+00 0.  1.
          5    1    4    4  501    0 -0.53483713175E+02 -0.30002521178E+02 -0.26121452395E+03  0.26834894964E+03  0.41800000000E+01 0.  1.
         -5    1    4    4    0  501 -0.35121348699E+01  0.86039111848E+02 -0.45250232243E+03  0.46064182188E+03  0.41800000000E+01 0.  1.
</event>
<event>
11    1  0.8328696E-009  0.1539885E+03  0.7561462E-02  0.1092872E+00
         22   -1    0    0    0    0  0.00000000000E+00  0.00000000000E+00  0.31221529388E+03  0.31221529388E+03  0.00000000000E+00 0. -1.
         22   -1    0    0    0    0 -0.00000000000E+00 -0.00000000000E+00 -0.18948977435E+04  0.18948977435E+04  0.00000000000E+00 0. -1.
         24    2    1    2    0    0 -0.27461144383E+02  0.31330851948E+02 -0.18300160177E+04  0.18322128294E+04  0.79432300485E+02 0.  0.
         25    2    1    2    0    0 -0.51257041947E+02 -0.77716424385E+02  0.10555108214E+03  0.18829750165E+03  0.12509113165E+03 0.  0.
        -24    2    1    2    0    0  0.78718186329E+02  0.46385572437E+02  0.14178248596E+03  0.18660270633E+03  0.79813047146E+02 0.  0.
        -11    1    3    3    0    0 -0.37421573985E+02  0.48396109054E+02 -0.94601207375E+03  0.94798808075E+03  0.00000000000E+00 0.  1.
         12    1    3    3    0    0  0.99604296027E+01 -0.17065257106E+02 -0.88400394399E+03  0.88422474867E+03  0.00000000000E+00 0. -1.
         11    1    5    5    0    0  0.41637696954E+02  0.62365690974E+02  0.11779289954E+03  0.13963647232E+03  0.00000000000E+00 0. -1.
        -12    1    5    5    0    0  0.37080489375E+02 -0.15980118537E+02  0.23989586418E+02  0.46966234012E+02  0.00000000000E+00 0.  1.
          5    1    4    4  501    0 -0.43298786896E+02  0.21043357230E+01  0.98457580459E+02  0.10765955938E+03  0.41800000000E+01 0. -1.
         -5    1    4    4    0  501 -0.79582550503E+01 -0.79820760108E+02  0.70935016783E+01  0.80637942271E+02  0.41800000000E+01 0. -1.
</event>
<event>
11    1  0.8328696E-009  0.1401410E+03  0.7561462E-02  0.1107401E+00
         22   -1    0    0    0    0  0.00000000000E+00  0.00000000000E+00  0.20798930758E+04  0.20798930758E+04  0.00000000000E+00 0.  1.
         22   -1    0    0    0    0 -0.00000000000E+00 -0.00000000000E+00 -0.27208351233E+03  0.27208351233E+03  0.00000000000E+00 0. -1.
         24    2    1    2    0    0 -0.62710651936E+02 -0.23380175822E+01 -0.23051376703E+03  0.25235652925E+03  0.81296548974E+02 0.  0.
         25    2    1    2    0    0  0.72317015221E+02 -0.49005829234E+02  0.16835269758E+03  0.22719461423E+03  0.12507373811E+03 0.  0.
        -24    2    1    2    0    0 -0.96063632853E+01  0.51343846816E+02  0.18699706329E+04  0.18724254446E+04  0.80364202153E+02 0.  0.
        -13    1    3    3    0    0  0.90081473835E+01 -0.25710472184E+02 -0.63679184643E+02  0.69261920678E+02  0.00000000000E+00 0.  1.
         14    1    3    3    0    0 -0.71718799319E+02  0.23372454602E+02 -0.16683458238E+03  0.18309460857E+03  0.00000000000E+00 0. -1.
         13    1    5    5    0    0  0.25967082217E+02 -0.11243759215E+01  0.28352859594E+03  0.28471743589E+03  0.00000000000E+00 0. -1.
        -14    1    5    5    0    0 -0.35573445503E+02  0.52468222738E+02  0.15864420369E+04  0.15877080087E+04  0.00000000000E+00 0.  1.
          5    1    4    4  501    0  0.77265728755E+02 -0.84819060986E+02  0.14001559393E+03  0.18106933724E+03  0.41800000000E+01 0. -1.
         -5    1    4    4    0  501 -0.49487135341E+01  0.35813231752E+02  0.28337103655E+02  0.46125276993E+02  0.41800000000E+01 0. -1.
</event>
<event>
11    1  0.8328696E-009  0.1648633E+03  0.7561462E-02  0.1082590E+00
         22   -1    0    0    0    0  0.00000000000E+00  0.00000000000E+00  0.83604806407E+03  0.83604806407E+03  0.00000000000E+00 0.  1.
         22   -1    0    0    0    0 -0.00000000000E+00 -0.00000000000E+00 -0.27528185300E+03  0.27528185300E+03  0.00000000000E+00 0. -1.
        -24    2    1    2    0    0  0.78630227086E+02  0.67850236291E+02 -0.19778219612E+03  0.23720606818E+03  0.79765622330E+02 0.  0.
         25    2    1    2    0    0 -0.78367681920E+02 -0.11741234883E+03  0.10923779892E+03  0.21795966577E+03  0.12508543465E+03 0.  0.
         24    2    1    2    0    0 -0.26254516616E+00  0.49562112535E+02  0.64931060827E+03  0.65616418312E+03  0.80564863697E+02 0.  0.
        -11    1    5    5    0    0 -0.71304496769E+01  0.21392294308E+02  0.58705207222E+03  0.58748498625E+03  0.00000000000E+00 0.  1.
         12    1    5    5    0    0  0.68679045107E+01  0.28169818227E+02  0.62258536051E+02  0.68679196869E+02  0.00000000000E+00 0. -1.
         13    1    3    3    0    0  0.41303482581E+02  0.77535616904E+02 -0.16350407215E+03  0.18561069789E+03  0.00000000000E+00 0. -1.
        -14    1    3    3    0    0  0.37326744505E+02 -0.96853806130E+01 -0.34278123970E+02  0.51595370295E+02  0.00000000000E+00 0.  1.
          5    1    4    4  501    0 -0.37399900253E+02 -0.12775030364E+03  0.44260062158E+02  0.14034000899E+03  0.41800000000E+01 0. -1.
         -5    1    4    4    0  501 -0.40967781667E+02  0.10337954816E+02  0.64977736761E+02  0.77619656783E+02  0.41800000000E+01 0. -1.
</event>
<event>
11    1  0.8328696E-009  0.1399512E+03  0.7561462E-02  0.1107613E+00
         22   -1    0    0    0    0  0.00000000000E+00  0.00000000000E+00  0.10212008193E+04  0.10212008193E+04  0.00000000000E+00 0.  1.
         22   -1    0    0    0    0 -0.00000000000E+00 -0.00000000000E+00 -0.16205261306E+04  0.16205261306E+04  0.00000000000E+00 0.  1.
        -24    2    1    2    0    0  0.43233985884E+02 -0.10632269073E+02 -0.15779079288E+04  0.15805919522E+04  0.80593204862E+02 0.  0.
         25    2    1    2    0    0 -0.27768564240E+02 -0.51640063350E+02  0.86074383517E+02  0.16277190043E+03  0.12509237694E+03 0.  0.
         24    2    1    2    0    0 -0.15465421644E+02  0.62272332423E+02  0.89250823395E+03  0.89836309734E+03  0.79801531052E+02 0.  0.
        -11    1    5    5    0    0 -0.50522174085E+01  0.65451007424E+02  0.87678060186E+03  0.87923465757E+03  0.00000000000E+00 0.  1.
         12    1    5    5    0    0 -0.10413204236E+02 -0.31786750017E+01  0.15727632087E+02  0.19128439777E+02  0.00000000000E+00 0. -1.
         13    1    3    3    0    0 -0.78918529107E+01  0.16475042961E+01 -0.17169195748E+02  0.18967785727E+02  0.00000000000E+00 0. -1.
        -14    1    3    3    0    0  0.51125838795E+02 -0.12279773369E+02 -0.15607387331E+04  0.15616241664E+04  0.00000000000E+00 0.  1.
          5    1    4    4  501    0 -0.67363831235E+02 -0.51733300396E+02  0.88687903623E+02  0.12287081337E+03  0.41800000000E+01 0. -1.
         -5    1    4    4    0  501  0.39595266995E+02  0.93237046424E-01 -0.26135201056E+01  0.39901087065E+02  0.41800000000E+01 0. -1.
</event>
<event>
11    1  0.8328696E-009  0.2602876E+03  0.7561462E-02  0.1018557E+00
         22   -1    0    0    0    0  0.00000000000E+00  0.00000000000E+00  0.67508400210E+03  0.67508400210E+03  0.00000000000E+00 0. -1.
         22   -1    0    0    0    0 -0.00000000000E+00 -0.00000000000E+00 -0.26825465514E+04  0.26825465514E+04  0.00000000000E+00 0. -1.
         24    2    1    2    0    0  0.20519958842E+03  0.10314703401E+03 -0.25912580542E+04  0.26026398425E+04  0.79810178295E+02 0.  0.
         25    2    1    2    0    0 -0.10726412883E+03 -0.18056522254E+03  0.12871106189E+03  0.27627860530E+03  0.12511569592E+03 0.  0.
        -24    2    1    2    0    0 -0.97935459588E+02  0.77418188530E+02  0.45508444295E+03  0.47871210577E+03  0.80489128679E+02 0.  0.
        -11    1    3    3    0    0  0.12900013414E+03  0.37028217774E+02 -0.11385402089E+04  0.11464231028E+04  0.00000000000E+00 0.  1.
         12    1    3    3    0    0  0.76199454280E+02  0.66118816239E+02 -0.14527178453E+04  0.14562167396E+04  0.00000000000E+00 0. -1.
         13    1    5    5    0    0  0.70714198704E+01  0.33996413496E+02  0.96751299955E+02  0.10279384783E+03  0.00000000000E+00 0. -1.
        -14    1    5    5    0    0 -0.10500687946E+03  0.43421775034E+02  0.35833314299E+03  0.37591825793E+03  0.00000000000E+00 0.  1.
          5    1    4    4  501    0 -0.71972059634E+02 -0.91575922718E+02  0.13726981065E+03  0.18007387458E+03  0.41800000000E+01 0. -1.
         -5    1    4    4    0  501 -0.35292069200E+02 -0.88989299826E+02 -0.85587487618E+01  0.96204730717E+02  0.41800000000E+01 0. -1.
</event>
<event>
11    1  0.8328696E-009  0.1332443E+03  0.7561462E-02  0.1115346E+00
         22   -1    0    0    0    0  0.00000000000E+00  0.00000000000E+00  0.30903645728E+03  0.30903645728E+03  0.00000000000E+00 0. -1.
         22   -1    0    0    0    0 -0.00000000000E+00 -0.00000000000E+00 -0.68037355795E+03  0.68037355795E+03  0.00000000000E+00 0.  1.
        -24    2    1    2    0    0 -0.44098798046E+02 -0.35775479635E+02 -0.44913968582E+03  0.45986360881E+03  0.80768139703E+02 0.  0.
         25    2    1    2    0    0 -0.28683126667E+01  0.16530580419E+02 -0.19913049902E+03  0.23575786386E+03  0.12508927782E+03 0.  0.
         24    2    1    2    0    0  0.46967110713E+02  0.19244899216E+02  0.27693308418E+03  0.29378854257E+03  0.83925556289E+02 0.  0.
        -11    1    5    5    0    0 -0.18512005872E+02  0.26155397972E+02  0.82176209264E+02  0.88202769647E+02  0.00000000000E+00 0.  1.
         12    1    5    5    0    0  0.65479116585E+02 -0.69104987563E+01  0.19475687491E+03  0.20558577292E+03  0.00000000000E+00 0. -1.
         13    1    3    3    0    0  0.19546516462E+02 -0.28637029409E+02 -0.16172549581E+03  0.16540036806E+03  0.00000000000E+00 0. -1.
        -14    1    3    3    0    0 -0.63645314508E+02 -0.71384502253E+01 -0.28741419001E+03  0.29446324075E+03  0.00000000000E+00 0.  1.
          5    1    4    4  501    0  0.13128017128E+02  0.30704777877E+02 -0.20911127947E+03  0.21180209589E+03  0.41800000000E+01 0. -1.
         -5    1    4    4    0  501 -0.15996329795E+02 -0.14174197458E+02  0.99807804574E+01  0.23955767970E+02  0.41800000000E+01 0. -1.
</event>
<event>
11    1  0.8328696E-009  0.1505802E+03  0.7561462E-02  0.1096287E+00
         22   -1    0    0    0    0  0.00000000000E+00  0.00000000000E+00  0.11094154159E+03  0.11094154159E+03  0.00000000000E+00 0. -1.
         22   -1    0    0    0    0 -0.00000000000E+00 -0.00000000000E+00 -0.56361535140E+03  0.56361535140E+03  0.00000000000E+00 0. -1.
         24    2    1    2    0    0 -0.19732337476E+02 -0.85905754959E+02 -0.43134323702E+03  0.44726791125E+03  0.78882396178E+02 0.  0.
         25    2    1    2    0    0  0.60322269253E+01  0.53040185033E+02 -0.24930772422E+02  0.13827297574E+03  0.12509285918E+03 0.  0.
        -24    2    1    2    0    0  0.13700110551E+02  0.32865569926E+02  0.36001996322E+01  0.89016006003E+02  0.81504902746E+02 0.  0.
        -13    1    3    3    0    0  0.15474807362E+01  0.10466057938E+02 -0.10132248929E+02  0.14649079622E+02  0.00000000000E+00 0.  1.
         14    1    3    3    0    0 -0.21279818212E+02 -0.96371812898E+02 -0.42121098809E+03  0.43261883162E+03  0.00000000000E+00 0. -1.
         13    1    5    5    0    0  0.19596619065E+02  0.58809389491E+02  0.61284545277E+01  0.62290687313E+02  0.00000000000E+00 0. -1.
        -14    1    5    5    0    0 -0.58965085147E+01 -0.25943819564E+02 -0.25282548955E+01  0.26725318690E+02  0.00000000000E+00 0.  1.
          5    1    4    4  501    0  0.61964717360E+02  0.25376195959E+02  0.80477403607E+01  0.67570822429E+02  0.41800000000E+01 0.  1.
         -5    1    4    4    0  501 -0.55932490435E+02  0.27663989074E+02 -0.32978512783E+02  0.70702153313E+02  0.41800000000E+01 0.  1.
</event>
<event>
11    1  0.8328696E-009  0.2026116E+03  0.7561462E-02  0.1052692E+00
         22   -1    0    0    0    0  0.00000000000E+00  0.00000000000E+00  0.19896934637E+03  0.19896934637E+03  0.00000000000E+00 0.  1.
         22   -1    0    0    0    0 -0.00000000000E+00 -0.00000000000E+00 -0.17500516145E+04  0.17500516145E+04  0.00000000000E+00 0.  1.
        -24    2    1    2    0    0  0.49029479255E+02  0.14839983268E+03 -0.12246791803E+04  0.12373043639E+04  0.81587952977E+02 0.  0.
         25    2    1    2    0    0 -0.10181871921E+03 -0.14437021926E+03 -0.48214699694E+03  0.52850751935E+03  0.12507861352E+03 0.  0.
         24    2    1    2    0    0  0.52789239953E+02 -0.40296134221E+01  0.15574390918E+03  0.18320907755E+03  0.80662625844E+02 0.  0.
        -13    1    5    5    0    0  0.57112175627E+02 -0.22138876106E+02  0.15245874778E+03  0.16430337858E+03  0.00000000000E+00 0.  1.
         14    1    5    5    0    0 -0.43229356738E+01  0.18109262684E+02  0.32851614073E+01  0.18905698963E+02  0.00000000000E+00 0. -1.
         13    1    3    3    0    0  0.30766599851E+02  0.26242265849E+02 -0.14337358802E+03  0.14896719748E+03  0.00000000000E+00 0. -1.
        -14    1    3    3    0    0  0.18262879403E+02  0.12215756683E+03 -0.10813055923E+04  0.10883371664E+04  0.00000000000E+00 0.  1.
          5    1    4    4  501    0 -0.77498902986E+01 -0.72502599744E+02 -0.75855787785E+02  0.10530081058E+03  0.41800000000E+01 0.  1.
         -5    1    4    4    0  501 -0.94068828910E+02 -0.71867619515E+02 -0.40629120916E+03  0.42320670877E+03  0.41800000000E+01 0.  1.
</event>
<event>
11    1  0.8328696E-009  0.2702050E+03  0.7561462E-02  0.1013654E+00
         22   -1    0    0    0    0  0.00000000000E+00  0.00000000000E+00  0.45352693262E+03  0.45352693262E+03  0.00000000000E+00 0. -1.
         22   -1    0    0    0    0 -0.00000000000E+00 -0.00000000000E+00 -0.10379583547E+04  0.10379583547E+04  0.00000000000E+00 0. -1.
         24    2    1    2    0    0 -0.11769269566E+03  0.30625649098E+01 -0.39470377744E+03  0.42098488443E+03  0.87041662866E+02 0.  0.
         25    2    1    2    0    0  0.32969947240E+03 -0.99122869136E+02 -0.53422296778E+03  0.64774099049E+03  0.12508847339E+03 0.  0.
        -24    2    1    2    0    0 -0.21200677674E+03  0.96060304227E+02  0.34449532316E+03  0.42275941238E+03  0.76642270609E+02 0.  0.
        -13    1    3    3    0    0 -0.40349928889E+02  0.43218627234E+02 -0.16871375234E+03  0.17877442974E+03  0.00000000000E+00 0.  1.
         14    1    3    3    0    0 -0.77342766768E+02 -0.40156062324E+02 -0.22599002511E+03  0.24221045469E+03  0.00000000000E+00 0. -1.
         11    1    5    5    0    0 -0.18544053341E+03  0.66330418825E+02  0.32064743401E+03  0.37630133249E+03  0.00000000000E+00 0. -1.
        -12    1    5    5    0    0 -0.26566243328E+02  0.29729885402E+02  0.23847889155E+02  0.46458079897E+02  0.00000000000E+00 0.  1.
          5    1    4    4  501    0  0.36015852678E+02 -0.30646678435E+02 -0.19818122047E+02  0.51445027988E+02  0.41800000000E+01 0. -1.
         -5    1    4    4    0  501  0.29368361972E+03 -0.68476190701E+02 -0.51440484573E+03  0.59629596250E+03  0.41800000000E+01 0. -1.
</event>
<event>
11    1  0.8328696E-009  0.1314818E+03  0.7561462E-02  0.1117462E+00
         22   -1    0    0    0    0  0.00000000000E+00  0.00000000000E+00  0.66345946171E+03  0.66345946171E+03  0.00000000000E+00 0.  1.
         22   -1    0    0    0    0 -0.00000000000E+00 -0.00000000000E+00 -0.24490209810E+03  0.24490209810E+03  0.00000000000E+00 0. -1.
        -24    2    1    2    0    0 -0.76175814702E+02  0.61419976503E+01 -0.18017658538E+03  0.21106656302E+03  0.79025396066E+02 0.  0.
         25    2    1    2    0    0  0.53392644010E+02 -0.43582764168E+02  0.74818318223E+02  0.16123561400E+03  0.12509560629E+03 0.  0.
         24    2    1    2    0    0  0.22783170691E+02  0.37440766518E+02  0.52391563077E+03  0.53605938279E+03  0.10464793286E+03 0.  0.
        -13    1    5    5    0    0  0.15179702075E+02  0.74212953551E+02  0.36324997290E+03  0.37106404925E+03  0.00000000000E+00 0.  1.
         14    1    5    5    0    0  0.76034686168E+01 -0.36772187033E+02  0.16066565786E+03  0.16499533354E+03  0.00000000000E+00 0. -1.
         13    1    3    3    0    0 -0.40813648389E+02 -0.35939927861E+02 -0.78741398008E+02  0.95695559300E+02  0.00000000000E+00 0. -1.
        -14    1    3    3    0    0 -0.35362166313E+02  0.42081925512E+02 -0.10143518737E+03  0.11537100372E+03  0.00000000000E+00 0.  1.
          5    1    4    4  501    0 -0.41020218522E+01 -0.33776673134E+02 -0.27123805729E+02  0.43713424351E+02  0.41800000000E+01 0. -1.
         -5    1    4    4    0  501  0.57494665862E+02 -0.98060910344E+01  0.10194212395E+03  0.11752218965E+03  0.41800000000E+01 0. -1.
</event>
<event>
11    1  0.8328696E-009  0.1470467E+03  0.7561462E-02  0.1099935E+00
         22   -1    0    0    0    0  0.00000000000E+00  0.00000000000E+00  0.14522128476E+04  0.14522128476E+04  0.00000000000E+00 0.  1.
         22   -1    0    0    0    0 -0.00000000000E+00 -0.00000000000E+00 -0.19111862363E+04  0.19111862363E+04  0.00000000000E+00 0. -1.
        -24    2    1    2    0    0 -0.21938262191E+02 -0.72906142276E+02 -0.11137435311E+04  0.11191960782E+04  0.79866235648E+02 0.  0.
         25    2    1    2    0    0  0.66331021067E+02  0.60200907271E+02 -0.78586788722E+03  0.80078724067E+03  0.12509162671E+03 0.  0.
         24    2    1    2    0    0 -0.44392758876E+02  0.12705235005E+02  0.14406380295E+04  0.14434157650E+04  0.76674628007E+02 0.  0.
        -13    1    5    5    0    0 -0.24179321928E+02 -0.11149190029E+02  0.12458313131E+04  0.12461158072E+04  0.00000000000E+00 0.  1.
         14    1    5    5    0    0 -0.20213436948E+02  0.23854425033E+02  0.19480671637E+03  0.19729995786E+03  0.00000000000E+00 0. -1.
         13    1    3    3    0    0 -0.18781876501E+02 -0.59044487350E+02 -0.10882030055E+04  0.10899655001E+04  0.00000000000E+00 0. -1.
        -14    1    3    3    0    0 -0.31563856903E+01 -0.13861654925E+02 -0.25540525606E+02  0.29230578101E+02  0.00000000000E+00 0.  1.
          5    1    4    4  501    0  0.69654728121E+02  0.61571252791E+02 -0.78898461324E+03  0.79445389586E+03  0.41800000000E+01 0.  1.
         -5    1    4    4    0  501 -0.33237070536E+01 -0.13703455199E+01  0.31167260216E+01  0.63333448126E+01  0.41800000000E+01 0.  1.
</event>
<event>
11    1  0.8328696E-009  0.1334086E+03  0.7561462E-02  0.1115150E+00
         22   -1    0    0    0    0  0.00000000000E+00  0.00000000000E+00  0.66112553447E+03  0.66112553447E+03  0.00000000000E+00 0.  1.
         22   -1    0    0    0    0 -0.00000000000E+00 -0.00000000000E+00 -0.87076078922E+03  0.87076078922E+03  0.00000000000E+00 0. -1.
        -24    2    1    2    0    0 -0.80528364619E+01  0.49219791179E+02 -0.67660239049E+03  0.68319972855E+03  0.80521042310E+02 0.  0.
         25    2    1    2    0    0  0.29352859916E+02 -0.17162778732E+02 -0.16544519551E+03  0.21018013280E+03  0.12508966443E+03 0.  0.
         24    2    1    2    0    0 -0.21300023454E+02 -0.32057012447E+02  0.63241233126E+03  0.63850646234E+03  0.79144189165E+02 0.  0.
        -13    1    5    5    0    0  0.17673750531E+02 -0.56351263731E+01  0.44092361410E+03  0.44131366348E+03  0.00000000000E+00 0.  1.
         14    1    5    5    0    0 -0.38973773985E+02 -0.26421886073E+02  0.19148871716E+03  0.19719279886E+03  0.00000000000E+00 0. -1.
         13    1    3    3    0    0 -0.27952828317E+02  0.62724648556E+02 -0.55583519642E+03  0.56006116427E+03  0.00000000000E+00 0. -1.
        -14    1    3    3    0    0  0.19899991855E+02 -0.13504857378E+02 -0.12076719408E+03  0.12313856428E+03  0.00000000000E+00 0.  1.
          5    1    4    4  501    0 -0.22747551651E+01 -0.27587506677E+02  0.11364061189E+02  0.30213561895E+02  0.41800000000E+01 0.  1.
         -5    1    4    4    0  501  0.31627615081E+02  0.10424727945E+02 -0.17680925670E+03  0.17996657090E+03  0.41800000000E+01 0.  1.
</event>
<event>
11    1  0.8328696E-009  0.1485208E+03  0.7561462E-02  0.1098400E+00
         22   -1    0    0    0    0  0.00000000000E+00  0.00000000000E+00  0.56045360136E+03  0.56045360136E+03  0.00000000000E+00 0. -1.
         22   -1    0    0    0    0 -0.00000000000E+00 -0.00000000000E+00 -0.60983043281E+03  0.60983043281E+03  0.00000000000E+00 0. -1.
         24    2    1    2    0    0 -0.26073130887E+02  0.77544518791E+02 -0.44626182393E+03  0.46116064685E+03  0.82623036461E+02 0.  0.
         25    2    1    2    0    0  0.43694646944E+02 -0.60640354334E+02 -0.11804540033E+03  0.18753323195E+03  0.12509005476E+03 0.  0.
        -24    2    1    2    0    0 -0.17621516057E+02 -0.16904164457E+02  0.51493039282E+03  0.52159015537E+03  0.79414810482E+02 0.  0.
        -13    1    3    3    0    0 -0.12907093612E+02 -0.11337635975E+02 -0.16508111232E+03  0.16597261430E+03  0.00000000000E+00 0.  1.
         14    1    3    3    0    0 -0.13166037275E+02  0.88882154766E+02 -0.28118071162E+03  0.29518803255E+03  0.00000000000E+00 0. -1.
         13    1    5    5    0    0 -0.35546404093E+01 -0.19585012447E+01  0.48654473349E+03  0.48656165990E+03  0.00000000000E+00 0. -1.
        -14    1    5    5    0    0 -0.14066875648E+02 -0.14945663212E+02  0.28385659327E+02  0.35028495468E+02  0.00000000000E+00 0.  1.
          5    1    4    4  501    0 -0.23871473006E+02 -0.60999014130E+02 -0.20433221701E+02  0.68743842614E+02  0.41800000000E+01 0. -1.
         -5    1    4    4    0  501  0.67566119950E+02  0.35865979563E+00 -0.97612178627E+02  0.11878938933E+03  0.41800000000E+01 0. -1.
</event>
<event>
11    1  0.8328696E-009  0.1910105E+03  0.7561462E-02  0.1061069E+00
         22   -1    0    0    0    0  0.00000000000E+00  0.00000000000E+00  0.63252294818E+03  0.63252294818E+03  0.00000000000E+00 0. -1.
         22   -1    0    0    0    0 -0.00000000000E+00 -0.00000000000E+00 -0.15797786050E+04  0.15797786050E+04  0.00000000000E+00 0.  1.
        -24    2    1    2    0    0 -0.62797988068E+01 -0.59388743211E+02 -0.14856929829E+04  0.14889794277E+04  0.78801255786E+02 0.  0.
         25    2    1    2    0    0 -0.10612647529E+03  0.14244255525E+03  0.70378797265E+02  0.22836966079E+03  0.12508723581E+03 0.  0.
         24    2    1    2    0    0  0.11240627409E+03 -0.83053812040E+02  0.46805852880E+03  0.49495246472E+03  0.79787529080E+02 0.  0.
        -13    1    5    5    0    0  0.19599711726E+02 -0.30519720586E+02  0.40825699543E+02  0.54610802847E+02  0.00000000000E+00 0.  1.
         14    1    5    5    0    0  0.92806562368E+02 -0.52534091454E+02  0.42723282926E+03  0.44034166187E+03  0.00000000000E+00 0. -1.
         11    1    3    3    0    0  0.24746960083E+02 -0.39698604493E+02 -0.41020182844E+03  0.41286066812E+03  0.00000000000E+00 0. -1.
        -12    1    3    3    0    0 -0.31026758890E+02 -0.19690138719E+02 -0.10754911545E+04  0.10761187596E+04  0.00000000000E+00 0.  1.
          5    1    4    4  501    0 -0.11837192475E+03  0.66884197834E+02  0.22190228634E+02  0.13782339110E+03  0.41800000000E+01 0.  1.
         -5    1    4    4    0  501  0.12245449458E+02  0.75558357417E+02  0.48188568632E+02  0.90546269690E+02  0.41800000000E+01 0.  1.
</event>
<event>
11    1  0.8328696E-009  0.1375603E+03  0.7561462E-02  0.1110314E+00
         22   -1    0    0    0    0  0.00000000000E+00  0.00000000000E+00  0.21721910342E+03  0.21721910342E+03  0.00000000000E+00 0.  1.
         22   -1    0    0    0    0 -0.00000000000E+00 -0.00000000000E+00 -0.92247344643E+03  0.92247344643E+03  0.00000000000E+00 0. -1.
        -24    2    1    2    0    0  0.24219361001E+02 -0.13516106045E+02 -0.84898101397E+03  0.85325963005E+03  0.80709179344E+02 0.  0.
         25    2    1    2    0    0  0.31842301406E+02 -0.19637394276E+02  0.32572929641E+02  0.13456988183E+03  0.12509395643E+03 0.  0.
         24    2    1    2    0    0 -0.56061662408E+02  0.33153500321E+02  0.11115374131E+03  0.15186303797E+03  0.80406240542E+02 0.  0.
        -13    1    5    5    0    0  0.10066826949E+02 -0.34613871721E+01  0.59181140545E+02  0.60130937147E+02  0.00000000000E+00 0.  1.
         14    1    5    5    0    0 -0.66128489357E+02  0.36614887493E+02  0.51972600766E+02  0.91732100821E+02  0.00000000000E+00 0. -1.
         13    1    3    3    0    0 -0.75054879297E+01 -0.35168197764E+02 -0.62305804014E+03  0.62409490934E+03  0.00000000000E+00 0. -1.
        -14    1    3    3    0    0  0.31724848931E+02  0.21652091719E+02 -0.22592297383E+03  0.22916472071E+03  0.00000000000E+00 0.  1.
          5    1    4    4  501    0 -0.53729805919E+01  0.16978104233E+02 -0.40631185857E+02  0.44558844330E+02  0.41800000000E+01 0. -1.
         -5    1    4    4    0  501  0.37215281998E+02 -0.36615498509E+02  0.73204115498E+02  0.90011037496E+02  0.41800000000E+01 0. -1.
</event>
<event>
11    1  0.8328696E-009  0.1400873E+03  0.7561462E-02  0.1107461E+00
         22   -1    0    0    0    0  0.00000000000E+00  0.00000000000E+00  0.72982950185E+02  0.72982950185E+02  0.00000000000E+00 0.  1.
         22   -1    0    0    0    0 -0.00000000000E+00 -0.00000000000E+00 -0.84637260355E+03  0.84637260355E+03  0.00000000000E+00 0.  1.
        -24    2    1    2    0    0  0.24983668055E+02  0.20985142975E+02 -0.51780343672E+03  0.52550742442E+03  0.83505054576E+02 0.  0.
         25    2    1    2    0    0 -0.25468744989E+02  0.46222586933E+02 -0.23864538615E+03  0.27456129058E+03  0.12508835853E+03 0.  0.
         24    2    1    2    0    0  0.48507693396E+00 -0.67207729908E+02 -0.16940830494E+02  0.11928683874E+03  0.97083695337E+02 0.  0.
        -11    1    5    5    0    0 -0.16033833058E+02 -0.20364529373E+01  0.32187527501E+02  0.36017604997E+02  0.00000000000E+00 0.  1.
         12    1    5    5    0    0  0.16518909992E+02 -0.65171276971E+02 -0.49128357994E+02  0.83269233745E+02  0.00000000000E+00 0. -1.
         13    1    3    3    0    0  0.18389640989E+02 -0.24312490050E+02 -0.85207266193E+02  0.90496156163E+02  0.00000000000E+00 0. -1.
        -14    1    3    3    0    0  0.65940270663E+01  0.45297633025E+02 -0.43259617053E+03  0.43501126825E+03  0.00000000000E+00 0.  1.
          5    1    4    4  501    0 -0.63340927422E+02  0.15232689673E+02 -0.57887502216E+02  0.87249889594E+02  0.41800000000E+01 0.  1.
         -5    1    4    4    0  501  0.37872182432E+02  0.30989897260E+02 -0.18075788393E+03  0.18731140098E+03  0.41800000000E+01 0.  1.
</event>
<event>
11    1  0.8328696E-009  0.1805929E+03  0.7561462E-02  0.1069164E+00
         22   -1    0    0    0    0  0.00000000000E+00  0.00000000000E+00  0.17598910847E+04  0.17598910847E+04  0.00000000000E+00 0. -1.
         22   -1    0    0    0    0 -0.00000000000E+00 -0.00000000000E+00 -0.72310596424E+02  0.72310596424E+02  0.00000000000E+00 0.  1.
         24    2    1    2    0    0 -0.57599226368E+02 -0.11183295833E+03  0.69121139552E+02  0.16424658701E+03  0.79843146004E+02 0.  0.
         25    2    1    2    0    0 -0.23355703890E+02  0.17568306970E+03  0.55256326288E+03  0.59361879209E+03  0.12508829266E+03 0.  0.
        -24    2    1    2    0    0  0.80954930258E+02 -0.63850111371E+02  0.10658960858E+04  0.10743363020E+04  0.86217669716E+02 0.  0.
        -13    1    3    3    0    0 -0.14630446493E+02 -0.89023174319E+02  0.14966964514E+02  0.91450454111E+02  0.00000000000E+00 0.  1.
         14    1    3    3    0    0 -0.42968779874E+02 -0.22809784009E+02  0.54154175038E+02  0.72796132895E+02  0.00000000000E+00 0. -1.
         13    1    5    5    0    0  0.97006756914E+02 -0.66242464051E+02  0.96846356807E+03  0.97556140638E+03  0.00000000000E+00 0. -1.
        -14    1    5    5    0    0 -0.16051826656E+02  0.23923526803E+01  0.97432517766E+02  0.98774895639E+02  0.00000000000E+00 0.  1.
          5    1    4    4  501    0 -0.57590897053E+02  0.17041316498E+03  0.42852867166E+03  0.46477053807E+03  0.41800000000E+01 0.  1.
         -5    1    4    4    0  501  0.34235193162E+02  0.52699047179E+01  0.12403459122E+03  0.12884825403E+03  0.41800000000E+01 0.  1.
</event>
<event>
11    1  0.8328696E-009  0.1376509E+03  0.7561462E-02  0.1110210E+00
         22   -1    0    0    0    0  0.00000000000E+00  0.00000000000E+00  0.10230025722E+04  0.10230025722E+04  0.00000000000E+00 0. -1.
         22   -1    0    0    0    0 -0.00000000000E+00 -0.00000000000E+00 -0.18287881122E+03  0.18287881122E+03  0.00000000000E+00 0.  1.
        -24    2    1    2    0    0 -0.51475604560E+02 -0.17413809557E+01 -0.79545086207E+02  0.12425604096E+03  0.80370222741E+02 0.  0.
         25    2    1    2    0    0  0.28092334934E+02 -0.51958174665E+02 -0.14565301961E+02  0.13908423386E+03  0.12507375780E+03 0.  0.
         24    2    1    2    0    0  0.23383269625E+02  0.53699555621E+02  0.93423414912E+03  0.94254110859E+03  0.11027182964E+03 0.  0.
        -11    1    5    5    0    0 -0.52880433187E+01  0.83196505476E+02  0.59092388502E+03  0.59677521716E+03  0.00000000000E+00 0.  1.
         12    1    5    5    0    0  0.28671312944E+02 -0.29496949855E+02  0.34331026410E+03  0.34576589143E+03  0.00000000000E+00 0. -1.
         13    1    3    3    0    0 -0.53885234588E+02  0.23499728790E+01 -0.10377548054E+02  0.54925716953E+02  0.00000000000E+00 0. -1.
        -14    1    3    3    0    0  0.24096300287E+01 -0.40913538348E+01 -0.69167538153E+02  0.69330324009E+02  0.00000000000E+00 0.  1.
          5    1    4    4  501    0 -0.52909801957E+00 -0.42338164684E+02  0.51215940729E+02  0.66583369682E+02  0.41800000000E+01 0. -1.
         -5    1    4    4    0  501  0.28621432954E+02 -0.96200099812E+01 -0.65781242689E+02  0.72500864175E+02  0.41800000000E+01 0. -1.
</event>
<event>
11    1  0.8328696E-009  0.2069602E+03  0.7561462E-02  0.1049708E+00
         22   -1    0    0    0    0  0.00000000000E+00  0.00000000000E+00  0.11051257379E+04  0.11051257379E+04  0.00000000000E+00 0. -1.
         22   -1    0    0    0    0 -0.00000000000E+00 -0.00000000000E+00 -0.31424973862E+03  0.31424973862E+03  0.00000000000E+00 0.  1.
         24    2    1    2    0    0 -0.52311038925E+02  0.15539699114E+03 -0.25749143610E+03  0.31551646612E+03  0.79775504286E+02 0.  0.
         25    2    1    2    0    0  0.73783528443E+02 -0.16551645609E+03  0.47056332529E+03  0.51953555473E+03  0.12509054006E+03 0.  0.
        -24    2    1    2    0    0 -0.21472489518E+02  0.10119464952E+02  0.57780411010E+03  0.58432345569E+03  0.83742700210E+02 0.  0.
        -11    1    3    3    0    0 -0.38650059480E+02  0.16137980422E+03 -0.24577371682E+03  0.29655014448E+03  0.00000000000E+00 0.  1.
         12    1    3    3    0    0 -0.13660979444E+02 -0.59828130862E+01 -0.11717719276E+02  0.18966321648E+02  0.00000000000E+00 0. -1.
         13    1    5    5    0    0  0.10387803210E+02  0.39453919136E+02  0.35605675384E+03  0.35838656524E+03  0.00000000000E+00 0. -1.
        -14    1    5    5    0    0 -0.31860292728E+02 -0.29334454183E+02  0.22174735626E+03  0.22593689044E+03  0.00000000000E+00 0.  1.
          5    1    4    4  501    0  0.96288315037E+02 -0.16722419677E+03  0.38128214801E+03  0.42735105053E+03  0.41800000000E+01 0. -1.
         -5    1    4    4    0  501 -0.22504786594E+02  0.17077406793E+01  0.89281177286E+02  0.92184504204E+02  0.41800000000E+01 0. -1.
</event>
<event>
11    1  0.8328696E-009  0.1789604E+03  0.7561462E-02  0.1070487E+00
         22   -1    0    0    0    0  0.00000000000E+00  0.00000000000E+00  0.88633848209E+03  0.88633848209E+03  0.00000000000E+00 0. -1.
         22   -1    0    0    0    0 -0.00000000000E+00 -0.00000000000E+00 -0.16142920787E+03  0.16142920787E+03  0.00000000000E+00 0.  1.
         24    2    1    2    0    0  0.16798458220E+02  0.24950832121E+01 -0.80145407479E+02  0.10047014813E+03  0.58159699854E+02 0.  0.
         25    2    1    2    0    0 -0.11997755668E+03  0.70939642448E+02  0.75014430544E+02  0.20174469542E+03  0.12508681130E+03 0.  0.
        -24    2    1    2    0    0  0.10317909846E+03 -0.73434725661E+02  0.73004025116E+03  0.74555284640E+03  0.82774955026E+02 0.  0.
        -13    1    3    3    0    0  0.23876530451E+02 -0.23105602797E+02 -0.36327876960E+02  0.49230805715E+02  0.00000000000E+00 0.  1.
         14    1    3    3    0    0 -0.70780722304E+01  0.25600686009E+02 -0.43817530519E+02  0.51239342418E+02  0.00000000000E+00 0. -1.
         11    1    5    5    0    0  0.10817382311E+03 -0.41975431829E+02  0.62892519184E+03  0.63953921679E+03  0.00000000000E+00 0. -1.
        -12    1    5    5    0    0 -0.49947246538E+01 -0.31459293831E+02  0.10111505932E+03  0.10601362961E+03  0.00000000000E+00 0.  1.
          5    1    4    4  501    0  0.24958606008E+01  0.63804312935E+02  0.18518980247E+02  0.66615649052E+02  0.41800000000E+01 0.  1.
         -5    1    4    4    0  501 -0.12247341728E+03  0.71353295137E+01  0.56495450297E+02  0.13512904637E+03  0.41800000000E+01 0.  1.
</event>
<event>
11    1  0.8328696E-009  0.2140026E+03  0.7561462E-02  0.1045041E+00
         22   -1    0    0    0    0  0.00000000000E+00  0.00000000000E+00  0.81947684279E+03  0.81947684279E+03  0.00000000000E+00 0. -1.
         22   -1    0    0    0    0 -0.00000000000E+00 -0.00000000000E+00 -0.60800984824E+03  0.60800984824E+03  0.00000000000E+00 0. -1.
         24    2    1    2    0    0  0.53410959696E+02 -0.24808366254E+02 -0.53909382116E+03  0.54821915354E+03  0.80336210012E+02 0.  0.
         25    2    1    2    0    0 -0.19100535300E+03  0.10404238428E+03  0.27943862772E+03  0.37555414446E+03  0.12508839338E+03 0.  0.
        -24    2    1    2    0    0  0.13759439331E+03 -0.79234018027E+02  0.47112218800E+03  0.50371339303E+03  0.80998886457E+02 0.  0.
        -13    1    3    3    0    0  0.84085354743E+01 -0.10073735640E+02 -0.87640384085E+01  0.15779479959E+02  0.00000000000E+00 0.  1.
         14    1    3    3    0    0  0.45002424222E+02 -0.14734630614E+02 -0.53032978275E+03  0.53243967358E+03  0.00000000000E+00 0. -1.
         13    1    5    5    0    0  0.98990694007E+02 -0.31023416569E+02  0.37796152015E+03  0.39193943485E+03  0.00000000000E+00 0. -1.
        -14    1    5    5    0    0  0.38603699301E+02 -0.48210601458E+02  0.93160667848E+02  0.11177395818E+03  0.00000000000E+00 0.  1.
          5    1    4    4  501    0 -0.46101879592E+02  0.94753595459E+02  0.12479639186E+03  0.16338677723E+03  0.41800000000E+01 0. -1.
         -5    1    4    4    0  501 -0.14490347341E+03  0.92887888220E+01  0.15464223586E+03  0.21216736723E+03  0.41800000000E+01 0. -1.
</event>
<event>
11    1  0.8328696E-009  0.1429722E+03  0.7561462E-02  0.1104284E+00
         22   -1    0    0    0    0  0.00000000000E+00  0.00000000000E+00  0.38477318101E+02  0.38477318101E+02  0.00000000000E+00 0.  1.
         22   -1    0    0    0    0 -0.00000000000E+00 -0.00000000000E+00 -0.26376232010E+04  0.26376232010E+04  0.00000000000E+00 0.  1.
         24    2    1    2    0    0  0.72318090179E+02 -0.21755210700E+02 -0.20088861540E+04  0.20119415956E+04  0.81130815092E+02 0.  0.
         25    2    1    2    0    0 -0.35294741538E+02  0.13729954023E+02 -0.55011036771E+03  0.56542253950E+03  0.12508797343E+03 0.  0.
        -24    2    1    2    0    0 -0.37023348640E+02  0.80252566774E+01 -0.40149361184E+02  0.98736383959E+02  0.81864334264E+02 0.  0.
        -11    1    3    3    0    0  0.68479091545E+02 -0.43202762333E+02 -0.11827708950E+04  0.11855390566E+04  0.00000000000E+00 0.  1.
         12    1    3    3    0    0  0.38389986339E+01  0.21447551633E+02 -0.82611525895E+03  0.82640253899E+03  0.00000000000E+00 0. -1.
         13    1    5    5    0    0 -0.28801142395E+01  0.23737982630E+02 -0.53699785618E+02  0.58783108567E+02  0.00000000000E+00 0. -1.
        -14    1    5    5    0    0 -0.34143234401E+02 -0.15712725952E+02  0.13550424434E+02  0.39953275392E+02  0.00000000000E+00 0.  1.
          5    1    4    4  501    0  0.33891573567E+02  0.38293291115E+02 -0.14794327649E+03  0.15658767628E+03  0.41800000000E+01 0. -1.
         -5    1    4    4    0  501 -0.69186315105E+02 -0.24563337092E+02 -0.40216709122E+03  0.40883486322E+03  0.41800000000E+01 0. -1.
</event>
<event>
11    1  0.8328696E-009  0.1364650E+03  0.7561462E-02  0.1111571E+00
         22   -1    0    0    0    0  0.00000000000E+00  0.00000000000E+00  0.25131065017E+03  0.25131065017E+03  0.00000000000E+00 0. -1.
         22   -1    0    0    0    0 -0.00000000000E+00 -0.00000000000E+00 -0.28370497431E+03  0.28370497431E+03  0.00000000000E+00 0.  1.
         24    2    1    2    0    0  0.52271732074E+02 -0.68948558744E+00 -0.17197831710E+03  0.19725159757E+03  0.81233255671E+02 0.  0.
         25    2    1    2    0    0  0.67475889871E+01 -0.16176511932E+02 -0.38921905536E+02  0.13218251469E+03  0.12510033158E+03 0.  0.
        -24    2    1    2    0    0 -0.59019321062E+02  0.16865997519E+02  0.17850589851E+03  0.20558151222E+03  0.81435006201E+02 0.  0.
        -13    1    3    3    0    0  0.29970114810E+02  0.18604004788E+02 -0.16248835149E+03  0.16627321235E+03  0.00000000000E+00 0.  1.
         14    1    3    3    0    0  0.22301617265E+02 -0.19293490375E+02 -0.94899656117E+01  0.30978385219E+02  0.00000000000E+00 0. -1.
         11    1    5    5    0    0 -0.55166922226E+02 -0.17316262994E+02  0.15049642577E+03  0.16122163763E+03  0.00000000000E+00 0. -1.
        -12    1    5    5    0    0 -0.38523988359E+01  0.34182260513E+02  0.28009472741E+02  0.44359874592E+02  0.00000000000E+00 0.  1.
          5    1    4    4  501    0  0.45127920157E+01 -0.54931753654E+02 -0.64928222436E+02  0.85270213557E+02  0.41800000000E+01 0. -1.
         -5    1    4    4    0  501  0.22347969715E+01  0.38755241723E+02  0.26006316900E+02  0.46912301129E+02  0.41800000000E+01 0. -1.
</event>
<event>
11    1  0.8328696E-009  0.1607476E+03  0.7561462E-02  0.1086376E+00
         22   -1    0    0    0    0  0.00000000000E+00  0.00000000000E+00  0.70413736322E+03  0.70413736322E+03  0.00000000000E+00 0. -1.
         22   -1    0    0    0    0 -0.00000000000E+00 -0.00000000000E+00 -0.16422509225E+03  0.16422509225E+03  0.00000000000E+00 0. -1.
         24    2    1    2    0    0 -0.16640911663E+02  0.68362384899E+02 -0.10273034347E+03  0.14795365659E+03  0.79915113825E+02 0.  0.
         25    2    1    2    0    0 -0.88468752204E+02 -0.54168724930E+02  0.19792395605E+03  0.25608891050E+03  0.12508663728E+03 0.  0.
        -24    2    1    2    0    0  0.10510966387E+03 -0.14193659970E+02  0.44471865839E+03  0.46431988839E+03  0.81047962421E+02 0.  0.
        -11    1    3    3    0    0  0.18884959301E+02  0.20034783921E+02  0.16342144531E+01  0.27580879454E+02  0.00000000000E+00 0.  1.
         12    1    3    3    0    0 -0.35525870964E+02  0.48327600978E+02 -0.10436455792E+03  0.12037277713E+03  0.00000000000E+00 0. -1.
         11    1    5    5    0    0  0.83915551275E+02 -0.13403347703E+02  0.43044978327E+03  0.43875788926E+03  0.00000000000E+00 0. -1.
        -12    1    5    5    0    0  0.21194112592E+02 -0.79031226682E+00  0.14268875120E+02  0.25561999124E+02  0.00000000000E+00 0.  1.
          5    1    4    4  501    0  0.29375738322E+02  0.41185963999E+01  0.26358011771E+02  0.39901303523E+02  0.41800000000E+01 0. -1.
         -5    1    4    4    0  501 -0.11784449053E+03 -0.58287321329E+02  0.17156594428E+03  0.21618760698E+03  0.41800000000E+01 0. -1.
</event>
<event>
11    1  0.8328696E-009  0.1324499E+03  0.7561462E-02  0.1116295E+00
         22   -1    0    0    0    0  0.00000000000E+00  0.00000000000E+00  0.10170732930E+03  0.10170732930E+03  0.00000000000E+00 0.  1.
         22   -1    0    0    0    0 -0.00000000000E+00 -0.00000000000E+00 -0.14887303650E+04  0.14887303650E+04  0.00000000000E+00 0. -1.
         24    2    1    2    0    0  0.18857831687E+02  0.43301693297E+01 -0.12784098318E+04  0.12808257526E+04  0.76213794121E+02 0.  0.
         25    2    1    2    0    0 -0.30289416490E+01  0.37574236626E+02 -0.16066366199E+03  0.20707650013E+03  0.12508743693E+03 0.  0.
        -24    2    1    2    0    0 -0.15828890038E+02 -0.41904405955E+02  0.52050458085E+02  0.10253544154E+03  0.76142849868E+02 0.  0.
        -13    1    3    3    0    0 -0.55261405893E+01  0.33099357887E+02 -0.33841895671E+03  0.34007866146E+03  0.00000000000E+00 0.  1.
         14    1    3    3    0    0  0.24383972276E+02 -0.28769188557E+02 -0.93999087505E+03  0.94074709114E+03  0.00000000000E+00 0. -1.
         11    1    5    5    0    0 -0.20829527326E+02  0.33456357586E+01  0.52953267838E+02  0.57000974220E+02  0.00000000000E+00 0. -1.
        -12    1    5    5    0    0  0.50006372879E+01 -0.45250041714E+02 -0.90280975357E+00  0.45534467317E+02  0.00000000000E+00 0.  1.
          5    1    4    4  501    0 -0.17197157303E+02 -0.28987269719E+02 -0.15821291268E+01  0.33999699375E+02  0.41800000000E+01 0.  1.
         -5    1    4    4    0  501  0.14168215654E+02  0.66561506344E+02 -0.15908153286E+03  0.17307680075E+03  0.41800000000E+01 0.  1.
</event>
<event>
11    1  0.8328696E-009  0.1549334E+03  0.7561462E-02  0.1091942E+00
         22   -1    0    0    0    0  0.00000000000E+00  0.00000000000E+00  0.17486788189E+03  0.17486788189E+03  0.00000000000E+00 0. -1.
         22   -1    0    0    0    0 -0.00000000000E+00 -0.00000000000E+00 -0.20514639662E+04  0.20514639662E+04  0.00000000000E+00 0. -1.
         24    2    1    2    0    0  0.58329615140E+01  0.36597902762E+02 -0.17594378218E+04  0.17616769532E+04  0.80689583610E+02 0.  0.
         25    2    1    2    0    0  0.26771082244E+02 -0.11920902872E+03 -0.23866564206E+03  0.29586470457E+03  0.12508857397E+03 0.  0.
        -24    2    1    2    0    0 -0.32604043757E+02  0.82611125954E+02  0.12150737953E+03  0.16879019029E+03  0.76409837448E+02 0.  0.
        -13    1    3    3    0    0  0.16269201887E+01 -0.75560803135E+01 -0.16998954179E+02  0.18673662259E+02  0.00000000000E+00 0.  1.
         14    1    3    3    0    0  0.42060413252E+01  0.44153983075E+02 -0.17424388676E+04  0.17430032910E+04  0.00000000000E+00 0. -1.
         11    1    5    5    0    0 -0.11777698078E+02  0.45699148359E+02  0.83095200037E+01  0.47918414576E+02  0.00000000000E+00 0. -1.
        -12    1    5    5    0    0 -0.20826345679E+02  0.36911977595E+02  0.11319785952E+03  0.12087177572E+03  0.00000000000E+00 0.  1.
          5    1    4    4  501    0  0.72344123776E+02 -0.10202659887E+03 -0.15817253745E+03  0.20169066196E+03  0.41800000000E+01 0.  1.
         -5    1    4    4    0  501 -0.45573041532E+02 -0.17182429849E+02 -0.80493104613E+02  0.94174042603E+02  0.41800000000E+01 0.  1.
</event>
<event>
11    1  0.8328696E-009  0.1569181E+03  0.7561462E-02  0.1090012E+00
         22   -1    0    0    0    0  0.00000000000E+00  0.00000000000E+00  0.83658506855E+03  0.83658506855E+03  0.00000000000E+00 0.  1.
         22   -1    0    0    0    0 -0.00000000000E+00 -0.00000000000E+00 -0.16898439096E+04  0.16898439096E+04  0.00000000000E+00 0. -1.
         24    2    1    2    0    0  0.19721080284E+02 -0.91474386004E+02 -0.15097713396E+04  0.15147899775E+04  0.80141710681E+02 0.  0.
         25    2    1    2    0    0 -0.12147386716E+02  0.11366123716E+03 -0.13443874835E+03  0.21630527729E+03  0.12509100722E+03 0.  0.
        -24    2    1    2    0    0 -0.75736935683E+01 -0.22186851155E+02  0.79095124685E+03  0.79533372341E+03  0.80013995716E+02 0.  0.
        -13    1    3    3    0    0 -0.16560530654E+02 -0.16296622545E+02 -0.10496425504E+03  0.10750500415E+03  0.00000000000E+00 0.  1.
         14    1    3    3    0    0  0.36281610938E+02 -0.75177763459E+02 -0.14048070845E+04  0.14072849733E+04  0.00000000000E+00 0. -1.
         11    1    5    5    0    0 -0.16636548340E+02  0.17871578281E+02  0.92255073758E+02  0.95431476385E+02  0.00000000000E+00 0. -1.
        -12    1    5    5    0    0  0.90628547718E+01 -0.40058429435E+02  0.69869617309E+03  0.69990224703E+03  0.00000000000E+00 0.  1.
          5    1    4    4  501    0  0.22168753996E+02  0.66588990380E+02 -0.14097898019E+03  0.15753759090E+03  0.41800000000E+01 0.  1.
         -5    1    4    4    0  501 -0.34316140712E+02  0.47072246778E+02  0.65402318385E+01  0.58767686382E+02  0.41800000000E+01 0.  1.
</event>
<event>
11    1  0.8328696E-009  0.4981717E+03  0.7561462E-02  0.9397616E-01
         22   -1    0    0    0    0  0.00000000000E+00  0.00000000000E+00  0.80896096334E+03  0.80896096334E+03  0.00000000000E+00 0.  1.
         22   -1    0    0    0    0 -0.00000000000E+00 -0.00000000000E+00 -0.68520152115E+03  0.68520152115E+03  0.00000000000E+00 0.  1.
         24    2    1    2    0    0 -0.47618016954E+03 -0.54461578840E+02 -0.33443040320E+03  0.58969998056E+03  0.78668640904E+02 0.  0.
         25    2    1    2    0    0  0.50143472525E+03 -0.15114278125E+03  0.23296596440E+03  0.58668747877E+03  0.12509249844E+03 0.  0.
        -24    2    1    2    0    0 -0.25254555704E+02  0.20560436009E+03  0.22522388098E+03  0.31777502516E+03  0.85698451442E+02 0.  0.
        -11    1    3    3    0    0 -0.46947460259E+03 -0.53059719005E+02 -0.31184834521E+03  0.56610169287E+03  0.00000000000E+00 0.  1.
         12    1    3    3    0    0 -0.67055669470E+01 -0.14018598358E+01 -0.22582057990E+02  0.23598287695E+02  0.00000000000E+00 0. -1.
         13    1    5    5    0    0 -0.12484174434E+02  0.28796135692E+02  0.88514198676E+02  0.93913978775E+02  0.00000000000E+00 0. -1.
        -14    1    5    5    0    0 -0.12770381271E+02  0.17680822440E+03  0.13670968230E+03  0.22386104638E+03  0.00000000000E+00 0.  1.
          5    1    4    4  501    0  0.22045389903E+03 -0.49449653217E+02  0.16610658221E+03  0.28045330958E+03  0.41800000000E+01 0. -1.
         -5    1    4    4    0  501  0.28098082622E+03 -0.10169312803E+03  0.66859382192E+02  0.30623416919E+03  0.41800000000E+01 0. -1.
</event>
<event>
11    1  0.8328696E-009  0.1346721E+03  0.7561462E-02  0.1113658E+00
         22   -1    0    0    0    0  0.00000000000E+00  0.00000000000E+00  0.14957456430E+04  0.14957456430E+04  0.00000000000E+00 0.  1.
         22   -1    0    0    0    0 -0.00000000000E+00 -0.00000000000E+00 -0.56555016982E+03  0.56555016982E+03  0.00000000000E+00 0. -1.
         24    2    1    2    0    0  0.44495426229E+02 -0.17361520518E+02 -0.45335658376E+03  0.46277055397E+03  0.79643758249E+02 0.  0.
         25    2    1    2    0    0 -0.58483746354E+02  0.48650096677E+02 -0.55785778220E+02  0.15667485913E+03  0.12509107857E+03 0.  0.
        -24    2    1    2    0    0  0.13988320125E+02 -0.31288576159E+02  0.14393378351E+04  0.14418503997E+04  0.77875049592E+02 0.  0.
        -13    1    3    3    0    0  0.27848614072E+02 -0.29440348937E+02 -0.88527632070E+02  0.97362318641E+02  0.00000000000E+00 0.  1.
         14    1    3    3    0    0  0.16646812157E+02  0.12078828418E+02 -0.36482895169E+03  0.36540823532E+03  0.00000000000E+00 0. -1.
         11    1    5    5    0    0  0.26193457423E+02 -0.36304055164E+02  0.41151118931E+03  0.41393905416E+03  0.00000000000E+00 0. -1.
        -12    1    5    5    0    0 -0.12205137297E+02  0.50154790051E+01  0.10278266458E+04  0.10279113455E+04  0.00000000000E+00 0.  1.
          5    1    4    4  501    0 -0.88575544418E+02  0.66797955998E+02 -0.42194975989E+02  0.11876650367E+03  0.41800000000E+01 0.  1.
         -5    1    4    4    0  501  0.30091798064E+02 -0.18147859320E+02 -0.13590802231E+02  0.37908355463E+02  0.41800000000E+01 0.  1.
</event>
<event>
11    1  0.8328696E-009  0.1460674E+03  0.7561462E-02  0.1100966E+00
         22   -1    0    0    0    0  0.00000000000E+00  0.00000000000E+00  0.10399252819E+04  0.10399252819E+04  0.00000000000E+00 0. -1.
         22   -1    0    0    0    0 -0.00000000000E+00 -0.00000000000E+00 -0.24241319012E+03  0.24241319012E+03  0.00000000000E+00 0. -1.
        -24    2    1    2    0    0 -0.58991237388E+02  0.48146389428E+02 -0.21178741913E+03  0.23839503644E+03  0.78614512597E+02 0.  0.
         25    2    1    2    0    0  0.80940367622E+02  0.22880952511E+02  0.46277010358E+03  0.48670364088E+03  0.12509749869E+03 0.  0.
         24    2    1    2    0    0 -0.21949130234E+02 -0.71027341939E+02  0.54652940734E+03  0.55723979473E+03  0.79341969431E+02 0.  0.
        -13    1    5    5    0    0  0.15119510425E+02 -0.68097630544E+02  0.40178938088E+03  0.40779969773E+03  0.00000000000E+00 0.  1.
         14    1    5    5    0    0 -0.37068640659E+02 -0.29297113957E+01  0.14474002646E+03  0.14944009700E+03  0.00000000000E+00 0. -1.
         11    1    3    3    0    0 -0.67808935332E+02  0.87743972378E+01 -0.11960273045E+03  0.13776739414E+03  0.00000000000E+00 0. -1.
        -12    1    3    3    0    0  0.88176979434E+01  0.39371992190E+02 -0.92184688680E+02  0.10062764229E+03  0.00000000000E+00 0.  1.
          5    1    4    4  501    0  0.98021685744E+02  0.56063569161E+02  0.33641039031E+03  0.35488138550E+03  0.41800000000E+01 0. -1.
         -5    1    4    4    0  501 -0.17081318122E+02 -0.33182616650E+02  0.12635971326E+03  0.13182225538E+03  0.41800000000E+01 0. -1.
</event>
<event>
11    1  0.8328696E-009  0.1443090E+03  0.7561462E-02  0.1102840E+00
         22   -1    0    0    0    0  0.00000000000E+00  0.00000000000E+00  0.97882537124E+03  0.97882537124E+03  0.00000000000E+00 0. -1.
         22   -1    0    0    0    0 -0.00000000000E+00 -0.00000000000E+00 -0.59635761422E+03  0.59635761422E+03  0.00000000000E+00 0.  1.
        -24    2    1    2    0    0 -0.68527902055E+02  0.18926673787E+02 -0.52451495243E+03  0.53528682815E+03  0.79760646543E+02 0.  0.
         25    2    1    2    0    0  0.77009443727E+02 -0.46109991085E+02  0.28199320021E+02  0.15652274529E+03  0.12509029716E+03 0.  0.
         24    2    1    2    0    0 -0.84815416723E+01  0.27183317297E+02  0.87878338942E+03  0.88337341201E+03  0.85308090080E+02 0.  0.
        -13    1    5    5    0    0  0.24426429124E+02  0.45933793333E+02  0.49622986769E+03  0.49894954194E+03  0.00000000000E+00 0.  1.
         14    1    5    5    0    0 -0.32907970797E+02 -0.18750476035E+02  0.38255352173E+03  0.38442387007E+03  0.00000000000E+00 0. -1.
         13    1    3    3    0    0  0.58107117049E+01  0.24116823361E+02 -0.61520098988E+02  0.66333310780E+02  0.00000000000E+00 0. -1.
        -14    1    3    3    0    0 -0.74338613760E+02 -0.51901495734E+01 -0.46299485344E+03  0.46895351737E+03  0.00000000000E+00 0.  1.
          5    1    4    4  501    0  0.46583047030E+02 -0.88938874049E+02  0.25896596312E+02  0.10376998452E+03  0.41800000000E+01 0. -1.
         -5    1    4    4    0  501  0.30426396697E+02  0.42828882964E+02  0.23027237088E+01  0.52752760766E+02  0.41800000000E+01 0. -1.
</event>
<event>
11    1  0.8328696E-009  0.1433202E+03  0.7561462E-02  0.1103906E+00
         22   -1    0    0    0    0  0.00000000000E+00  0.00000000000E+00  0.58870924226E+02  0.58870924226E+02  0.00000000000E+00 0.  1.
         22   -1    0    0    0    0 -0.00000000000E+00 -0.00000000000E+00 -0.24652738136E+04  0.24652738136E+04  0.00000000000E+00 0.  1.
        -24    2    1    2    0    0 -0.52062999644E+01 -0.27259652735E+02 -0.18269067613E+04  0.18287744499E+04  0.77829813945E+02 0.  0.
         25    2    1    2    0    0 -0.47606271160E+01  0.94009508965E+02 -0.56734440837E+03  0.58854846208E+03  0.12509661535E+03 0.  0.
         24    2    1    2    0    0  0.99669270804E+01 -0.66749856231E+02 -0.12151719676E+02  0.10682182580E+03  0.81904549528E+02 0.  0.
        -11    1    5    5    0    0 -0.17020486007E+02 -0.75276564041E+02 -0.36207984400E+01  0.77261686618E+02  0.00000000000E+00 0.  1.
         12    1    5    5    0    0  0.26987413087E+02  0.85267078097E+01 -0.85309212360E+01  0.29560139180E+02  0.00000000000E+00 0. -1.
         11    1    3    3    0    0 -0.37692713673E+02 -0.10023971145E+02 -0.57160360583E+03  0.57293272106E+03  0.00000000000E+00 0. -1.
        -12    1    3    3    0    0  0.32486413709E+02 -0.17235681590E+02 -0.12553031555E+04  0.12558417289E+04  0.00000000000E+00 0.  1.
          5    1    4    4  501    0 -0.61878347441E+02  0.71532245584E+02 -0.32417819981E+03  0.33771995747E+03  0.41800000000E+01 0. -1.
         -5    1    4    4    0  501  0.57117720325E+02  0.22477263381E+02 -0.24316620855E+03  0.25082850461E+03  0.41800000000E+01 0. -1.
</event>
<event>
11    1  0.8328696E-009  0.1401693E+03  0.7561462E-02  0.1107370E+00
         22   -1    0    0    0    0  0.00000000000E+00  0.00000000000E+00  0.21956242926E+04  0.21956242926E+04  0.00000000000E+00 0. -1.
         22   -1    0    0    0    0 -0.00000000000E+00 -0.00000000000E+00 -0.35884734712E+02  0.35884734712E+02  0.00000000000E+00 0.  1.
         24    2    1    2    0    0  0.57422258389E+02 -0.27899773199E+02  0.87473713573E+02  0.13310009977E+03  0.77383931729E+02 0.  0.
         25    2    1    2    0    0 -0.68009164082E+02 -0.49487029759E+01  0.41368361207E+03  0.43752957203E+03  0.12509300319E+03 0.  0.
        -24    2    1    2    0    0  0.10586905693E+02  0.32848476175E+02  0.16585822323E+04  0.16608793555E+04  0.80212888492E+02 0.  0.
        -11    1    3    3    0    0  0.71795414108E+02 -0.99996185049E+01  0.46461961510E+02  0.86100451361E+02  0.00000000000E+00 0.  1.
         12    1    3    3    0    0 -0.14373155720E+02 -0.17900154694E+02  0.41011752063E+02  0.46999648410E+02  0.00000000000E+00 0. -1.
         11    1    5    5    0    0  0.84374936892E+01 -0.51172024441E+01  0.13399096118E+04  0.13399459485E+04  0.00000000000E+00 0. -1.
        -12    1    5    5    0    0  0.21494120036E+01  0.37965678619E+02  0.31867262048E+03  0.32093340706E+03  0.00000000000E+00 0.  1.
          5    1    4    4  501    0 -0.17718305287E+02  0.58055966880E+02  0.20253499608E+03  0.21147654874E+03  0.41800000000E+01 0.  1.
         -5    1    4    4    0  501 -0.50290858794E+02 -0.63004669856E+02  0.21114861599E+03  0.22605302329E+03  0.41800000000E+01 0.  1.
</event>
<event>
11    1  0.8328696E-009  0.2266935E+03  0.7561462E-02  0.1037104E+00
         22   -1    0    0    0    0  0.00000000000E+00  0.00000000000E+00  0.19941052756E+03  0.19941052756E+03  0.00000000000E+00 0. -1.
         22   -1    0    0    0    0 -0.00000000000E+00 -0.00000000000E+00 -0.50341198480E+03  0.50341198480E+03  0.00000000000E+00 0.  1.
        -24    2    1    2    0    0  0.12005667169E+03 -0.66221339623E+02 -0.15509504352E+03  0.22174001288E+03  0.79468802368E+02 0.  0.
         25    2    1    2    0    0 -0.11787494080E+03 -0.14371843903E+03 -0.12217064935E+03  0.25519141352E+03  0.12508996196E+03 0.  0.
         24    2    1    2    0    0 -0.21817308883E+01  0.20993977865E+03 -0.26735764365E+02  0.22589108596E+03  0.78946253947E+02 0.  0.
        -11    1    5    5    0    0 -0.16740239806E+01 -0.53869578568E+01 -0.79469921207E+01  0.97455813067E+01  0.00000000000E+00 0.  1.
         12    1    5    5    0    0 -0.50770690774E+00  0.21532673651E+03 -0.18788772244E+02  0.21614550466E+03  0.00000000000E+00 0. -1.
         13    1    3    3    0    0  0.11247027895E+02 -0.31652689149E+02 -0.62766913688E+01  0.34172872595E+02  0.00000000000E+00 0. -1.
        -14    1    3    3    0    0  0.10880964380E+03 -0.34568650473E+02 -0.14881835215E+03  0.18756714029E+03  0.00000000000E+00 0.  1.
          5    1    4    4  501    0 -0.68568373755E+02 -0.13339051792E+03 -0.34444333249E+02  0.15394329035E+03  0.41800000000E+01 0. -1.
         -5    1    4    4    0  501 -0.49306567048E+02 -0.10327921108E+02 -0.87726316103E+02  0.10124812317E+03  0.41800000000E+01 0. -1.
</event>
<event>
11    1  0.8328696E-009  0.1440740E+03  0.7561462E-02  0.1103093E+00
         22   -1    0    0    0    0  0.00000000000E+00  0.00000000000E+00  0.68197302766E+03  0.68197302766E+03  0.00000000000E+00 0. -1.
         22   -1    0    0    0    0 -0.00000000000E+00 -0.00000000000E+00 -0.19823661927E+03  0.19823661927E+03  0.00000000000E+00 0. -1.
         24    2    1    2    0    0  0.30267699497E+02  0.53526962153E+01 -0.14700341811E+03  0.17094487651E+03  0.81653909138E+02 0.  0.
         25    2    1    2    0    0  0.44202742937E+02  0.10043922116E+02  0.98871688179E+02  0.16576037448E+03  0.12508448413E+03 0.  0.
        -24    2    1    2    0    0 -0.74470442434E+02 -0.15396618332E+02  0.53186813832E+03  0.54350439594E+03  0.82039071136E+02 0.  0.
        -11    1    3    3    0    0 -0.69465239723E+01  0.28137827172E+02 -0.16523493189E+02  0.33361914520E+02  0.00000000000E+00 0.  1.
         12    1    3    3    0    0  0.37214223470E+02 -0.22785130957E+02 -0.13047992492E+03  0.13758296199E+03  0.00000000000E+00 0. -1.
         13    1    5    5    0    0 -0.85406392519E+02 -0.17174756899E+02  0.52008384943E+03  0.52732953132E+03  0.00000000000E+00 0. -1.
        -14    1    5    5    0    0  0.10935950085E+02  0.17781385678E+01  0.11784288891E+02  0.16174864626E+02  0.00000000000E+00 0.  1.
          5    1    4    4  501    0 -0.47377577491E+01  0.49121731479E+02  0.89511056908E+02  0.10229903499E+03  0.41800000000E+01 0. -1.
         -5    1    4    4    0  501  0.48940500686E+02 -0.39077809362E+02  0.93606312710E+01  0.63461339489E+02  0.41800000000E+01 0. -1.
</event>
<event>
11    1  0.8328696E-009  0.1713651E+03  0.7561462E-02  0.1076850E+00
         22   -1    0    0    0    0  0.00000000000E+00  0.00000000000E+00  0.32261299749E+03  0.32261299749E+03  0.00000000000E+00 0. -1.
         22   -1    0    0    0    0 -0.00000000000E+00 -0.00000000000E+00 -0.14077089378E+04  0.14077089378E+04  0.00000000000E+00 0. -1.
        -24    2    1    2    0    0  0.46042427456E+02  0.31175164636E+02 -0.13215764572E+04  0.13258555868E+04  0.90757416717E+02 0.  0.
         25    2    1    2    0    0  0.83191254972E+02 -0.49659672187E+02  0.58228579794E+02  0.16859231367E+03  0.12508370309E+03 0.  0.
         24    2    1    2    0    0 -0.12923368243E+03  0.18484507550E+02  0.17825193713E+03  0.23587403484E+03  0.82581992748E+02 0.  0.
        -13    1    5    5    0    0 -0.66674051614E+02  0.35786712291E+02  0.46008674360E+02  0.88560239677E+02  0.00000000000E+00 0.  1.
         14    1    5    5    0    0 -0.62559630814E+02 -0.17302204741E+02  0.13224326277E+03  0.14731379516E+03  0.00000000000E+00 0. -1.
         13    1    3    3    0    0  0.31000299921E+02  0.59737365628E+02 -0.10852125343E+04  0.10872974827E+04  0.00000000000E+00 0. -1.
        -14    1    3    3    0    0  0.15042127535E+02 -0.28562200992E+02 -0.23636392298E+03  0.23855810406E+03  0.00000000000E+00 0.  1.
          5    1    4    4  501    0  0.10232686141E+03 -0.13110932542E+02  0.81423535862E+01  0.10356859293E+03  0.41800000000E+01 0.  1.
         -5    1    4    4    0  501 -0.19135606443E+02 -0.36548739645E+02  0.50086226208E+02  0.65023720743E+02  0.41800000000E+01 0.  1.
</event>
<event>
11    1  0.8328696E-009  0.1426861E+03  0.7561462E-02  0.1104595E+00
         22   -1    0    0    0    0  0.00000000000E+00  0.00000000000E+00  0.13361374061E+04  0.13361374061E+04  0.00000000000E+00 0.  1.
         22   -1    0    0    0    0 -0.00000000000E+00 -0.00000000000E+00 -0.57785754123E+03  0.57785754123E+03  0.00000000000E+00 0. -1.
         24    2    1    2    0    0  0.54029668285E+02  0.44499527089E+02 -0.54666081929E+03  0.55696112355E+03  0.80425299756E+02 0.  0.
         25    2    1    2    0    0 -0.41700064888E+02  0.18111753186E+02  0.16323132787E+03  0.21060279389E+03  0.12506853873E+03 0.  0.
        -24    2    1    2    0    0 -0.12329603398E+02 -0.62611280275E+02  0.11417093563E+04  0.11464310299E+04  0.82046697243E+02 0.  0.
        -11    1    3    3    0    0  0.43568181651E+02  0.25125349009E+02 -0.12517930367E+03  0.13490488383E+03  0.00000000000E+00 0.  1.
         12    1    3    3    0    0  0.10461486635E+02  0.19374178079E+02 -0.42148151562E+03  0.42205623972E+03  0.00000000000E+00 0. -1.
         11    1    5    5    0    0 -0.31451022025E+02  0.57377339003E+01  0.43215929082E+03  0.43334021394E+03  0.00000000000E+00 0. -1.
        -12    1    5    5    0    0  0.19121418627E+02 -0.68349014175E+02  0.70955006549E+03  0.71309081598E+03  0.00000000000E+00 0.  1.
          5    1    4    4  501    0 -0.12633772658E+02 -0.39978082119E+02  0.88407261337E+01  0.43052178807E+02  0.41800000000E+01 0.  1.
         -5    1    4    4    0  501 -0.29066292230E+02  0.58089835305E+02  0.15439060174E+03  0.16755061508E+03  0.41800000000E+01 0.  1.
</event>
<event>
11    1  0.8328696E-009  0.1396870E+04  0.7561462E-02  0.8372527E-01
         22   -1    0    0    0    0  0.00000000000E+00  0.00000000000E+00  0.12096823116E+04  0.12096823116E+04  0.00000000000E+00 0.  1.
         22   -1    0    0    0    0 -0.00000000000E+00 -0.00000000000E+00 -0.40325580069E+03  0.40325580069E+03  0.00000000000E+00 0.  1.
        -24    2    1    2    0    0 -0.29387685606E+03 -0.10839056273E+03  0.20093304135E+03  0.38069694469E+03  0.80274254695E+02 0.  0.
         25    2    1    2    0    0  0.60730134948E+03 -0.93196869330E+02  0.16178711248E+03  0.64755134874E+03  0.12508834462E+03 0.  0.
         24    2    1    2    0    0 -0.31342449342E+03  0.20158743206E+03  0.44370635712E+03  0.58468981889E+03  0.78194930341E+02 0.  0.
        -13    1    5    5    0    0 -0.89248749970E+02  0.28330526899E+02  0.14820701463E+03  0.17530909079E+03  0.00000000000E+00 0.  1.
         14    1    5    5    0    0 -0.22417574345E+03  0.17325690516E+03  0.29549934249E+03  0.40938072811E+03  0.00000000000E+00 0. -1.
         13    1    3    3    0    0 -0.23546157232E+02 -0.21856282386E+02  0.49426598144E+02  0.58950039900E+02  0.00000000000E+00 0. -1.
        -14    1    3    3    0    0 -0.27033069883E+03 -0.86534280347E+02  0.15150644321E+03  0.32174690479E+03  0.00000000000E+00 0.  1.
          5    1    4    4  501    0  0.45292057540E+03 -0.81872514683E+02  0.17434073768E+03  0.49219134643E+03  0.41800000000E+01 0. -1.
         -5    1    4    4    0  501  0.15438077408E+03 -0.11324354647E+02 -0.12553625201E+02  0.15536000231E+03  0.41800000000E+01 0. -1.
</event>
<event>
11    1  0.8328696E-009  0.1553751E+03  0.7561462E-02  0.1091510E+00
         22   -1    0    0    0    0  0.00000000000E+00  0.00000000000E+00  0.35329294252E+04  0.35329294252E+04  0.00000000000E+00 0. -1.
         22   -1    0    0    0    0 -0.00000000000E+00 -0.00000000000E+00 -0.42486332966E+02  0.42486332966E+02  0.00000000000E+00 0.  1.
        -24    2    1    2    0    0 -0.86859967708E+02 -0.10021795356E+02  0.66159125998E+02  0.13392199252E+03  0.76895902079E+02 0.  0.
         25    2    1    2    0    0  0.16321035209E+03  0.22294610917E+02  0.15258803790E+04  0.15398349941E+04  0.12508480800E+03 0.  0.
         24    2    1    2    0    0 -0.76350384386E+02 -0.12272815561E+02  0.18984035872E+04  0.19016587715E+04  0.79936852116E+02 0.  0.
        -11    1    5    5    0    0 -0.26401028545E+02 -0.12653964071E+02  0.16782996493E+03  0.17036441601E+03  0.00000000000E+00 0.  1.
         12    1    5    5    0    0 -0.49949355841E+02  0.38114850966E+00  0.17305736223E+04  0.17312943555E+04  0.00000000000E+00 0. -1.
         11    1    3    3    0    0  0.34993027154E+01  0.19832041969E+02  0.48335145764E+01  0.20710332477E+02  0.00000000000E+00 0. -1.
        -12    1    3    3    0    0 -0.90359270424E+02 -0.29853837325E+02  0.61325611422E+02  0.11321166005E+03  0.00000000000E+00 0.  1.
          5    1    4    4  501    0  0.35007796929E+02  0.39375492284E+02  0.85230618018E+03  0.85394336605E+03  0.41800000000E+01 0.  1.
         -5    1    4    4    0  501  0.12820255517E+03 -0.17080881367E+02  0.67357419886E+03  0.68589162805E+03  0.41800000000E+01 0.  1.
</event>
<event>
11    1  0.8328696E-009  0.1306322E+03  0.7561462E-02  0.1118495E+00
         22   -1    0    0    0    0  0.00000000000E+00  0.00000000000E+00  0.28312997806E+03  0.28312997806E+03  0.00000000000E+00 0. -1.
         22   -1    0    0    0    0 -0.00000000000E+00 -0.00000000000E+00 -0.98231726325E+03  0.98231726325E+03  0.00000000000E+00 0.  1.
        -24    2    1    2    0    0  0.18983624741E+02 -0.51824437842E+01 -0.84740421461E+03  0.85130206716E+03  0.78956132630E+02 0.  0.
         25    2    1    2    0    0  0.94802776476E+01  0.30775656384E+02 -0.91587443083E+02  0.15834299670E+03  0.12508888114E+03 0.  0.
         24    2    1    2    0    0 -0.28463902388E+02 -0.25593212600E+02  0.23980437250E+03  0.25580217745E+03  0.80395339698E+02 0.  0.
        -13    1    5    5    0    0 -0.13726462924E+02 -0.27230551308E+02  0.22264361878E+02  0.37757390254E+02  0.00000000000E+00 0.  1.
         14    1    5    5    0    0 -0.14737439465E+02  0.16373387082E+01  0.21754001062E+03  0.21804478719E+03  0.00000000000E+00 0. -1.
         13    1    3    3    0    0  0.39547794873E+02  0.13040280989E+02 -0.26516475218E+03  0.26841464715E+03  0.00000000000E+00 0. -1.
        -14    1    3    3    0    0 -0.20564170132E+02 -0.18222724774E+02 -0.58223946243E+03  0.58288742001E+03  0.00000000000E+00 0.  1.
          5    1    4    4  501    0 -0.37636104083E+02  0.59493047459E+02 -0.33357506375E+02  0.78013426139E+02  0.41800000000E+01 0. -1.
         -5    1    4    4    0  501  0.47116381731E+02 -0.28717391075E+02 -0.58229936709E+02  0.80329570562E+02  0.41800000000E+01 0. -1.
</event>
<event>
11    1  0.8328696E-009  0.1657896E+03  0.7561462E-02  0.1081755E+00
         22   -1    0    0    0    0  0.00000000000E+00  0.00000000000E+00  0.12409428757E+04  0.12409428757E+04  0.00000000000E+00 0. -1.
         22   -1    0    0    0    0 -0.00000000000E+00 -0.00000000000E+00 -0.31090430952E+03  0.31090430952E+03  0.00000000000E+00 0.  1.
         24    2    1    2    0    0  0.63988865811E+02 -0.56388946651E+02 -0.26916919717E+03  0.29311260594E+03  0.78668003674E+02 0.  0.
         25    2    1    2    0    0  0.48552442220E+02  0.85856052631E+02  0.23293805791E+03  0.28219786922E+03  0.12508755793E+03 0.  0.
        -24    2    1    2    0    0 -0.11254130803E+03 -0.29467105980E+02  0.96626970548E+03  0.97653671009E+03  0.80080872067E+02 0.  0.
        -11    1    3    3    0    0  0.48701124914E+02 -0.47567242036E+02 -0.26674678065E+03  0.27529672550E+03  0.00000000000E+00 0.  1.
         12    1    3    3    0    0  0.15287740897E+02 -0.88217046147E+01 -0.24224165210E+01  0.17815880440E+02  0.00000000000E+00 0. -1.
         13    1    5    5    0    0 -0.25117060957E+02 -0.44747427924E+02  0.41658252464E+03  0.41973110308E+03  0.00000000000E+00 0. -1.
        -14    1    5    5    0    0 -0.87424247074E+02  0.15280321944E+02  0.54968718084E+03  0.55680560701E+03  0.00000000000E+00 0.  1.
          5    1    4    4  501    0  0.41421395777E+02  0.16191688176E+02  0.19957973169E+03  0.20451758970E+03  0.41800000000E+01 0. -1.
         -5    1    4    4    0  501  0.71310464426E+01  0.69664364455E+02  0.33358326222E+02  0.77680279522E+02  0.41800000000E+01 0. -1.
</event>
<event>
11    1  0.8328696E-009  0.1370075E+03  0.7561462E-02  0.1110947E+00
         22   -1    0    0    0    0  0.00000000000E+00  0.00000000000E+00  0.19354229807E+03  0.19354229807E+03  0.00000000000E+00 0. -1.
         22   -1    0    0    0    0 -0.00000000000E+00 -0.00000000000E+00 -0.15105430281E+04  0.15105430281E+04  0.00000000000E+00 0.  1.
         24    2    1    2    0    0  0.14090998206E+02 -0.32865104850E+02 -0.11889044196E+04  0.11921361134E+04  0.80100702698E+02 0.  0.
         25    2    1    2    0    0  0.31972390067E+02  0.64005439395E+02 -0.29021578663E+03  0.32402371249E+03  0.12508890217E+03 0.  0.
        -24    2    1    2    0    0 -0.46063388274E+02 -0.31140334546E+02  0.16211947622E+03  0.18792550026E+03  0.77082507135E+02 0.  0.
        -11    1    3    3    0    0  0.47464916836E+02 -0.14704994008E+02 -0.65710408244E+03  0.65898021999E+03  0.00000000000E+00 0.  1.
         12    1    3    3    0    0 -0.33373918630E+02 -0.18160110842E+02 -0.53180033716E+03  0.53315589341E+03  0.00000000000E+00 0. -1.
         13    1    5    5    0    0 -0.39806362005E+02 -0.51085550107E+02  0.15087930084E+03  0.16419148366E+03  0.00000000000E+00 0. -1.
        -14    1    5    5    0    0 -0.62570262688E+01  0.19945215561E+02  0.11240175375E+02  0.23734016600E+02  0.00000000000E+00 0.  1.
          5    1    4    4  501    0  0.20806322163E+02  0.96198184604E+01  0.48085988283E+01  0.23791573548E+02  0.41800000000E+01 0.  1.
         -5    1    4    4    0  501  0.11166067904E+02  0.54385620935E+02 -0.29502438546E+03  0.30023213894E+03  0.41800000000E+01 0.  1.
</event>
<event>
11    1  0.8328696E-009  0.1357526E+03  0.7561462E-02  0.1112396E+00
         22   -1    0    0    0    0  0.00000000000E+00  0.00000000000E+00  0.12935958643E+03  0.12935958643E+03  0.00000000000E+00 0.  1.
         22   -1    0    0    0    0 -0.00000000000E+00 -0.00000000000E+00 -0.59350277464E+03  0.59350277464E+03  0.00000000000E+00 0.  1.
        -24    2    1    2    0    0  0.46332491429E+02  0.16591551919E+02 -0.44010475670E+03  0.45048863837E+03  0.82618624258E+02 0.  0.
         25    2    1    2    0    0 -0.76302661589E+02 -0.34994305956E+02 -0.78709732222E+02  0.16996974000E+03  0.12509113859E+03 0.  0.
         24    2    1    2    0    0  0.29970170160E+02  0.18402754037E+02  0.54671300722E+02  0.10240398270E+03  0.79124914498E+02 0.  0.
        -13    1    5    5    0    0  0.36619881684E+02 -0.22605093624E+02  0.16827979292E+02  0.46208082403E+02  0.00000000000E+00 0.  1.
         14    1    5    5    0    0 -0.66497115241E+01  0.41007847661E+02  0.37843321430E+02  0.56195900295E+02  0.00000000000E+00 0. -1.
         11    1    3    3    0    0 -0.39511129906E+01 -0.23849988846E+02 -0.55913497820E+02  0.60915946190E+02  0.00000000000E+00 0. -1.
        -12    1    3    3    0    0  0.50283604420E+02  0.40441540765E+02 -0.38419125888E+03  0.38957269218E+03  0.00000000000E+00 0.  1.
          5    1    4    4  501    0 -0.23702623543E+02 -0.78573128604E+02 -0.41116623430E+02  0.91889063679E+02  0.41800000000E+01 0.  1.
         -5    1    4    4    0  501 -0.52600038046E+02  0.43578822648E+02 -0.37593108792E+02  0.78080676319E+02  0.41800000000E+01 0.  1.
</event>
<event>
11    1  0.8328696E-009  0.1566124E+03  0.7561462E-02  0.1090307E+00
         22   -1    0    0    0    0  0.00000000000E+00  0.00000000000E+00  0.94844492602E+03  0.94844492602E+03  0.00000000000E+00 0. -1.
         22   -1    0    0    0    0 -0.00000000000E+00 -0.00000000000E+00 -0.15238659062E+03  0.15238659062E+03  0.00000000000E+00 0. -1.
        -24    2    1    2    0    0 -0.13207102905E+02 -0.19388384239E+02 -0.11236415597E+03  0.14267547470E+03  0.84736358934E+02 0.  0.
         25    2    1    2    0    0 -0.84452989166E+02  0.20694406585E+02  0.30492211072E+03  0.34085991852E+03  0.12508966626E+03 0.  0.
         24    2    1    2    0    0  0.97660092071E+02 -0.13060223456E+01  0.60350038065E+03  0.61729612342E+03  0.85455223742E+02 0.  0.
        -11    1    5    5    0    0  0.72118778137E+02 -0.38469775442E+02  0.32231054390E+03  0.33251335085E+03  0.00000000000E+00 0.  1.
         12    1    5    5    0    0  0.25541313934E+02  0.37163753097E+02  0.28118983675E+03  0.28478277257E+03  0.00000000000E+00 0. -1.
         11    1    3    3    0    0 -0.22801224405E+01  0.23473572054E+02 -0.90138426430E+02  0.93172654050E+02  0.00000000000E+00 0. -1.
        -12    1    3    3    0    0 -0.10926980464E+02 -0.42861956293E+02 -0.22225729537E+02  0.49502820655E+02  0.00000000000E+00 0.  1.
          5    1    4    4  501    0 -0.21959150779E+01  0.29618817264E+02  0.58921598588E+01  0.30566097673E+02  0.41800000000E+01 0. -1.
         -5    1    4    4    0  501 -0.82257074089E+02 -0.89244106794E+01  0.29902995086E+03  0.31029382085E+03  0.41800000000E+01 0. -1.
</event>
<event>
11    1  0.8328696E-009  0.1260316E+03  0.7561462E-02  0.1124243E+00
         22   -1    0    0    0    0  0.00000000000E+00  0.00000000000E+00  0.29817837736E+03  0.29817837736E+03  0.00000000000E+00 0. -1.
         22   -1    0    0    0    0 -0.00000000000E+00 -0.00000000000E+00 -0.52521644241E+03  0.52521644241E+03  0.00000000000E+00 0.  1.
         24    2    1    2    0    0 -0.12651279603E+02  0.51115871849E+01 -0.38104534766E+03  0.38975935626E+03  0.80812224474E+02 0.  0.
         25    2    1    2    0    0  0.20825470151E+02 -0.19896458955E+02 -0.10286629656E+03  0.16449958255E+03  0.12509623657E+03 0.  0.
        -24    2    1    2    0    0 -0.81741905474E+01  0.14784871770E+02  0.25687357917E+03  0.26913588095E+03  0.78515456527E+02 0.  0.
        -13    1    3    3    0    0 -0.47062898827E+02  0.64423955888E+01 -0.21697618627E+03  0.22211502947E+03  0.00000000000E+00 0.  1.
         14    1    3    3    0    0  0.34411619224E+02 -0.13308084039E+01 -0.16406916138E+03  0.16764432679E+03  0.00000000000E+00 0. -1.
         11    1    5    5    0    0 -0.14554029713E+02 -0.19888993970E+02  0.20463216371E+03  0.20611092714E+03  0.00000000000E+00 0. -1.
        -12    1    5    5    0    0  0.63798391652E+01  0.34673865740E+02  0.52241415459E+02  0.63024953806E+02  0.00000000000E+00 0.  1.
          5    1    4    4  501    0  0.50833900355E+02 -0.20255837969E+02  0.24262083034E+01  0.54933990242E+02  0.41800000000E+01 0. -1.
         -5    1    4    4    0  501 -0.30008430204E+02  0.35937901453E+00 -0.10529250487E+03  0.10956559231E+03  0.41800000000E+01 0. -1.
</event>
<event>
11    1  0.8328696E-009  0.1313133E+03  0.7561462E-02  0.1117666E+00
         22   -1    0    0    0    0  0.00000000000E+00  0.00000000000E+00  0.14640506414E+03  0.14640506414E+03  0.00000000000E+00 0. -1.
         22   -1    0    0    0    0 -0.00000000000E+00 -0.00000000000E+00 -0.21335518624E+04  0.21335518624E+04  0.00000000000E+00 0.  1.
         24    2    1    2    0    0  0.10589290408E+02  0.37135217853E+02 -0.18269961530E+04  0.18290930534E+04  0.78583059746E+02 0.  0.
         25    2    1    2    0    0 -0.87652706935E+00 -0.63563623611E+02 -0.27453648530E+03  0.30831475627E+03  0.12508638866E+03 0.  0.
        -24    2    1    2    0    0 -0.97127633389E+01  0.26428405758E+02  0.11438584001E+03  0.14254911695E+03  0.80270367781E+02 0.  0.
        -11    1    3    3    0    0  0.38882708904E+02  0.26412586773E+02 -0.64535245673E+03  0.64706203968E+03  0.00000000000E+00 0.  1.
         12    1    3    3    0    0 -0.28293418495E+02  0.10722631081E+02 -0.11816436963E+04  0.11820310137E+04  0.00000000000E+00 0. -1.
         13    1    5    5    0    0  0.12821387628E+02  0.30103097331E+01  0.10877473976E+03  0.10956912866E+03  0.00000000000E+00 0. -1.
        -14    1    5    5    0    0 -0.22534150966E+02  0.23418096025E+02  0.56111002529E+01  0.32979988285E+02  0.00000000000E+00 0.  1.
          5    1    4    4  501    0  0.45344063425E+02  0.84889741562E+01 -0.50918879869E+02  0.68835684767E+02  0.41800000000E+01 0. -1.
         -5    1    4    4    0  501 -0.46220590495E+02 -0.72052597767E+02 -0.22361760543E+03  0.23947907150E+03  0.41800000000E+01 0. -1.
</event>
<event>
11    1  0.8328696E-009  0.1419278E+03  0.7561462E-02  0.1105425E+00
         22   -1    0    0    0    0  0.00000000000E+00  0.00000000000E+00  0.22632976934E+04  0.22632976934E+04  0.00000000000E+00 0.  1.
         22   -1    0    0    0    0 -0.00000000000E+00 -0.00000000000E+00 -0.44405108974E+02  0.44405108974E+02  0.00000000000E+00 0.  1.
         24    2    1    2    0    0  0.90158182771E+01  0.32089589202E+01  0.90550479725E+01  0.76164885541E+02  0.75016754790E+02 0.  0.
         25    2    1    2    0    0 -0.74671871186E+02 -0.64390411074E+00  0.56743219246E+03  0.58583467830E+03  0.12508666714E+03 0.  0.
        -24    2    1    2    0    0  0.65656052909E+02 -0.25650548094E+01  0.16424053440E+04  0.16457032386E+04  0.80786994993E+02 0.  0.
        -11    1    3    3    0    0  0.19899534090E+02  0.35762540236E+02  0.11537112460E+01  0.40942420431E+02  0.00000000000E+00 0.  1.
         12    1    3    3    0    0 -0.10883715813E+02 -0.32553581316E+02  0.79013367265E+01  0.35222465110E+02  0.00000000000E+00 0. -1.
         13    1    5    5    0    0  0.36691660801E+01 -0.19373054279E+02  0.98044728175E+02  0.10000773337E+03  0.00000000000E+00 0. -1.
        -14    1    5    5    0    0  0.61986886828E+02  0.16807999470E+02  0.15443606158E+04  0.15456955052E+04  0.00000000000E+00 0.  1.
          5    1    4    4  501    0 -0.95411937243E+02  0.30589929973E+02  0.48385238326E+03  0.49413538911E+03  0.41800000000E+01 0. -1.
         -5    1    4    4    0  501  0.20740066058E+02 -0.31233834084E+02  0.83579809200E+02  0.91699289188E+02  0.41800000000E+01 0. -1.
</event>
<event>
11    1  0.8328696E-009  0.1352545E+03  0.7561462E-02  0.1112976E+00
         22   -1    0    0    0    0  0.00000000000E+00  0.00000000000E+00  0.22718228582E+04  0.22718228582E+04  0.00000000000E+00 0. -1.
         22   -1    0    0    0    0 -0.00000000000E+00 -0.00000000000E+00 -0.85547429308E+02  0.85547429308E+02  0.00000000000E+00 0.  1.
        -24    2    1    2    0    0 -0.97702379890E+01 -0.33898075637E+02 -0.31534214130E+02  0.93924709410E+02  0.81135117518E+02 0.  0.
         25    2    1    2    0    0  0.23925218815E+02  0.81557564783E+02  0.24173167705E+03  0.28514252738E+03  0.12509198519E+03 0.  0.
         24    2    1    2    0    0 -0.14154980826E+02 -0.47659489146E+02  0.19760779659E+04  0.19783030507E+04  0.79542708786E+02 0.  0.
        -11    1    5    5    0    0  0.29263948372E+02 -0.13092195541E+02  0.11011886546E+04  0.11016552261E+04  0.00000000000E+00 0.  1.
         12    1    5    5    0    0 -0.43418929198E+02 -0.34567293604E+02  0.87488931138E+03  0.87664782459E+03  0.00000000000E+00 0. -1.
         11    1    3    3    0    0  0.32283642334E+02 -0.23051080136E+01  0.44201685374E+00  0.32368850214E+02  0.00000000000E+00 0. -1.
        -12    1    3    3    0    0 -0.42053880323E+02 -0.31592967624E+02 -0.31976230983E+02  0.61555859196E+02  0.00000000000E+00 0.  1.
          5    1    4    4  501    0  0.30864879894E+02  0.85547589749E+02  0.74420730857E+02  0.11758804575E+03  0.41800000000E+01 0.  1.
         -5    1    4    4    0  501 -0.69396610786E+01 -0.39900249663E+01  0.16731094620E+03  0.16755448162E+03  0.41800000000E+01 0.  1.
</event>
<event>
11    1  0.8328696E-009  0.1308527E+03  0.7561462E-02  0.1118226E+00
         22   -1    0    0    0    0  0.00000000000E+00  0.00000000000E+00  0.88480015425E+03  0.88480015425E+03  0.00000000000E+00 0.  1.
         22   -1    0    0    0    0 -0.00000000000E+00 -0.00000000000E+00 -0.15866735370E+03  0.15866735370E+03  0.00000000000E+00 0.  1.
        -24    2    1    2    0    0  0.55363567662E+01 -0.27620278681E+01 -0.11430812316E+03  0.13814102789E+03  0.77319573988E+02 0.  0.
         25    2    1    2    0    0  0.51404136328E+00 -0.35450512917E+02  0.11200558505E+03  0.17161075303E+03  0.12509195166E+03 0.  0.
         24    2    1    2    0    0 -0.60503981295E+01  0.38212540785E+02  0.72843533867E+03  0.73371572703E+03  0.78891823884E+02 0.  0.
        -11    1    5    5    0    0 -0.15722290568E+02  0.55863111264E+02  0.65519913848E+03  0.65776423488E+03  0.00000000000E+00 0.  1.
         12    1    5    5    0    0  0.96718924382E+01 -0.17650570479E+02  0.73236200188E+02  0.75951492148E+02  0.00000000000E+00 0. -1.
         11    1    3    3    0    0  0.31280246111E+02  0.11521398379E+02 -0.18956345803E+02  0.38347613531E+02  0.00000000000E+00 0. -1.
        -12    1    3    3    0    0 -0.25743889345E+02 -0.14283426247E+02 -0.95351777360E+02  0.99793414360E+02  0.00000000000E+00 0.  1.
          5    1    4    4  501    0  0.22667494764E+02 -0.56773656719E+02  0.64785015441E+01  0.61615799909E+02  0.41800000000E+01 0. -1.
         -5    1    4    4    0  501 -0.22153453401E+02  0.21323143802E+02  0.10552708351E+03  0.10999495312E+03  0.41800000000E+01 0. -1.
</event>
<event>
11    1  0.8328696E-009  0.1478194E+03  0.7561462E-02  0.1099128E+00
         22   -1    0    0    0    0  0.00000000000E+00  0.00000000000E+00  0.13568250439E+03  0.13568250439E+03  0.00000000000E+00 0. -1.
         22   -1    0    0    0    0 -0.00000000000E+00 -0.00000000000E+00 -0.11143142114E+04  0.11143142114E+04  0.00000000000E+00 0.  1.
         24    2    1    2    0    0  0.95874522514E+01 -0.26739129757E+02 -0.62033956610E+03  0.62438785032E+03  0.65054669758E+02 0.  0.
         25    2    1    2    0    0 -0.84821846387E+02  0.46882756831E+02 -0.45225685017E+03  0.47914177520E+03  0.12509134143E+03 0.  0.
        -24    2    1    2    0    0  0.75234394136E+02 -0.20143627074E+02  0.93964709289E+02  0.14646709025E+03  0.80976923629E+02 0.  0.
        -13    1    3    3    0    0 -0.14826291639E+02 -0.39981581213E+02 -0.41321978583E+03  0.41541417544E+03  0.00000000000E+00 0.  1.
         14    1    3    3    0    0  0.24413743890E+02  0.13242451456E+02 -0.20711978027E+03  0.20897367487E+03  0.00000000000E+00 0. -1.
         13    1    5    5    0    0  0.66677015402E+02 -0.19916110760E+02  0.10891020870E+03  0.12924360491E+03  0.00000000000E+00 0. -1.
        -14    1    5    5    0    0  0.85573787338E+01 -0.22751631446E+00 -0.14945499411E+02  0.17223485336E+02  0.00000000000E+00 0.  1.
          5    1    4    4  501    0 -0.28223699168E+02 -0.39599483861E+02 -0.21231003213E+03  0.21784792507E+03  0.41800000000E+01 0.  1.
         -5    1    4    4    0  501 -0.56598147219E+02  0.86482240692E+02 -0.23994681804E+03  0.26129385012E+03  0.41800000000E+01 0.  1.
</event>
<event>
11    1  0.8328696E-009  0.1768694E+03  0.7561462E-02  0.1072204E+00
         22   -1    0    0    0    0  0.00000000000E+00  0.00000000000E+00  0.59001111267E+03  0.59001111267E+03  0.00000000000E+00 0. -1.
         22   -1    0    0    0    0 -0.00000000000E+00 -0.00000000000E+00 -0.34142827143E+03  0.34142827143E+03  0.00000000000E+00 0.  1.
         24    2    1    2    0    0  0.46738210160E+02 -0.10515464049E+03 -0.21097773104E+03  0.25244845131E+03  0.77308853752E+02 0.  0.
         25    2    1    2    0    0 -0.22590378995E+02  0.19585926374E+03  0.34495161917E+02  0.23603114409E+03  0.12509839475E+03 0.  0.
        -24    2    1    2    0    0 -0.24147831165E+02 -0.90704623258E+02  0.42506541035E+03  0.44295978870E+03  0.81989785333E+02 0.  0.
        -13    1    3    3    0    0  0.37474854928E+02 -0.89326628658E+02 -0.21300497518E+03  0.23399728800E+03  0.00000000000E+00 0.  1.
         14    1    3    3    0    0  0.92633552324E+01 -0.15828011828E+02  0.20272441426E+01  0.18451163308E+02  0.00000000000E+00 0. -1.
         11    1    5    5    0    0  0.23635423465E+02 -0.62996838984E+02  0.27312705340E+03  0.28129276966E+03  0.00000000000E+00 0. -1.
        -12    1    5    5    0    0 -0.47783254630E+02 -0.27707784275E+02  0.15193835695E+03  0.16166701904E+03  0.00000000000E+00 0.  1.
          5    1    4    4  501    0 -0.29079236795E+02  0.22444414672E+02  0.49516687181E+02  0.61795861285E+02  0.41800000000E+01 0.  1.
         -5    1    4    4    0  501  0.64888578000E+01  0.17341484907E+03 -0.15021525264E+02  0.17423528281E+03  0.41800000000E+01 0.  1.
</event>
<event>
11    1  0.8328696E-009  0.1277463E+03  0.7561462E-02  0.1122069E+00
         22   -1    0    0    0    0  0.00000000000E+00  0.00000000000E+00  0.88718524492E+03  0.88718524492E+03  0.00000000000E+00 0.  1.
         22   -1    0    0    0    0 -0.00000000000E+00 -0.00000000000E+00 -0.95092873541E+03  0.95092873541E+03  0.00000000000E+00 0. -1.
         24    2    1    2    0    0  0.26994277561E+02  0.16780910943E+02 -0.91280884303E+03  0.91696495140E+03  0.81206207814E+02 0.  0.
         25    2    1    2    0    0 -0.46224098226E+02 -0.30556066050E+02  0.10628184077E+03  0.17324572380E+03  0.12509160926E+03 0.  0.
        -24    2    1    2    0    0  0.19229820665E+02  0.13775155107E+02  0.74278351177E+03  0.74790330513E+03  0.84097964063E+02 0.  0.
        -13    1    3    3    0    0 -0.59502264353E+01 -0.26705152548E+02 -0.47209912327E+03  0.47289126928E+03  0.00000000000E+00 0.  1.
         14    1    3    3    0    0  0.32944503996E+02  0.43486063491E+02 -0.44070971976E+03  0.44407368212E+03  0.00000000000E+00 0. -1.
         11    1    5    5    0    0 -0.25561932507E+02  0.22772602323E+01  0.92987269308E+02  0.96463622994E+02  0.00000000000E+00 0. -1.
        -12    1    5    5    0    0  0.44791753173E+02  0.11497894875E+02  0.64979624246E+03  0.65143968214E+03  0.00000000000E+00 0.  1.
          5    1    4    4  501    0 -0.46721424805E+01 -0.70602367158E+02  0.87085306620E+02  0.11228466588E+03  0.41800000000E+01 0.  1.
         -5    1    4    4    0  501 -0.41551955746E+02  0.40046301108E+02  0.19196534146E+02  0.60961057913E+02  0.41800000000E+01 0.  1.
</event>
<event>
11    1  0.8328696E-009  0.1695004E+03  0.7561462E-02  0.1078467E+00
         22   -1    0    0    0    0  0.00000000000E+00  0.00000000000E+00  0.42706272530E+03  0.42706272530E+03  0.00000000000E+00 0.  1.
         22   -1    0    0    0    0 -0.00000000000E+00 -0.00000000000E+00 -0.99270344495E+03  0.99270344495E+03  0.00000000000E+00 0. -1.
         24    2    1    2    0    0 -0.98933173966E+02  0.62519209421E+02 -0.92384765340E+03  0.93446426000E+03  0.77669441006E+02 0.  0.
         25    2    1    2    0    0  0.19447299188E+02 -0.81961070747E+02  0.54303773718E+02  0.16028291677E+03  0.12508356809E+03 0.  0.
        -24    2    1    2    0    0  0.79485874779E+02  0.19441861326E+02  0.30390316003E+03  0.32501899347E+03  0.81143238653E+02 0.  0.
        -13    1    3    3    0    0 -0.73491324711E+02  0.25617543044E+02 -0.33537621374E+03  0.34428830660E+03  0.00000000000E+00 0.  1.
         14    1    3    3    0    0 -0.25441849256E+02  0.36901666377E+02 -0.58847143966E+03  0.59017595339E+03  0.00000000000E+00 0. -1.
         13    1    5    5    0    0 -0.66173122824E+01 -0.17824556614E+02  0.30248859101E+02  0.35728099827E+02  0.00000000000E+00 0. -1.
        -14    1    5    5    0    0  0.86103187061E+02  0.37266417940E+02  0.27365430093E+03  0.28929089365E+03  0.00000000000E+00 0.  1.
          5    1    4    4  501    0  0.49285950725E+02 -0.73248863906E+02  0.80399239123E+02  0.11948226251E+03  0.41800000000E+01 0.  1.
         -5    1    4    4    0  501 -0.29838651537E+02 -0.87122068415E+01 -0.26095465406E+02  0.40800654264E+02  0.41800000000E+01 0.  1.
</event>
<event>
11    1  0.8328696E-009  0.1964797E+03  0.7561462E-02  0.1057041E+00
         22   -1    0    0    0    0  0.00000000000E+00  0.00000000000E+00  0.10265814791E+04  0.10265814791E+04  0.00000000000E+00 0. -1.
         22   -1    0    0    0    0 -0.00000000000E+00 -0.00000000000E+00 -0.20114020405E+04  0.20114020405E+04  0.00000000000E+00 0.  1.
         24    2    1    2    0    0  0.12230236332E+03 -0.86848350424E+02 -0.18924287776E+04  0.19000956660E+04  0.81094745870E+02 0.  0.
         25    2    1    2    0    0 -0.24982188770E+03  0.33740862370E+02  0.76570047432E+02  0.29165076192E+03  0.12509106042E+03 0.  0.
        -24    2    1    2    0    0  0.12751952438E+03  0.53107488054E+02  0.83103816869E+03  0.84623709162E+03  0.80069613697E+02 0.  0.
        -13    1    3    3    0    0  0.49330860867E+02 -0.18085068951E+02 -0.11136758016E+04  0.11149145235E+04  0.00000000000E+00 0.  1.
         14    1    3    3    0    0  0.72971502454E+02 -0.68763281473E+02 -0.77875297595E+03  0.78518114254E+03  0.00000000000E+00 0. -1.
         11    1    5    5    0    0  0.11470829127E+03  0.14883674848E+02  0.52746988319E+03  0.54000369770E+03  0.00000000000E+00 0. -1.
        -12    1    5    5    0    0  0.12811233103E+02  0.38223813206E+02  0.30356828550E+03  0.30623339392E+03  0.00000000000E+00 0.  1.
          5    1    4    4  501    0  0.39144134674E+01  0.87270779127E+01 -0.17063490404E+02  0.20002990438E+02  0.41800000000E+01 0.  1.
         -5    1    4    4    0  501 -0.25373630117E+03  0.25013784457E+02  0.93633537836E+02  0.27164777148E+03  0.41800000000E+01 0.  1.
</event>
<event>
11    1  0.8328696E-009  0.1589537E+03  0.7561462E-02  0.1088066E+00
         22   -1    0    0    0    0  0.00000000000E+00  0.00000000000E+00  0.29379022674E+03  0.29379022674E+03  0.00000000000E+00 0.  1.
         22   -1    0    0    0    0 -0.00000000000E+00 -0.00000000000E+00 -0.22151705129E+04  0.22151705129E+04  0.00000000000E+00 0.  1.
        -24    2    1    2    0    0 -0.50620448318E+02 -0.13616866909E+02 -0.15333847396E+04  0.15362053481E+04  0.76878234448E+02 0.  0.
         25    2    1    2    0    0  0.14704929563E+03  0.27442762690E+01 -0.65198628423E+03  0.67997437683E+03  0.12509201385E+03 0.  0.
         24    2    1    2    0    0 -0.96428847308E+02  0.10872590640E+02  0.26399073770E+03  0.29278101472E+03  0.81319598918E+02 0.  0.
        -11    1    5    5    0    0 -0.87157603697E+02 -0.20843973502E+02  0.22158787722E+03  0.23902323411E+03  0.00000000000E+00 0.  1.
         12    1    5    5    0    0 -0.92712436109E+01  0.31716564142E+02  0.42402860476E+02  0.53757780606E+02  0.00000000000E+00 0. -1.
         13    1    3    3    0    0 -0.37595907057E+02 -0.32915895764E+02 -0.48604508158E+03  0.48860692765E+03  0.00000000000E+00 0. -1.
        -14    1    3    3    0    0 -0.13024541261E+02  0.19299028854E+02 -0.10473396580E+04  0.10475984204E+04  0.00000000000E+00 0.  1.
          5    1    4    4  501    0  0.15426213973E+02  0.88161587145E+01 -0.34990272489E+03  0.35037848395E+03  0.41800000000E+01 0. -1.
         -5    1    4    4    0  501  0.13162308165E+03 -0.60718824455E+01 -0.30208355934E+03  0.32959589288E+03  0.41800000000E+01 0. -1.
</event>
<event>
11    1  0.8328696E-009  0.1336116E+03  0.7561462E-02  0.1114909E+00
         22   -1    0    0    0    0  0.00000000000E+00  0.00000000000E+00  0.41591221465E+04  0.41591221465E+04  0.00000000000E+00 0.  1.
         22   -1    0    0    0    0 -0.00000000000E+00 -0.00000000000E+00 -0.19159968371E+03  0.19159968371E+03  0.00000000000E+00 0. -1.
        -24    2    1    2    0    0  0.53645323124E+01  0.48228110353E+02 -0.16119531782E+03  0.19142724762E+03  0.91135787756E+02 0.  0.
         25    2    1    2    0    0  0.22420734050E+02 -0.19762764463E+02  0.26561846616E+03  0.29511916233E+03  0.12509554042E+03 0.  0.
         24    2    1    2    0    0 -0.27785266363E+02 -0.28465345890E+02  0.38630993145E+04  0.38641754203E+04  0.82055275733E+02 0.  0.
        -11    1    5    5    0    0 -0.11158727015E+02  0.16379491145E+02  0.27244271283E+04  0.27244992168E+04  0.00000000000E+00 0.  1.
         12    1    5    5    0    0 -0.16626539348E+02 -0.44844837035E+02  0.11386721862E+04  0.11396762035E+04  0.00000000000E+00 0. -1.
         11    1    3    3    0    0 -0.10957772446E+02  0.31902646806E+02 -0.16466319142E+03  0.16808277205E+03  0.00000000000E+00 0. -1.
        -12    1    3    3    0    0  0.16322304758E+02  0.16325463548E+02  0.34678735988E+01  0.23344475577E+02  0.00000000000E+00 0.  1.
          5    1    4    4  501    0 -0.43941678692E+02 -0.20429781118E+02  0.18142940490E+03  0.18783596154E+03  0.41800000000E+01 0.  1.
         -5    1    4    4    0  501  0.66362412742E+02  0.66701665463E+00  0.84189061257E+02  0.10728320079E+03  0.41800000000E+01 0.  1.
</event>
<event>
11    1  0.8328696E-009  0.1387975E+03  0.7561462E-02  0.1108909E+00
         22   -1    0    0    0    0  0.00000000000E+00  0.00000000000E+00  0.23703565715E+04  0.23703565715E+04  0.00000000000E+00 0.  1.
         22   -1    0    0    0    0 -0.00000000000E+00 -0.00000000000E+00 -0.39933953818E+04  0.39933953818E+04  0.00000000000E+00 0.  1.
         24    2    1    2    0    0 -0.53467484536E+02 -0.27463134104E+02 -0.39747991863E+04  0.39761362930E+04  0.83775019956E+02 0.  0.
         25    2    1    2    0    0  0.59561023907E+02  0.40223506806E+02  0.28857268430E+03  0.32262738712E+03  0.12509512672E+03 0.  0.
        -24    2    1    2    0    0 -0.60935393709E+01 -0.12760372703E+02  0.20631876917E+04  0.20649882731E+04  0.85047979022E+02 0.  0.
        -11    1    3    3    0    0 -0.40935014563E+02 -0.10357097055E+02 -0.37710830504E+04  0.37713194399E+04  0.00000000000E+00 0.  1.
         12    1    3    3    0    0 -0.12532469973E+02 -0.17106037049E+02 -0.20371613591E+03  0.20481685316E+03  0.00000000000E+00 0. -1.
         11    1    5    5    0    0  0.21070005169E+02  0.60235614952E+01  0.15779786685E+03  0.15931225688E+03  0.00000000000E+00 0. -1.
        -12    1    5    5    0    0 -0.27163544539E+02 -0.18783934198E+02  0.19053898248E+04  0.19056760162E+04  0.00000000000E+00 0.  1.
          5    1    4    4  501    0  0.57001879796E+00 -0.39549628017E+02  0.12596702111E+03  0.13209716426E+03  0.41800000000E+01 0.  1.
         -5    1    4    4    0  501  0.58991005109E+02  0.79773134823E+02  0.16260566319E+03  0.19053022286E+03  0.41800000000E+01 0.  1.
</event>
<event>
11    1  0.8328696E-009  0.1294252E+03  0.7561462E-02  0.1119977E+00
         22   -1    0    0    0    0  0.00000000000E+00  0.00000000000E+00  0.12799788826E+04  0.12799788826E+04  0.00000000000E+00 0.  1.
         22   -1    0    0    0    0 -0.00000000000E+00 -0.00000000000E+00 -0.29798875558E+03  0.29798875558E+03  0.00000000000E+00 0. -1.
        -24    2    1    2    0    0  0.40602891918E+02 -0.87355184556E+00 -0.24480459208E+03  0.25964214425E+03  0.76389769204E+02 0.  0.
         25    2    1    2    0    0 -0.66394232814E+01  0.87087115703E+01  0.45990700023E+02  0.13372382682E+03  0.12508794416E+03 0.  0.
         24    2    1    2    0    0 -0.33963468637E+02 -0.78351597247E+01  0.11808040191E+04  0.11846016671E+04  0.88136662745E+02 0.  0.
        -11    1    5    5    0    0 -0.55282945137E+02 -0.22582680099E+02  0.54355344318E+03  0.54682403665E+03  0.00000000000E+00 0.  1.
         12    1    5    5    0    0  0.21319476500E+02  0.14747520374E+02  0.63725057590E+03  0.63777763046E+03  0.00000000000E+00 0. -1.
         13    1    3    3    0    0  0.27398526787E+02 -0.29668780956E+02 -0.20413233210E+03  0.20808874270E+03  0.00000000000E+00 0. -1.
        -14    1    3    3    0    0  0.13204365132E+02  0.28795229111E+02 -0.40672259987E+02  0.51553401542E+02  0.00000000000E+00 0.  1.
          5    1    4    4  501    0  0.41970467999E+01 -0.24092250131E+02 -0.36534768679E+02  0.44162353205E+02  0.41800000000E+01 0.  1.
         -5    1    4    4    0  501 -0.10836470081E+02  0.32800961701E+02  0.82525468702E+02  0.89561473619E+02  0.41800000000E+01 0.  1.
</event>
<event>
11    1  0.8328696E-009  0.2378960E+03  0.7561462E-02  0.1030552E+00
         22   -1    0    0    0    0  0.00000000000E+00  0.00000000000E+00  0.23681403352E+04  0.23681403352E+04  0.00000000000E+00 0.  1.
         22   -1    0    0    0    0 -0.00000000000E+00 -0.00000000000E+00 -0.60413936951E+03  0.60413936951E+03  0.00000000000E+00 0. -1.
         24    2    1    2    0    0 -0.62199944807E+02 -0.38704394642E+02 -0.52556031877E+03  0.53672719114E+03  0.80595072728E+02 0.  0.
         25    2    1    2    0    0 -0.12960751106E+03 -0.41375928055E+02  0.59178723433E+02  0.19406158924E+03  0.12509078609E+03 0.  0.
        -24    2    1    2    0    0  0.19180745586E+03  0.80080322697E+02  0.22303825611E+04  0.22414909244E+04  0.80450215394E+02 0.  0.
        -11    1    3    3    0    0 -0.63316650175E+02 -0.54120934135E+02 -0.32262558329E+03  0.33320465287E+03  0.00000000000E+00 0.  1.
         12    1    3    3    0    0  0.11167053672E+01  0.15416539494E+02 -0.20293473547E+03  0.20352253827E+03  0.00000000000E+00 0. -1.
         11    1    5    5    0    0  0.21070366499E+02  0.26704112179E+01  0.74361577285E+02  0.77335215890E+02  0.00000000000E+00 0. -1.
        -12    1    5    5    0    0  0.17073708937E+03  0.77409911479E+02  0.21560209838E+04  0.21641557085E+04  0.00000000000E+00 0.  1.
          5    1    4    4  501    0 -0.50746762716E+02  0.36930234318E+02 -0.91080091206E+01  0.63557095301E+02  0.41800000000E+01 0.  1.
         -5    1    4    4    0  501 -0.78860748341E+02 -0.78306162373E+02  0.68286732554E+02  0.13050449394E+03  0.41800000000E+01 0.  1.
</event>
<event>
11    1  0.8328696E-009  0.1483737E+03  0.7561462E-02  0.1098552E+00
         22   -1    0    0    0    0  0.00000000000E+00  0.00000000000E+00  0.11393066553E+04  0.11393066553E+04  0.00000000000E+00 0.  1.
         22   -1    0    0    0    0 -0.00000000000E+00 -0.00000000000E+00 -0.23996522547E+03  0.23996522547E+03  0.00000000000E+00 0.  1.
        -24    2    1    2    0    0 -0.28085424615E+02  0.26622763429E+02 -0.19368932421E+03  0.21901154322E+03  0.94619972227E+02 0.  0.
         25    2    1    2    0    0 -0.16608909548E+02 -0.91857101276E+02  0.17148899142E+03  0.23188433397E+03  0.12509311425E+03 0.  0.
         24    2    1    2    0    0  0.44694334163E+02  0.65234337847E+02  0.92154176258E+03  0.92837600354E+03  0.79935482848E+02 0.  0.
        -11    1    5    5    0    0  0.14455057909E+02  0.62915473149E+02  0.81638075362E+03  0.81892908139E+03  0.00000000000E+00 0.  1.
         12    1    5    5    0    0  0.30239276255E+02  0.23188646979E+01  0.10516100896E+03  0.10944692215E+03  0.00000000000E+00 0. -1.
         11    1    3    3    0    0  0.15809312854E+02 -0.19295808301E+02 -0.14404155579E+02  0.28805247592E+02  0.00000000000E+00 0. -1.
        -12    1    3    3    0    0 -0.43894737469E+02  0.45918571730E+02 -0.17928516863E+03  0.19020629563E+03  0.00000000000E+00 0.  1.
          5    1    4    4  501    0 -0.20043944751E+01  0.16142192875E+02  0.10018133863E+03  0.10157933352E+03  0.41800000000E+01 0.  1.
         -5    1    4    4    0  501 -0.14604515073E+02 -0.10799929415E+03  0.71307652786E+02  0.13030500045E+03  0.41800000000E+01 0.  1.
</event>
<event>
11    1  0.8328696E-009  0.1448388E+03  0.7561462E-02  0.1102272E+00
         22   -1    0    0    0    0  0.00000000000E+00  0.00000000000E+00  0.15314223146E+04  0.15314223146E+04  0.00000000000E+00 0. -1.
         22   -1    0    0    0    0 -0.00000000000E+00 -0.00000000000E+00 -0.33513488648E+03  0.33513488648E+03  0.00000000000E+00 0.  1.
        -24    2    1    2    0    0 -0.41652985678E+02 -0.38217285309E+01 -0.21829104572E+03  0.23641148211E+03  0.80559489873E+02 0.  0.
         25    2    1    2    0    0  0.80635494027E+01  0.68966036553E+02 -0.57435819642E+02  0.15416920677E+03  0.12509171000E+03 0.  0.
         24    2    1    2    0    0  0.33589436275E+02 -0.65144308022E+02  0.14720142934E+04  0.14759765122E+04  0.79426401739E+02 0.  0.
        -13    1    5    5    0    0 -0.11264045086E+02 -0.39908496241E+02  0.30233730054E+03  0.30516783920E+03  0.00000000000E+00 0.  1.
         14    1    5    5    0    0  0.44853481361E+02 -0.25235811781E+02  0.11696769929E+04  0.11708086730E+04  0.00000000000E+00 0. -1.
         11    1    3    3    0    0  0.44243975029E+01  0.27363714063E+02 -0.33796189367E+02  0.43709616291E+02  0.00000000000E+00 0. -1.
        -12    1    3    3    0    0 -0.46077383181E+02 -0.31185442594E+02 -0.18449485635E+03  0.19270186582E+03  0.00000000000E+00 0.  1.
          5    1    4    4  501    0 -0.57539021062E+02  0.25108605172E+02 -0.15903181382E+02  0.64896568295E+02  0.41800000000E+01 0.  1.
         -5    1    4    4    0  501  0.65602570465E+02  0.43857431381E+02 -0.41532638260E+02  0.89272638472E+02  0.41800000000E+01 0.  1.
</event>
<event>
11    1  0.8328696E-009  0.1674841E+03  0.7561462E-02  0.1080242E+00
         22   -1    0    0    0    0  0.00000000000E+00  0.00000000000E+00  0.50663290614E+03  0.50663290614E+03  0.00000000000E+00 0.  1.
         22   -1    0    0    0    0 -0.00000000000E+00 -0.00000000000E+00 -0.17428624022E+03  0.17428624022E+03  0.00000000000E+00 0.  1.
        -24    2    1    2    0    0  0.24226499131E+02 -0.27851319619E+02 -0.70155358608E+02  0.11667801718E+03  0.85611716994E+02 0.  0.
         25    2    1    2    0    0  0.77195438453E+02 -0.30825924708E+02  0.16336458718E+02  0.15108109899E+03  0.12509694335E+03 0.  0.
         24    2    1    2    0    0 -0.10142193758E+03  0.58677244327E+02  0.38616556581E+03  0.41316003020E+03  0.88588587898E+02 0.  0.
        -13    1    5    5    0    0 -0.11096304935E+03  0.70641132815E+02  0.34255618179E+03  0.36694373636E+03  0.00000000000E+00 0.  1.
         14    1    5    5    0    0  0.95411117675E+01 -0.11963888488E+02  0.43609384022E+02  0.46216293840E+02  0.00000000000E+00 0. -1.
         11    1    3    3    0    0  0.30598481518E+02 -0.54510098460E+02 -0.62089129675E+02  0.88106060683E+02  0.00000000000E+00 0. -1.
        -12    1    3    3    0    0 -0.63719823874E+01  0.26658778840E+02 -0.80662289335E+01  0.28571956496E+02  0.00000000000E+00 0.  1.
          5    1    4    4  501    0  0.46450430278E+02 -0.78134640662E+02 -0.36771934608E+01  0.91069526715E+02  0.41800000000E+01 0. -1.
         -5    1    4    4    0  501  0.30745008175E+02  0.47308715954E+02  0.20013652178E+02  0.60011572271E+02  0.41800000000E+01 0. -1.
</event>
<event>
11    1  0.8328696E-009  0.2507654E+03  0.7561462E-02  0.1023492E+00
         22   -1    0    0    0    0  0.00000000000E+00  0.00000000000E+00  0.11456174731E+03  0.11456174731E+03  0.00000000000E+00 0.  1.
         22   -1    0    0    0    0 -0.00000000000E+00 -0.00000000000E+00 -0.12101182983E+04  0.12101182983E+04  0.00000000000E+00 0.  1.
         24    2    1    2    0    0  0.88438085741E+02 -0.19908145238E+03 -0.90473048119E+03  0.93398520401E+03  0.79601495145E+02 0.  0.
         25    2    1    2    0    0 -0.60240008969E+02  0.20808353599E+03 -0.15754675794E+03  0.29562765632E+03  0.12508842317E+03 0.  0.
        -24    2    1    2    0    0 -0.28198076772E+02 -0.90020836079E+01 -0.33279311852E+02  0.95067185268E+02  0.83988618720E+02 0.  0.
        -11    1    3    3    0    0  0.63661168842E+01 -0.10977144391E+03 -0.46600428918E+03  0.47880089272E+03  0.00000000000E+00 0.  1.
         12    1    3    3    0    0  0.82071968856E+02 -0.89310008469E+02 -0.43872619201E+03  0.45518431129E+03  0.00000000000E+00 0. -1.
         13    1    5    5    0    0  0.62291836322E+01 -0.41174924916E+02 -0.19433343683E+02  0.45954673508E+02  0.00000000000E+00 0. -1.
        -14    1    5    5    0    0 -0.34427260404E+02  0.32172841308E+02 -0.13845968169E+02  0.49112511759E+02  0.00000000000E+00 0.  1.
          5    1    4    4  501    0 -0.86748183329E+02  0.15825931418E+03 -0.15667252369E+03  0.23902930764E+03  0.41800000000E+01 0. -1.
         -5    1    4    4    0  501  0.26508174361E+02  0.49824221809E+02 -0.87423425356E+00  0.56598348671E+02  0.41800000000E+01 0. -1.
</event>
<event>
11    1  0.8328696E-009  0.2087993E+03  0.7561462E-02  0.1048470E+00
         22   -1    0    0    0    0  0.00000000000E+00  0.00000000000E+00  0.93478979764E+03  0.93478979764E+03  0.00000000000E+00 0. -1.
         22   -1    0    0    0    0 -0.00000000000E+00 -0.00000000000E+00 -0.66464723293E+03  0.66464723293E+03  0.00000000000E+00 0. -1.
        -24    2    1    2    0    0  0.14033602824E+03  0.86361521467E+02 -0.54833090745E+03  0.57800997272E+03  0.79222669022E+02 0.  0.
         25    2    1    2    0    0 -0.13315795352E+03 -0.14338414295E+03  0.38540746376E+02  0.23542039546E+03  0.12508924987E+03 0.  0.
         24    2    1    2    0    0 -0.71780747232E+01  0.57022621480E+02  0.77993272579E+03  0.78600666239E+03  0.78792845175E+02 0.  0.
        -13    1    5    5    0    0 -0.15321453117E+01  0.17619574558E+02  0.28643927902E+02  0.33664097827E+02  0.00000000000E+00 0.  1.
         14    1    5    5    0    0 -0.56459294116E+01  0.39403046923E+02  0.75128879789E+03  0.75234256456E+03  0.00000000000E+00 0. -1.
         11    1    3    3    0    0  0.14169850862E+03  0.97174859206E+02 -0.51037259627E+03  0.53851797336E+03  0.00000000000E+00 0. -1.
        -12    1    3    3    0    0 -0.13624803841E+01 -0.10813337739E+02 -0.37958311184E+02  0.39491999364E+02  0.00000000000E+00 0.  1.
          5    1    4    4  501    0 -0.13311171333E+03 -0.89036231550E+02 -0.12578574908E+02  0.16069185325E+03  0.41800000000E+01 0. -1.
         -5    1    4    4    0  501 -0.46240184485E-01 -0.54347911397E+02  0.51119321284E+02  0.74728542204E+02  0.41800000000E+01 0. -1.
</event>
<event>
11    1  0.8328696E-009  0.1537797E+03  0.7561462E-02  0.1093078E+00
         22   -1    0    0    0    0  0.00000000000E+00  0.00000000000E+00  0.13380411638E+04  0.13380411638E+04  0.00000000000E+00 0. -1.
         22   -1    0    0    0    0 -0.00000000000E+00 -0.00000000000E+00 -0.66179271017E+03  0.66179271017E+03  0.00000000000E+00 0.  1.
         24    2    1    2    0    0  0.87600678368E+02 -0.10941562845E+02 -0.59283053571E+03  0.60472199211E+03  0.80293505462E+02 0.  0.
         25    2    1    2    0    0 -0.11504728940E+03 -0.16147923661E+02  0.55394802508E+02  0.17948036823E+03  0.12509190301E+03 0.  0.
        -24    2    1    2    0    0  0.27446611031E+02  0.27089486506E+02  0.12136841868E+04  0.12156315136E+04  0.56951864211E+02 0.  0.
        -11    1    3    3    0    0  0.48476329144E+02 -0.20786099424E+02 -0.50860510196E+03  0.51133273527E+03  0.00000000000E+00 0.  1.
         12    1    3    3    0    0  0.39124349224E+02  0.98445365787E+01 -0.84225433753E+02  0.93389256842E+02  0.00000000000E+00 0. -1.
         13    1    5    5    0    0  0.26059728402E+02  0.43927796428E+02  0.82423604375E+03  0.82581705998E+03  0.00000000000E+00 0. -1.
        -14    1    5    5    0    0  0.13868826296E+01 -0.16838309922E+02  0.38944814309E+03  0.38981445366E+03  0.00000000000E+00 0.  1.
          5    1    4    4  501    0 -0.12932374132E+03 -0.38821275570E+02  0.66015468730E+02  0.15035702850E+03  0.41800000000E+01 0. -1.
         -5    1    4    4    0  501  0.14276451924E+02  0.22673351909E+02 -0.10620666221E+02  0.29123339735E+02  0.41800000000E+01 0. -1.
</event>
<event>
11    1  0.8328696E-009  0.3638261E+03  0.7561462E-02  0.9762966E-01
         22   -1    0    0    0    0  0.00000000000E+00  0.00000000000E+00  0.10277991015E+03  0.10277991015E+03  0.00000000000E+00 0.  1.
         22   -1    0    0    0    0 -0.00000000000E+00 -0.00000000000E+00 -0.24085232883E+04  0.24085232883E+04  0.00000000000E+00 0. -1.
        -24    2    1    2    0    0  0.32048806417E+02  0.67242178260E+02 -0.44698290580E+03  0.46023877852E+03  0.80482163564E+02 0.  0.
         25    2    1    2    0    0  0.26424598725E+03 -0.23436098489E+03 -0.15128451579E+04  0.15585568860E+04  0.12509229482E+03 0.  0.
         24    2    1    2    0    0 -0.29629479367E+03  0.16711880663E+03 -0.34591531441E+03  0.49250753385E+03  0.84775974620E+02 0.  0.
        -11    1    5    5    0    0 -0.26691365349E+03  0.11764200929E+03 -0.30408405828E+03  0.42136641450E+03  0.00000000000E+00 0.  1.
         12    1    5    5    0    0 -0.29381140185E+02  0.49476797341E+02 -0.41831256130E+02  0.71141119355E+02  0.00000000000E+00 0. -1.
         11    1    3    3    0    0  0.30968341521E+02  0.85583987673E+02 -0.35896034529E+03  0.37031903355E+03  0.00000000000E+00 0. -1.
        -12    1    3    3    0    0  0.10804648956E+01 -0.18341809412E+02 -0.88022560508E+02  0.89919744969E+02  0.00000000000E+00 0.  1.
          5    1    4    4  501    0  0.24491387937E+03 -0.24901404858E+03 -0.13853076062E+04  0.14286656155E+04  0.41800000000E+01 0.  1.
         -5    1    4    4    0  501  0.19332107879E+02  0.14653063686E+02 -0.12753755169E+03  0.12989127054E+03  0.41800000000E+01 0.  1.
</event>
<event>
11    1  0.8328696E-009  0.1280875E+03  0.7561462E-02  0.1121641E+00
         22   -1    0    0    0    0  0.00000000000E+00  0.00000000000E+00  0.41839041805E+03  0.41839041805E+03  0.00000000000E+00 0. -1.
         22   -1    0    0    0    0 -0.00000000000E+00 -0.00000000000E+00 -0.42051281956E+03  0.42051281956E+03  0.00000000000E+00 0. -1.
        -24    2    1    2    0    0  0.20916910507E+02 -0.34002504709E+02 -0.34525940328E+03  0.35660167966E+03  0.79793576898E+02 0.  0.
         25    2    1    2    0    0 -0.13444909845E+01  0.52092379113E+02  0.88991592082E+01  0.13580158137E+03  0.12508977116E+03 0.  0.
         24    2    1    2    0    0 -0.19572419523E+02 -0.18089874404E+02  0.33423784256E+03  0.34649997658E+03  0.87389788934E+02 0.  0.
        -13    1    5    5    0    0  0.11406051992E+02 -0.46472098732E+02  0.14644322698E+03  0.15406288557E+03  0.00000000000E+00 0.  1.
         14    1    5    5    0    0 -0.30978471515E+02  0.28382224328E+02  0.18779461558E+03  0.19243709101E+03  0.00000000000E+00 0. -1.
         11    1    3    3    0    0  0.19221893183E+02 -0.11058865345E+02 -0.32555850853E+03  0.32631292061E+03  0.00000000000E+00 0. -1.
        -12    1    3    3    0    0  0.16950173240E+01 -0.22943639364E+02 -0.19700894743E+02  0.30288759048E+02  0.00000000000E+00 0.  1.
          5    1    4    4  501    0 -0.16422879461E+02  0.70307557083E+02  0.50193779995E+02  0.88032672929E+02  0.41800000000E+01 0.  1.
         -5    1    4    4    0  501  0.15078388476E+02 -0.18215177970E+02 -0.41294620787E+02  0.47768908439E+02  0.41800000000E+01 0.  1.
</event>
<event>
11    1  0.1054447E-008  0.1462095E+03  0.7561462E-02  0.1100816E+00
         22   -1    0    0    0    0  0.00000000000E+00  0.00000000000E+00  0.11924100086E+04  0.11924100086E+04  0.00000000000E+00 0.  1.
         22   -1    0    0    0    0 -0.00000000000E+00 -0.00000000000E+00 -0.18711811578E+04  0.18711811578E+04  0.00000000000E+00 0. -1.
         24    2    1    2    0    0 -0.54839981455E+02 -0.23765487097E+02 -0.12027349011E+04  0.12068189494E+04  0.79173937891E+02 0.  0.
         25    2    1    2    0    0  0.79252458314E+02 -0.47908273450E+02 -0.65472778493E+03  0.67297213509E+03  0.12508743916E+03 0.  0.
        -24    2    1    2    0    0 -0.24412476859E+02  0.71673760547E+02  0.11786915369E+04  0.11838000818E+04  0.79597724181E+02 0.  0.
        -13    1    3    3    0    0  0.73061528950E+01 -0.21373360774E+02 -0.10892109604E+03  0.11123850765E+03  0.00000000000E+00 0.  1.
         14    1    3    3    0    0 -0.62146134350E+02 -0.23921263238E+01 -0.10938138051E+04  0.10955804418E+04  0.00000000000E+00 0. -1.
         11    1    5    5    0    0  0.24491847249E+02  0.29317870852E+01  0.21059072062E+03  0.21203041661E+03  0.00000000000E+00 0. -1.
        -12    1    5    5    0    0 -0.48904324108E+02  0.68741973462E+02  0.96810081626E+03  0.97176966523E+03  0.00000000000E+00 0.  1.
          5    1    4    4  501    0 -0.21939137765E+02 -0.37383048385E+02 -0.32432130291E+03  0.32723171912E+03  0.41800000000E+01 0. -1.
         -5    1    4    4    0  501  0.10119159608E+03 -0.10525225065E+02 -0.33040648202E+03  0.34574041598E+03  0.41800000000E+01 0. -1.
</event>
<event>
11    1  0.8328696E-009  0.1748259E+03  0.7561462E-02  0.1073907E+00
         22   -1    0    0    0    0  0.00000000000E+00  0.00000000000E+00  0.34469330598E+03  0.34469330598E+03  0.00000000000E+00 0. -1.
         22   -1    0    0    0    0 -0.00000000000E+00 -0.00000000000E+00 -0.26721132873E+03  0.26721132873E+03  0.00000000000E+00 0. -1.
         24    2    1    2    0    0  0.65420394156E+02  0.11750222290E+03 -0.17987189425E+03  0.23765453368E+03  0.77712152719E+02 0.  0.
         25    2    1    2    0    0 -0.20387402766E+02 -0.70360876657E+02  0.73740684408E+02  0.16263778745E+03  0.12508821773E+03 0.  0.
        -24    2    1    2    0    0 -0.45032991390E+02 -0.47141346244E+02  0.18361318710E+03  0.21161231357E+03  0.82557204045E+02 0.  0.
        -11    1    3    3    0    0  0.85120326677E+01 -0.82125192248E+01 -0.11877338947E+01  0.11887425455E+02  0.00000000000E+00 0.  1.
         12    1    3    3    0    0  0.56908361488E+02  0.12571474213E+03 -0.17868416036E+03  0.22576710823E+03  0.00000000000E+00 0. -1.
         11    1    5    5    0    0 -0.29166738136E+02  0.51317236225E+01  0.13587455981E+03  0.13906447859E+03  0.00000000000E+00 0. -1.
        -12    1    5    5    0    0 -0.15866253254E+02 -0.52273069866E+02  0.47738627283E+02  0.72547834981E+02  0.00000000000E+00 0.  1.
          5    1    4    4  501    0  0.23044973627E+02 -0.23348079512E+02  0.90491989587E+02  0.96345608129E+02  0.41800000000E+01 0.  1.
         -5    1    4    4    0  501 -0.43432376393E+02 -0.47012797145E+02 -0.16751305179E+02  0.66292179326E+02  0.41800000000E+01 0.  1.
</event>
<event>
11    1  0.8328696E-009  0.1803715E+03  0.7561462E-02  0.1069343E+00
         22   -1    0    0    0    0  0.00000000000E+00  0.00000000000E+00  0.11229973118E+03  0.11229973118E+03  0.00000000000E+00 0.  1.
         22   -1    0    0    0    0 -0.00000000000E+00 -0.00000000000E+00 -0.62975301003E+03  0.62975301003E+03  0.00000000000E+00 0. -1.
         24    2    1    2    0    0 -0.14437182195E+02  0.27691946470E+00 -0.22643089794E+03  0.24608324207E+03  0.95275923360E+02 0.  0.
         25    2    1    2    0    0  0.13536061599E+03 -0.39940217221E+02 -0.28907523852E+03  0.34515297387E+03  0.12509342323E+03 0.  0.
        -24    2    1    2    0    0 -0.12092343379E+03  0.39663297756E+02 -0.19471423881E+01  0.15081652527E+03  0.80908460010E+02 0.  0.
        -11    1    3    3    0    0  0.28685129432E+02 -0.11462473662E+02 -0.24958149749E+02  0.39713148853E+02  0.00000000000E+00 0.  1.
         12    1    3    3    0    0 -0.43122311626E+02  0.11739393127E+02 -0.20147274819E+03  0.20637009321E+03  0.00000000000E+00 0. -1.
         13    1    5    5    0    0 -0.24225929831E+02 -0.21972853227E+02 -0.13873390672E+02  0.35527073111E+02  0.00000000000E+00 0. -1.
        -14    1    5    5    0    0 -0.96697503959E+02  0.61636150983E+02  0.11926248284E+02  0.11528945215E+03  0.00000000000E+00 0.  1.
          5    1    4    4  501    0  0.53466275704E+02 -0.69738487065E+02 -0.20887103695E+03  0.22664218868E+03  0.41800000000E+01 0.  1.
         -5    1    4    4    0  501  0.81894340281E+02  0.29798269844E+02 -0.80204201575E+02  0.11851078519E+03  0.41800000000E+01 0.  1.
</event>
<event>
11    1  0.8328696E-009  0.2350629E+03  0.7561462E-02  0.1032172E+00
         22   -1    0    0    0    0  0.00000000000E+00  0.00000000000E+00  0.15008439375E+04  0.15008439375E+04  0.00000000000E+00 0. -1.
         22   -1    0    0    0    0 -0.00000000000E+00 -0.00000000000E+00 -0.24088165229E+03  0.24088165229E+03  0.00000000000E+00 0. -1.
        -24    2    1    2    0    0 -0.13878139762E+03 -0.13197092590E+03 -0.12380324171E+03  0.24136467649E+03  0.79076309924E+02 0.  0.
         25    2    1    2    0    0  0.20063611834E+03  0.13949129729E+03  0.28076480368E+03  0.39266659980E+03  0.12508201153E+03 0.  0.
         24    2    1    2    0    0 -0.61854720714E+02 -0.75203713818E+01  0.11030007232E+04  0.11076943135E+04  0.80582468585E+02 0.  0.
        -11    1    5    5    0    0  0.13654855417E+02  0.17088576484E+02  0.19338921419E+03  0.19462235917E+03  0.00000000000E+00 0.  1.
         12    1    5    5    0    0 -0.75509576131E+02 -0.24608947866E+02  0.90961150903E+03  0.91307195432E+03  0.00000000000E+00 0. -1.
         13    1    3    3    0    0 -0.13037853747E+03 -0.78106715815E+02 -0.99637638261E+02  0.18173299383E+03  0.00000000000E+00 0. -1.
        -14    1    3    3    0    0 -0.84028601512E+01 -0.53864210088E+02 -0.24165603450E+02  0.59631682663E+02  0.00000000000E+00 0.  1.
          5    1    4    4  501    0  0.60839265337E+01 -0.19127247220E+02  0.39357729915E+02  0.44377573754E+02  0.41800000000E+01 0. -1.
         -5    1    4    4    0  501  0.19455219180E+03  0.15861854451E+03  0.24140707377E+03  0.34828902604E+03  0.41800000000E+01 0. -1.
</event>
<event>
11    1  0.8328696E-009  0.1377156E+03  0.7561462E-02  0.1110136E+00
         22   -1    0    0    0    0  0.00000000000E+00  0.00000000000E+00  0.29079334419E+03  0.29079334419E+03  0.00000000000E+00 0.  1.
         22   -1    0    0    0    0 -0.00000000000E+00 -0.00000000000E+00 -0.53794019635E+03  0.53794019635E+03  0.00000000000E+00 0.  1.
         24    2    1    2    0    0  0.29094522242E+02 -0.60390215664E+02 -0.47361747757E+03  0.48518427892E+03  0.81220687558E+02 0.  0.
         25    2    1    2    0    0 -0.16754400612E+02 -0.13005953543E+02  0.50388131754E+02  0.13650946222E+03  0.12508399052E+03 0.  0.
        -24    2    1    2    0    0 -0.12340121630E+02  0.73396169207E+02  0.17608249365E+03  0.20703979939E+03  0.79505708629E+02 0.  0.
        -11    1    3    3    0    0  0.23250911694E+01 -0.15861558875E+02 -0.35880802980E+03  0.35916597466E+03  0.00000000000E+00 0.  1.
         12    1    3    3    0    0  0.26769431072E+02 -0.44528656789E+02 -0.11480944776E+03  0.12601830427E+03  0.00000000000E+00 0. -1.
         11    1    5    5    0    0 -0.33746328793E+02  0.32821774412E+02  0.34928134600E+02  0.58617899734E+02  0.00000000000E+00 0. -1.
        -12    1    5    5    0    0  0.21406207164E+02  0.40574394795E+02  0.14115435905E+03  0.14842189966E+03  0.00000000000E+00 0.  1.
          5    1    4    4  501    0 -0.26875866895E+02  0.52717475095E+02  0.31942550018E+02  0.67373906695E+02  0.41800000000E+01 0.  1.
         -5    1    4    4    0  501  0.10121466283E+02 -0.65723428638E+02  0.18445581736E+02  0.69135555521E+02  0.41800000000E+01 0.  1.
</event>
<event>
11    1  0.8328696E-009  0.1342355E+03  0.7561462E-02  0.1114172E+00
         22   -1    0    0    0    0  0.00000000000E+00  0.00000000000E+00  0.51648899268E+03  0.51648899268E+03  0.00000000000E+00 0. -1.
         22   -1    0    0    0    0 -0.00000000000E+00 -0.00000000000E+00 -0.20488391225E+03  0.20488391225E+03  0.00000000000E+00 0. -1.
         24    2    1    2    0    0  0.11692855810E+02 -0.46846506016E+02 -0.16681285735E+03  0.19128984343E+03  0.80211949356E+02 0.  0.
         25    2    1    2    0    0 -0.15165445795E+02  0.54865955397E+02  0.21947538454E+03  0.25895338711E+03  0.12508856250E+03 0.  0.
        -24    2    1    2    0    0  0.34725899853E+01 -0.80194493807E+01  0.25894255323E+03  0.27112967439E+03  0.79897960011E+02 0.  0.
        -13    1    3    3    0    0  0.29369958207E+02 -0.22040604224E+02 -0.20941312899E+02  0.42271991502E+02  0.00000000000E+00 0.  1.
         14    1    3    3    0    0 -0.17677102397E+02 -0.24805901792E+02 -0.14587154445E+03  0.14901785193E+03  0.00000000000E+00 0. -1.
         11    1    5    5    0    0 -0.18735025722E+02 -0.22795448683E+02  0.22954744513E+03  0.23143608888E+03  0.00000000000E+00 0. -1.
        -12    1    5    5    0    0  0.22207615707E+02  0.14775999302E+02  0.29395108094E+02  0.39693585509E+02  0.00000000000E+00 0.  1.
          5    1    4    4  501    0  0.14686737875E+02  0.27930320622E+02 -0.37909345566E+01  0.32056928491E+02  0.41800000000E+01 0. -1.
         -5    1    4    4    0  501 -0.29852183670E+02  0.26935634775E+02  0.22326631910E+03  0.22689645862E+03  0.41800000000E+01 0. -1.
</event>
<event>
11    1  0.8328696E-009  0.1456366E+03  0.7561462E-02  0.1101423E+00
         22   -1    0    0    0    0  0.00000000000E+00  0.00000000000E+00  0.60854902102E+03  0.60854902102E+03  0.00000000000E+00 0. -1.
         22   -1    0    0    0    0 -0.00000000000E+00 -0.00000000000E+00 -0.22706777810E+03  0.22706777810E+03  0.00000000000E+00 0. -1.
         24    2    1    2    0    0  0.29596495201E+02  0.86165979131E+02 -0.14504727701E+03  0.18950962755E+03  0.81084264056E+02 0.  0.
         25    2    1    2    0    0 -0.30701287662E+02 -0.59765451938E+01  0.24445623647E+02  0.13123779323E+03  0.12508989447E+03 0.  0.
        -24    2    1    2    0    0  0.11047924614E+01 -0.80189433937E+02  0.50208289629E+03  0.51486937834E+03  0.81065875240E+02 0.  0.
        -13    1    3    3    0    0  0.52527157180E+01  0.46086837660E+02 -0.11246002945E+02  0.47729029009E+02  0.00000000000E+00 0.  1.
         14    1    3    3    0    0  0.24343779483E+02  0.40079141471E+02 -0.13380127407E+03  0.14178059854E+03  0.00000000000E+00 0. -1.
         13    1    5    5    0    0 -0.38323415117E+01 -0.94208311503E+02  0.36493012782E+03  0.37691363864E+03  0.00000000000E+00 0. -1.
        -14    1    5    5    0    0  0.49371339730E+01  0.14018877566E+02  0.13715276846E+03  0.13795573970E+03  0.00000000000E+00 0.  1.
          5    1    4    4  501    0  0.70098610830E+01 -0.47386730857E+02 -0.26937156967E+02  0.55115544442E+02  0.41800000000E+01 0.  1.
         -5    1    4    4    0  501 -0.37711148745E+02  0.41410185663E+02  0.51382780613E+02  0.76122248784E+02  0.41800000000E+01 0.  1.
</event>
<event>
11    1  0.8328696E-009  0.1527795E+03  0.7561462E-02  0.1094072E+00
         22   -1    0    0    0    0  0.00000000000E+00  0.00000000000E+00  0.60456603652E+03  0.60456603652E+03  0.00000000000E+00 0.  1.
         22   -1    0    0    0    0 -0.00000000000E+00 -0.00000000000E+00 -0.11728356425E+04  0.11728356425E+04  0.00000000000E+00 0. -1.
        -24    2    1    2    0    0  0.16215159245E+02 -0.85965397656E+02 -0.10586712010E+04  0.10652892881E+04  0.80022337429E+02 0.  0.
         25    2    1    2    0    0  0.18930072652E+01  0.93651453455E+02 -0.51395540978E+02  0.16450690283E+03  0.12508733444E+03 0.  0.
         24    2    1    2    0    0 -0.18108166510E+02 -0.76860557990E+01  0.54179713600E+03  0.54760548811E+03  0.77075630960E+02 0.  0.
        -11    1    5    5    0    0 -0.57456753628E+01 -0.92959664354E+01  0.53100170147E+03  0.53111414474E+03  0.00000000000E+00 0.  1.
         12    1    5    5    0    0 -0.12362491147E+02  0.16099106364E+01  0.10795434525E+02  0.16491343372E+02  0.00000000000E+00 0. -1.
         11    1    3    3    0    0  0.17065595586E+02 -0.88178986887E+02 -0.60671611848E+03  0.61332798460E+03  0.00000000000E+00 0. -1.
        -12    1    3    3    0    0 -0.85043634114E+00  0.22135892310E+01 -0.45195508256E+03  0.45196130351E+03  0.00000000000E+00 0.  1.
          5    1    4    4  501    0  0.33572896365E+02  0.21072483915E+02 -0.72244443551E+02  0.82510126486E+02  0.41800000000E+01 0. -1.
         -5    1    4    4    0  501 -0.31679889099E+02  0.72578969539E+02  0.20848902573E+02  0.81996776346E+02  0.41800000000E+01 0. -1.
</event>
<event>
11    1  0.8328696E-009  0.1304136E+03  0.7561462E-02  0.1118762E+00
         22   -1    0    0    0    0  0.00000000000E+00  0.00000000000E+00  0.22809365225E+03  0.22809365225E+03  0.00000000000E+00 0.  1.
         22   -1    0    0    0    0 -0.00000000000E+00 -0.00000000000E+00 -0.75886065028E+03  0.75886065028E+03  0.00000000000E+00 0. -1.
        -24    2    1    2    0    0  0.18935494934E+02  0.30513897004E+02 -0.67666939200E+03  0.68245384291E+03  0.81068679253E+02 0.  0.
         25    2    1    2    0    0 -0.28851634234E+02 -0.54263196874E+02  0.60441314342E+01  0.13950190263E+03  0.12508932001E+03 0.  0.
         24    2    1    2    0    0  0.99161392997E+01  0.23749299870E+02  0.13985826254E+03  0.16499855699E+03  0.83676945129E+02 0.  0.
        -11    1    5    5    0    0  0.19163918685E+02  0.51117500694E+02  0.65754045509E+02  0.85462559975E+02  0.00000000000E+00 0.  1.
         12    1    5    5    0    0 -0.92477793853E+01 -0.27368200824E+02  0.74104217031E+02  0.79535997018E+02  0.00000000000E+00 0. -1.
         11    1    3    3    0    0  0.20288177204E+01  0.33984693295E+02 -0.64866710301E+03  0.64955991718E+03  0.00000000000E+00 0. -1.
        -12    1    3    3    0    0  0.16906677214E+02 -0.34707962917E+01 -0.28002288988E+02  0.32893925730E+02  0.00000000000E+00 0.  1.
          5    1    4    4  501    0  0.23618981114E+02  0.19463438941E+02 -0.29001992385E+02  0.42370622919E+02  0.41800000000E+01 0. -1.
         -5    1    4    4    0  501 -0.52470615347E+02 -0.73726635814E+02  0.35046123819E+02  0.97131279710E+02  0.41800000000E+01 0. -1.
</event>
<event>
11    1  0.8328696E-009  0.1311073E+03  0.7561462E-02  0.1117916E+00
         22   -1    0    0    0    0  0.00000000000E+00  0.00000000000E+00  0.15641048432E+04  0.15641048432E+04  0.00000000000E+00 0. -1.
         22   -1    0    0    0    0 -0.00000000000E+00 -0.00000000000E+00 -0.35370010394E+03  0.35370010394E+03  0.00000000000E+00 0.  1.
        -24    2    1    2    0    0 -0.17489285682E+02 -0.25868656632E+01 -0.32126005957E+03  0.33171073395E+03  0.80693358824E+02 0.  0.
         25    2    1    2    0    0  0.55899237817E+02  0.15458342004E+01  0.15534862448E+03  0.20714116065E+03  0.12508857228E+03 0.  0.
         24    2    1    2    0    0 -0.38409952135E+02  0.10410314628E+01  0.13763161743E+04  0.13789530525E+04  0.76084828625E+02 0.  0.
        -13    1    5    5    0    0  0.22603118682E+02  0.75185886498E+01  0.36210282237E+03  0.36288549726E+03  0.00000000000E+00 0.  1.
         14    1    5    5    0    0 -0.61013070817E+02 -0.64775571869E+01  0.10142133520E+04  0.10160675553E+04  0.00000000000E+00 0. -1.
         13    1    3    3    0    0  0.16456123193E+02 -0.31519591581E+02 -0.18339781776E+03  0.18681286948E+03  0.00000000000E+00 0. -1.
        -14    1    3    3    0    0 -0.33945408875E+02  0.28932725918E+02 -0.13786224181E+03  0.14489786448E+03  0.00000000000E+00 0.  1.
          5    1    4    4  501    0  0.79403102746E+02  0.37673202201E+02  0.12996472763E+03  0.15694720678E+03  0.41800000000E+01 0.  1.
         -5    1    4    4    0  501 -0.23503864929E+02 -0.36127368001E+02  0.25383896856E+02  0.50193953868E+02  0.41800000000E+01 0.  1.
</event>
<event>
11    1  0.8328696E-009  0.1355571E+03  0.7561462E-02  0.1112624E+00
         22   -1    0    0    0    0  0.00000000000E+00  0.00000000000E+00  0.25810338771E+03  0.25810338771E+03  0.00000000000E+00 0.  1.
         22   -1    0    0    0    0 -0.00000000000E+00 -0.00000000000E+00 -0.36953043897E+03  0.36953043897E+03  0.00000000000E+00 0. -1.
         24    2    1    2    0    0  0.14277905568E+02  0.47961042042E+02 -0.28863402374E+03  0.30397525157E+03  0.81161775283E+02 0.  0.
         25    2    1    2    0    0 -0.21026095648E+02 -0.73948692024E+02  0.23604699587E+02  0.14871092086E+03  0.12508896989E+03 0.  0.
        -24    2    1    2    0    0  0.67481900801E+01  0.25987649982E+02  0.15360227289E+03  0.17494765425E+03  0.79322931542E+02 0.  0.
        -11    1    3    3    0    0  0.64126979043E+01 -0.16173927789E+02 -0.15498271232E+02  0.23300537455E+02  0.00000000000E+00 0.  1.
         12    1    3    3    0    0  0.78652076637E+01  0.64134969830E+02 -0.27313575251E+03  0.28067471412E+03  0.00000000000E+00 0. -1.
         11    1    5    5    0    0 -0.22722368692E+01  0.54060111529E+02  0.94342080950E+02  0.10875700877E+03  0.00000000000E+00 0. -1.
        -12    1    5    5    0    0  0.90204269492E+01 -0.28072461547E+02  0.59260191944E+02  0.66190645479E+02  0.00000000000E+00 0.  1.
          5    1    4    4  501    0  0.50584023435E+02 -0.42222515571E+02 -0.24328184795E+01  0.66067202557E+02  0.41800000000E+01 0. -1.
         -5    1    4    4    0  501 -0.71610119083E+02 -0.31726176453E+02  0.26037518066E+02  0.82643718300E+02  0.41800000000E+01 0. -1.
</event>
<event>
11    1  0.8328696E-009  0.2229930E+03  0.7561462E-02  0.1039359E+00
         22   -1    0    0    0    0  0.00000000000E+00  0.00000000000E+00  0.30289141735E+03  0.30289141735E+03  0.00000000000E+00 0. -1.
         22   -1    0    0    0    0 -0.00000000000E+00 -0.00000000000E+00 -0.15367852499E+04  0.15367852499E+04  0.00000000000E+00 0. -1.
        -24    2    1    2    0    0 -0.34177569095E+02  0.24859806305E+02 -0.13715267836E+04  0.13745214852E+04  0.80233899858E+02 0.  0.
         25    2    1    2    0    0 -0.10701837246E+03 -0.14773779521E+03 -0.62315536146E+00  0.22119554893E+03  0.12509074452E+03 0.  0.
         24    2    1    2    0    0  0.14119594155E+03  0.12287798891E+03  0.13825610650E+03  0.24395963313E+03  0.73254744163E+02 0.  0.
        -11    1    5    5    0    0  0.56332927475E+02  0.17580066169E+02  0.14787137044E+02  0.60836805196E+02  0.00000000000E+00 0.  1.
         12    1    5    5    0    0  0.84863014076E+02  0.10529792274E+03  0.12346896946E+03  0.18312282793E+03  0.00000000000E+00 0. -1.
         13    1    3    3    0    0 -0.12461371333E+02  0.16755989036E+02 -0.12778170295E+04  0.12779876407E+04  0.00000000000E+00 0. -1.
        -14    1    3    3    0    0 -0.21716197762E+02  0.81038172696E+01 -0.93709754193E+02  0.96533844482E+02  0.00000000000E+00 0.  1.
          5    1    4    4  501    0 -0.42664206171E+01 -0.12398286890E+02 -0.43724347034E+02  0.45838965806E+02  0.41800000000E+01 0. -1.
         -5    1    4    4    0  501 -0.10275195184E+03 -0.13533950832E+03  0.43101191672E+02  0.17535658312E+03  0.41800000000E+01 0. -1.
</event>
<event>
11    1  0.8328696E-009  0.1472684E+03  0.7561462E-02  0.1099703E+00
         22   -1    0    0    0    0  0.00000000000E+00  0.00000000000E+00  0.75054713931E+03  0.75054713931E+03  0.00000000000E+00 0. -1.
         22   -1    0    0    0    0 -0.00000000000E+00 -0.00000000000E+00 -0.11075493811E+04  0.11075493811E+04  0.00000000000E+00 0.  1.
         24    2    1    2    0    0  0.20319573878E+02  0.17039549724E+02 -0.10674255255E+04  0.10704384931E+04  0.75750140228E+02 0.  0.
         25    2    1    2    0    0  0.60220627335E+02 -0.13880437534E+02  0.11310648774E+03  0.17960987496E+03  0.12508972424E+03 0.  0.
        -24    2    1    2    0    0 -0.80540201213E+02 -0.31591121907E+01  0.59731679596E+03  0.60804815233E+03  0.80240244352E+02 0.  0.
        -13    1    3    3    0    0 -0.10735490892E+02  0.39887538458E+02 -0.60502095414E+03  0.60642940351E+03  0.00000000000E+00 0.  1.
         14    1    3    3    0    0  0.31055064769E+02 -0.22847988733E+02 -0.46240457132E+03  0.46400908958E+03  0.00000000000E+00 0. -1.
         13    1    5    5    0    0 -0.92909013725E+02 -0.17142773084E+02  0.51969300705E+03  0.52821092480E+03  0.00000000000E+00 0. -1.
        -14    1    5    5    0    0  0.12368812512E+02  0.13983660893E+02  0.77623788913E+02  0.79837227533E+02  0.00000000000E+00 0.  1.
          5    1    4    4  501    0  0.17539650847E+02  0.55270989850E+02  0.45827716962E+02  0.74028195390E+02  0.41800000000E+01 0. -1.
         -5    1    4    4    0  501  0.42680976488E+02 -0.69151427384E+02  0.67278770782E+02  0.10558167957E+03  0.41800000000E+01 0. -1.
</event>
<event>
11    1  0.8328696E-009  0.1461702E+03  0.7561462E-02  0.1100858E+00
         22   -1    0    0    0    0  0.00000000000E+00  0.00000000000E+00  0.98563973075E+03  0.98563973075E+03  0.00000000000E+00 0.  1.
         22   -1    0    0    0    0 -0.00000000000E+00 -0.00000000000E+00 -0.31227059242E+03  0.31227059242E+03  0.00000000000E+00 0. -1.
         24    2    1    2    0    0  0.40973908632E+02  0.63347000250E+02 -0.22901693373E+03  0.25399798105E+03  0.79840558687E+02 0.  0.
         25    2    1    2    0    0 -0.27410286466E+01 -0.87587920846E+02  0.17050819764E+02  0.15368290435E+03  0.12509415461E+03 0.  0.
        -24    2    1    2    0    0 -0.38232879986E+02  0.24240920596E+02  0.88533525230E+03  0.89022943778E+03  0.81489677790E+02 0.  0.
        -13    1    3    3    0    0 -0.21400234643E+02  0.22848381192E+02 -0.39427408480E+02  0.50344206273E+02  0.00000000000E+00 0.  1.
         14    1    3    3    0    0  0.62374143275E+02  0.40498619058E+02 -0.18958952525E+03  0.20365377477E+03  0.00000000000E+00 0. -1.
         11    1    5    5    0    0  0.21147221876E+01 -0.27297276462E+02  0.22560511782E+03  0.22726038488E+03  0.00000000000E+00 0. -1.
        -12    1    5    5    0    0 -0.40347602173E+02  0.51538197057E+02  0.65973013448E+03  0.66296905290E+03  0.00000000000E+00 0.  1.
          5    1    4    4  501    0 -0.45246584466E+02 -0.85847659847E+02  0.40140935391E+02  0.10509919696E+03  0.41800000000E+01 0.  1.
         -5    1    4    4    0  501  0.42505555820E+02 -0.17402609988E+01 -0.23090115627E+02  0.48583707388E+02  0.41800000000E+01 0.  1.
</event>
<event>
11    1  0.8328696E-009  0.1358830E+03  0.7561462E-02  0.1112245E+00
         22   -1    0    0    0    0  0.00000000000E+00  0.00000000000E+00  0.15109031538E+04  0.15109031538E+04  0.00000000000E+00 0. -1.
         22   -1    0    0    0    0 -0.00000000000E+00 -0.00000000000E+00 -0.42713902971E+02  0.42713902971E+02  0.00000000000E+00 0. -1.
        -24    2    1    2    0    0  0.53970589777E+02  0.17293451563E+02  0.37646962604E+02  0.10513743218E+03  0.80154212765E+02 0.  0.
         25    2    1    2    0    0 -0.20741389696E+02 -0.94355050078E+01  0.59302568769E+03  0.60650495237E+03  0.12509818940E+03 0.  0.
         24    2    1    2    0    0 -0.33229200081E+02 -0.78579465557E+01  0.83751660056E+03  0.84197467224E+03  0.79507014943E+02 0.  0.
        -13    1    5    5    0    0  0.13724951281E+02 -0.29262921457E+01  0.30448678381E+02  0.33526996414E+02  0.00000000000E+00 0.  1.
         14    1    5    5    0    0 -0.46954151362E+02 -0.49316544100E+01  0.80706792218E+03  0.80844767583E+03  0.00000000000E+00 0. -1.
         13    1    3    3    0    0  0.62853273084E+02  0.23395074933E+02  0.11428224573E+01  0.67075848944E+02  0.00000000000E+00 0. -1.
        -14    1    3    3    0    0 -0.88826833068E+01 -0.61016233693E+01  0.36504140147E+02  0.38061583234E+02  0.00000000000E+00 0.  1.
          5    1    4    4  501    0 -0.51267526010E+01 -0.19928481310E+02  0.58540486901E+03  0.58578132526E+03  0.41800000000E+01 0.  1.
         -5    1    4    4    0  501 -0.15614637095E+02  0.10492976302E+02  0.76208186741E+01  0.20723627109E+02  0.41800000000E+01 0.  1.
</event>
<event>
11    1  0.8328696E-009  0.1331965E+03  0.7561462E-02  0.1115403E+00
         22   -1    0    0    0    0  0.00000000000E+00  0.00000000000E+00  0.17199660838E+04  0.17199660838E+04  0.00000000000E+00 0.  1.
         22   -1    0    0    0    0 -0.00000000000E+00 -0.00000000000E+00 -0.29324685089E+03  0.29324685089E+03  0.00000000000E+00 0. -1.
        -24    2    1    2    0    0  0.12414842535E+02 -0.39625505397E+02 -0.17953282800E+03  0.20021463384E+03  0.78291470024E+02 0.  0.
         25    2    1    2    0    0  0.17873591974E+02  0.73587775193E+02 -0.49723858721E+02  0.15444454301E+03  0.12508408688E+03 0.  0.
         24    2    1    2    0    0 -0.30288434509E+02 -0.33962269796E+02  0.16559759196E+04  0.16585537578E+04  0.80458040142E+02 0.  0.
        -13    1    5    5    0    0 -0.39972702180E+02  0.12185011839E+02  0.10072353328E+04  0.10081018337E+04  0.00000000000E+00 0.  1.
         14    1    5    5    0    0  0.96842676715E+01 -0.46147281635E+02  0.64874058682E+03  0.65045192415E+03  0.00000000000E+00 0. -1.
         13    1    3    3    0    0 -0.10975292961E+02 -0.13433337986E+02 -0.15815468715E+03  0.15910316368E+03  0.00000000000E+00 0. -1.
        -14    1    3    3    0    0  0.23390135496E+02 -0.26192167411E+02 -0.21378140851E+02  0.41111470157E+02  0.00000000000E+00 0.  1.
          5    1    4    4  501    0  0.54000290412E+02 -0.22176430382E+01  0.45070186311E+01  0.54394254496E+02  0.41800000000E+01 0. -1.
         -5    1    4    4    0  501 -0.36126698438E+02  0.75805418231E+02 -0.54230877352E+02  0.10005028851E+03  0.41800000000E+01 0. -1.
</event>
<event>
11    1  0.8328696E-009  0.1634661E+03  0.7561462E-02  0.1083862E+00
         22   -1    0    0    0    0  0.00000000000E+00  0.00000000000E+00  0.20313216816E+03  0.20313216816E+03  0.00000000000E+00 0.  1.
         22   -1    0    0    0    0 -0.00000000000E+00 -0.00000000000E+00 -0.13312209287E+04  0.13312209287E+04  0.00000000000E+00 0. -1.
         24    2    1    2    0    0 -0.36100707555E+02 -0.11980075691E+02 -0.10369546259E+04  0.10411005158E+04  0.84667611313E+02 0.  0.
         25    2    1    2    0    0 -0.57856992748E+02  0.64038060531E+02 -0.24547157747E+03  0.28870863016E+03  0.12509225786E+03 0.  0.
        -24    2    1    2    0    0  0.93957700303E+02 -0.52057984840E+02  0.15433744289E+03  0.20454395089E+03  0.80499057990E+02 0.  0.
        -13    1    3    3    0    0 -0.63800174642E+02 -0.71271359828E+01 -0.76865630686E+03  0.77133246815E+03  0.00000000000E+00 0.  1.
         14    1    3    3    0    0  0.27699467088E+02 -0.48529397083E+01 -0.26829831906E+03  0.26976804761E+03  0.00000000000E+00 0. -1.
         13    1    5    5    0    0  0.26839408727E+02  0.10294285484E+02  0.47542042162E+01  0.29136379874E+02  0.00000000000E+00 0. -1.
        -14    1    5    5    0    0  0.67118291576E+02 -0.62352270324E+02  0.14958323868E+03  0.17540757102E+03  0.00000000000E+00 0.  1.
          5    1    4    4  501    0 -0.22968776728E+02 -0.36464065669E+02 -0.94770113115E+02  0.10419231992E+03  0.41800000000E+01 0. -1.
         -5    1    4    4    0  501 -0.34888216020E+02  0.10050212620E+03 -0.15070146436E+03  0.18451631025E+03  0.41800000000E+01 0. -1.
</event>
<event>
11    1  0.8328696E-009  0.3786888E+03  0.7561462E-02  0.9714818E-01
         22   -1    0    0    0    0  0.00000000000E+00  0.00000000000E+00  0.29674146775E+03  0.29674146775E+03  0.00000000000E+00 0.  1.
         22   -1    0    0    0    0 -0.00000000000E+00 -0.00000000000E+00 -0.12005493721E+04  0.12005493721E+04  0.00000000000E+00 0.  1.
        -24    2    1    2    0    0 -0.28222090335E+03 -0.18734520682E+03 -0.69838632897E+03  0.78021610235E+03  0.79036934822E+02 0.  0.
         25    2    1    2    0    0  0.25552640709E+03  0.37678774731E+03 -0.19299380880E+03  0.51005577290E+03  0.12509008753E+03 0.  0.
         24    2    1    2    0    0  0.26694496260E+02 -0.18944254049E+03 -0.12427766550E+02  0.20701896457E+03  0.78111010964E+02 0.  0.
        -13    1    5    5    0    0  0.13207653736E+02 -0.93255670553E+02 -0.45254045487E+02  0.10449397514E+03  0.00000000000E+00 0.  1.
         14    1    5    5    0    0  0.13486842524E+02 -0.96186869933E+02  0.32826278938E+02  0.10252498943E+03  0.00000000000E+00 0. -1.
         13    1    3    3    0    0 -0.15637015363E+03 -0.13779739221E+03 -0.36291532126E+03  0.41850600551E+03  0.00000000000E+00 0. -1.
        -14    1    3    3    0    0 -0.12585074972E+03 -0.49547814607E+02 -0.33547100772E+03  0.36171009684E+03  0.00000000000E+00 0.  1.
          5    1    4    4  501    0  0.19484896015E+03  0.18529862483E+03 -0.85473790668E+02  0.28217891297E+03  0.41800000000E+01 0. -1.
         -5    1    4    4    0  501  0.60677446943E+02  0.19148912247E+03 -0.10752001813E+03  0.22787685993E+03  0.41800000000E+01 0. -1.
</event>
<event>
11    1  0.8328696E-009  0.1350338E+03  0.7561462E-02  0.1113234E+00
         22   -1    0    0    0    0  0.00000000000E+00  0.00000000000E+00  0.16655344076E+04  0.16655344076E+04  0.00000000000E+00 0. -1.
         22   -1    0    0    0    0 -0.00000000000E+00 -0.00000000000E+00 -0.86345000470E+03  0.86345000470E+03  0.00000000000E+00 0. -1.
        -24    2    1    2    0    0 -0.23023293031E+02 -0.39608978837E+02 -0.84087915625E+03  0.84450150977E+03  0.63293770320E+02 0.  0.
         25    2    1    2    0    0  0.61794881524E+02  0.67215539043E+02  0.29381294031E+03  0.33213385378E+03  0.12510122646E+03 0.  0.
         24    2    1    2    0    0 -0.38771588493E+02 -0.27606560205E+02  0.13491506188E+04  0.13523490487E+04  0.79844843958E+02 0.  0.
        -13    1    5    5    0    0 -0.47657105309E+01  0.26807889013E+02  0.29781219168E+03  0.29905430347E+03  0.00000000000E+00 0.  1.
         14    1    5    5    0    0 -0.34005877962E+02 -0.54414449218E+02  0.10513384271E+04  0.10532947452E+04  0.00000000000E+00 0. -1.
         11    1    3    3    0    0  0.18282924461E+02 -0.97934433714E+01 -0.42629146560E+03  0.42679572456E+03  0.00000000000E+00 0. -1.
        -12    1    3    3    0    0 -0.41306217493E+02 -0.29815535466E+02 -0.41458769065E+03  0.41770578521E+03  0.00000000000E+00 0.  1.
          5    1    4    4  501    0 -0.14278155971E+02  0.27121441572E+02  0.20901529129E+03  0.21129198453E+03  0.41800000000E+01 0.  1.
         -5    1    4    4    0  501  0.76073037496E+02  0.40094097470E+02  0.84797649021E+02  0.12084186926E+03  0.41800000000E+01 0.  1.
</event>
<event>
11    1  0.8328696E-009  0.1355365E+03  0.7561462E-02  0.1112648E+00
         22   -1    0    0    0    0  0.00000000000E+00  0.00000000000E+00  0.10361697820E+03  0.10361697820E+03  0.00000000000E+00 0. -1.
         22   -1    0    0    0    0 -0.00000000000E+00 -0.00000000000E+00 -0.80159552905E+03  0.80159552905E+03  0.00000000000E+00 0. -1.
        -24    2    1    2    0    0  0.39625050640E+02 -0.28884538931E-01 -0.58987794183E+03  0.59749040231E+03  0.86421346428E+02 0.  0.
         25    2    1    2    0    0 -0.83836092334E+02 -0.12118522093E+02 -0.14079478564E+03  0.20651061026E+03  0.12509241197E+03 0.  0.
         24    2    1    2    0    0  0.44211041694E+02  0.12147406632E+02  0.32694176624E+02  0.10121149467E+03  0.84099237648E+02 0.  0.
        -11    1    5    5    0    0  0.84397601419E+01  0.32380353864E+02 -0.16334977394E+02  0.37236384814E+02  0.00000000000E+00 0.  1.
         12    1    5    5    0    0  0.35771281552E+02 -0.20232947232E+02  0.49029154018E+02  0.63975109858E+02  0.00000000000E+00 0. -1.
         13    1    3    3    0    0 -0.41028263594E+01  0.25446914503E+02 -0.40474859842E+03  0.40556849800E+03  0.00000000000E+00 0. -1.
        -14    1    3    3    0    0  0.43727877000E+02 -0.25475799042E+02 -0.18512934341E+03  0.19192190431E+03  0.00000000000E+00 0.  1.
          5    1    4    4  501    0 -0.24595334851E+02  0.53382851904E+02 -0.79369812136E+02  0.98851903635E+02  0.41800000000E+01 0. -1.
         -5    1    4    4    0  501 -0.59240757483E+02 -0.65501373997E+02 -0.61424973507E+02  0.10765870663E+03  0.41800000000E+01 0. -1.
</event>
<event>
11    1  0.8328696E-009  0.1444181E+03  0.7561462E-02  0.1102723E+00
         22   -1    0    0    0    0  0.00000000000E+00  0.00000000000E+00  0.67686223631E+03  0.67686223631E+03  0.00000000000E+00 0.  1.
         22   -1    0    0    0    0 -0.00000000000E+00 -0.00000000000E+00 -0.11440980581E+04  0.11440980581E+04  0.00000000000E+00 0.  1.
        -24    2    1    2    0    0  0.57073317755E+02 -0.38602507366E+02 -0.91277317720E+03  0.91892146300E+03  0.80710996543E+02 0.  0.
         25    2    1    2    0    0 -0.79123655074E+02  0.67285014505E+02 -0.19638857216E+03  0.25495897510E+03  0.12509109376E+03 0.  0.
         24    2    1    2    0    0  0.22050337318E+02 -0.28682507139E+02  0.64192592760E+03  0.64707985629E+03  0.73037937385E+02 0.  0.
        -11    1    5    5    0    0 -0.18422680613E+02 -0.35249853514E+02  0.35940442500E+03  0.36159851775E+03  0.00000000000E+00 0.  1.
         12    1    5    5    0    0  0.40473017932E+02  0.65673463751E+01  0.28252150261E+03  0.28548133854E+03  0.00000000000E+00 0. -1.
         11    1    3    3    0    0 -0.76523194374E+01 -0.29250482261E+02 -0.13219410586E+03  0.13560763374E+03  0.00000000000E+00 0. -1.
        -12    1    3    3    0    0  0.64725637193E+02 -0.93520251056E+01 -0.78057907135E+03  0.78331382926E+03  0.00000000000E+00 0.  1.
          5    1    4    4  501    0 -0.36961967548E+02  0.99881984739E+02 -0.10852282833E+03  0.15210941651E+03  0.41800000000E+01 0. -1.
         -5    1    4    4    0  501 -0.42161687526E+02 -0.32596970234E+02 -0.87865743831E+02  0.10284955859E+03  0.41800000000E+01 0. -1.
</event>
<event>
11    1  0.8328696E-009  0.1436641E+03  0.7561462E-02  0.1103534E+00
         22   -1    0    0    0    0  0.00000000000E+00  0.00000000000E+00  0.56487491175E+03  0.56487491175E+03  0.00000000000E+00 0.  1.
         22   -1    0    0    0    0 -0.00000000000E+00 -0.00000000000E+00 -0.18626707263E+04  0.18626707263E+04  0.00000000000E+00 0.  1.
         24    2    1    2    0    0  0.46271569791E+02  0.12347982971E+02 -0.13419756539E+04  0.13453291563E+04  0.81965556613E+02 0.  0.
         25    2    1    2    0    0 -0.11558455396E+03 -0.10708250809E+01 -0.49983906252E+03  0.52806041287E+03  0.12509106855E+03 0.  0.
        -24    2    1    2    0    0  0.69312984166E+02 -0.11277157890E+02  0.54401890188E+03  0.55415606881E+03  0.78745913794E+02 0.  0.
        -13    1    3    3    0    0  0.13850830018E+02  0.20871860859E+02 -0.10678568020E+03  0.10968437247E+03  0.00000000000E+00 0.  1.
         14    1    3    3    0    0  0.32420739773E+02 -0.85238778878E+01 -0.12351899737E+04  0.12356447839E+04  0.00000000000E+00 0. -1.
         13    1    5    5    0    0  0.18061853413E+02  0.31962638548E+02  0.14705161520E+03  0.15156522802E+03  0.00000000000E+00 0. -1.
        -14    1    5    5    0    0  0.51251130753E+02 -0.43239796438E+02  0.39696728668E+03  0.40259084080E+03  0.00000000000E+00 0.  1.
          5    1    4    4  501    0 -0.50069223344E+02 -0.61676597328E+02 -0.26965367690E+03  0.28114321555E+03  0.41800000000E+01 0.  1.
         -5    1    4    4    0  501 -0.65515330613E+02  0.60605772247E+02 -0.23018538562E+03  0.24691719731E+03  0.41800000000E+01 0.  1.
</event>
<event>
11    1  0.8328696E-009  0.1593927E+03  0.7561462E-02  0.1087650E+00
         22   -1    0    0    0    0  0.00000000000E+00  0.00000000000E+00  0.74532413676E+03  0.74532413676E+03  0.00000000000E+00 0. -1.
         22   -1    0    0    0    0 -0.00000000000E+00 -0.00000000000E+00 -0.20534107381E+03  0.20534107381E+03  0.00000000000E+00 0. -1.
        -24    2    1    2    0    0  0.72799203960E+01 -0.79913331156E+02 -0.14420789671E+03  0.18492839872E+03  0.83447333347E+02 0.  0.
         25    2    1    2    0    0  0.89550529275E+02  0.37796282027E+02  0.16090874703E+03  0.22580776131E+03  0.12509861698E+03 0.  0.
         24    2    1    2    0    0 -0.96830449671E+02  0.42117049129E+02  0.52328221264E+03  0.53992905053E+03  0.80926656515E+02 0.  0.
        -11    1    5    5    0    0 -0.57697543549E+01  0.29200960792E+02  0.24593897645E+03  0.24773366003E+03  0.00000000000E+00 0.  1.
         12    1    5    5    0    0 -0.91060695316E+02  0.12916088337E+02  0.27734323619E+03  0.29219539050E+03  0.00000000000E+00 0. -1.
         13    1    3    3    0    0 -0.31428912652E+02 -0.68342719764E+02 -0.98182798159E+02  0.12368656253E+03  0.00000000000E+00 0. -1.
        -14    1    3    3    0    0  0.38708833048E+02 -0.11570611392E+02 -0.46025098554E+02  0.61241836197E+02  0.00000000000E+00 0.  1.
          5    1    4    4  501    0 -0.17533933724E+02 -0.15655338024E+02 -0.16131099473E+01  0.23929123765E+02  0.41800000000E+01 0. -1.
         -5    1    4    4    0  501  0.10708446300E+03  0.53451620052E+02  0.16252185698E+03  0.20187863755E+03  0.41800000000E+01 0. -1.
</event>
<event>
11    1  0.8328696E-009  0.2618324E+03  0.7561462E-02  0.1017778E+00
         22   -1    0    0    0    0  0.00000000000E+00  0.00000000000E+00  0.41627618399E+03  0.41627618399E+03  0.00000000000E+00 0.  1.
         22   -1    0    0    0    0 -0.00000000000E+00 -0.00000000000E+00 -0.43856064257E+03  0.43856064257E+03  0.00000000000E+00 0. -1.
        -24    2    1    2    0    0 -0.61383830886E+02 -0.19979601089E+03 -0.18277231673E+03  0.29073002159E+03  0.86207917458E+02 0.  0.
         25    2    1    2    0    0  0.15381677599E+03  0.24489159926E+03 -0.47566809072E+02  0.31865586090E+03  0.12508980932E+03 0.  0.
         24    2    1    2    0    0 -0.92432945101E+02 -0.45095588371E+02  0.20805466722E+03  0.24545094407E+03  0.79887170223E+02 0.  0.
        -13    1    5    5    0    0 -0.49225618667E+02 -0.15151510435E+02  0.17711710204E+03  0.18445378185E+03  0.00000000000E+00 0.  1.
         14    1    5    5    0    0 -0.43207326433E+02 -0.29944077936E+02  0.30937565173E+02  0.60997162228E+02  0.00000000000E+00 0. -1.
         13    1    3    3    0    0 -0.80933325241E+02 -0.12913604673E+03 -0.13116148309E+03  0.20107127181E+03  0.00000000000E+00 0. -1.
        -14    1    3    3    0    0  0.19549494355E+02 -0.70659964160E+02 -0.51610833632E+02  0.89658749784E+02  0.00000000000E+00 0.  1.
          5    1    4    4  501    0  0.34399812699E+02  0.11968528331E+03  0.31281586838E+02  0.12846759992E+03  0.41800000000E+01 0. -1.
         -5    1    4    4    0  501  0.11941696329E+03  0.12520631595E+03 -0.78848395910E+02  0.19018826098E+03  0.41800000000E+01 0. -1.
</event>
<event>
11    1  0.8328696E-009  0.1624175E+03  0.7561462E-02  0.1084825E+00
         22   -1    0    0    0    0  0.00000000000E+00  0.00000000000E+00  0.68857374300E+03  0.68857374300E+03  0.00000000000E+00 0.  1.
         22   -1    0    0    0    0 -0.00000000000E+00 -0.00000000000E+00 -0.38667602493E+03  0.38667602493E+03  0.00000000000E+00 0. -1.
         24    2    1    2    0    0  0.20871820819E+02 -0.22012642794E+02 -0.31477480443E+03  0.32576190388E+03  0.78214136605E+02 0.  0.
         25    2    1    2    0    0 -0.11929054684E+03  0.42937640243E+02  0.76984541530E+02  0.19402432554E+03  0.12507974957E+03 0.  0.
        -24    2    1    2    0    0  0.98418726023E+02 -0.20924997449E+02  0.53968798098E+03  0.55546353851E+03  0.84572599910E+02 0.  0.
        -11    1    3    3    0    0  0.32830827788E+02  0.19713924252E+02 -0.11114900626E+03  0.11756106352E+03  0.00000000000E+00 0.  1.
         12    1    3    3    0    0 -0.11959006970E+02 -0.41726567046E+02 -0.20362579817E+03  0.20820084036E+03  0.00000000000E+00 0. -1.
         11    1    5    5    0    0  0.38147585164E+02  0.27323213497E+02  0.30002720775E+03  0.30367436777E+03  0.00000000000E+00 0. -1.
        -12    1    5    5    0    0  0.60271140859E+02 -0.48248210946E+02  0.23966077323E+03  0.25178917075E+03  0.00000000000E+00 0.  1.
          5    1    4    4  501    0 -0.11180576972E+03  0.49223567982E+01  0.98817017154E+02  0.14935539836E+03  0.41800000000E+01 0.  1.
         -5    1    4    4    0  501 -0.74847771197E+01  0.38015283445E+02 -0.21832475624E+02  0.44668927185E+02  0.41800000000E+01 0.  1.
</event>
<event>
11    1  0.8328696E-009  0.1413218E+03  0.7561462E-02  0.1106091E+00
         22   -1    0    0    0    0  0.00000000000E+00  0.00000000000E+00  0.25950333902E+02  0.25950333902E+02  0.00000000000E+00 0.  1.
         22   -1    0    0    0    0 -0.00000000000E+00 -0.00000000000E+00 -0.16434942669E+04  0.16434942669E+04  0.00000000000E+00 0. -1.
        -24    2    1    2    0    0 -0.43039771152E+02 -0.50072433552E+02 -0.10344643918E+04  0.10396866595E+04  0.80449371704E+02 0.  0.
         25    2    1    2    0    0  0.58487201765E+02  0.34155009071E+02 -0.46154802452E+03  0.48296893139E+03  0.12508034351E+03 0.  0.
         24    2    1    2    0    0 -0.15447430612E+02  0.15917424481E+02 -0.12153151666E+03  0.14678900996E+03  0.79278725949E+02 0.  0.
        -11    1    5    5    0    0 -0.43181927694E+02  0.55258708326E+01 -0.36711788983E+02  0.56947076994E+02  0.00000000000E+00 0.  1.
         12    1    5    5    0    0  0.27734497081E+02  0.10391553648E+02 -0.84819727676E+02  0.89841932964E+02  0.00000000000E+00 0. -1.
         13    1    3    3    0    0 -0.45700659790E+02 -0.24648492164E+02 -0.95050033451E+03  0.95191753024E+03  0.00000000000E+00 0. -1.
        -14    1    3    3    0    0  0.26608886376E+01 -0.25423941388E+02 -0.83964057323E+02  0.87769129232E+02  0.00000000000E+00 0.  1.
          5    1    4    4  501    0  0.86675747809E+02  0.28590805917E+02 -0.43195115175E+03  0.44150808525E+03  0.41800000000E+01 0.  1.
         -5    1    4    4    0  501 -0.28188546044E+02  0.55642031537E+01 -0.29596872766E+02  0.41460846137E+02  0.41800000000E+01 0.  1.
</event>
<event>
11    1  0.8328696E-009  0.1315119E+03  0.7561462E-02  0.1117425E+00
         22   -1    0    0    0    0  0.00000000000E+00  0.00000000000E+00  0.75197799933E+03  0.75197799933E+03  0.00000000000E+00 0. -1.
         22   -1    0    0    0    0 -0.00000000000E+00 -0.00000000000E+00 -0.45041833349E+03  0.45041833349E+03  0.00000000000E+00 0. -1.
        -24    2    1    2    0    0  0.41717273313E+00  0.40224594507E+02 -0.42260744747E+03  0.43337311038E+03  0.87160806034E+02 0.  0.
         25    2    1    2    0    0 -0.10837778459E+01 -0.56419903627E+02  0.22878792615E+03  0.26679141237E+03  0.12509741190E+03 0.  0.
         24    2    1    2    0    0  0.66660511282E+00  0.16195309121E+02  0.49537918715E+03  0.50223181007E+03  0.81077244570E+02 0.  0.
        -13    1    5    5    0    0 -0.81554680557E+01 -0.71218898666E+01  0.63186859450E+01  0.12536297960E+02  0.00000000000E+00 0.  1.
         14    1    5    5    0    0  0.88220731686E+01  0.23317198987E+02  0.48906050120E+03  0.48969551211E+03  0.00000000000E+00 0. -1.
         13    1    3    3    0    0 -0.33935794719E+02  0.44052478491E+02 -0.32732032602E+03  0.33201032341E+03  0.00000000000E+00 0. -1.
        -14    1    3    3    0    0  0.34352967452E+02 -0.38278839848E+01 -0.95287121446E+02  0.10136278697E+03  0.00000000000E+00 0.  1.
          5    1    4    4  501    0 -0.37812281932E+02 -0.40052945786E+02  0.27918921190E+02  0.61894633785E+02  0.41800000000E+01 0. -1.
         -5    1    4    4    0  501  0.36728504086E+02 -0.16366957841E+02  0.20086900496E+03  0.20489677859E+03  0.41800000000E+01 0. -1.
</event>
<event>
11    1  0.8328696E-009  0.2297196E+03  0.7561462E-02  0.1035294E+00
         22   -1    0    0    0    0  0.00000000000E+00  0.00000000000E+00  0.24183703387E+04  0.24183703387E+04  0.00000000000E+00 0. -1.
         22   -1    0    0    0    0 -0.00000000000E+00 -0.00000000000E+00 -0.88694929544E+02  0.88694929544E+02  0.00000000000E+00 0.  1.
         24    2    1    2    0    0  0.76553532617E+01  0.34990238890E+02 -0.44292020518E+02  0.80427485345E+02  0.56779186911E+02 0.  0.
         25    2    1    2    0    0  0.13081335436E+03 -0.16243042209E+03  0.71930843634E+03  0.75930696482E+03  0.12508662814E+03 0.  0.
        -24    2    1    2    0    0 -0.13846870762E+03  0.12744018320E+03  0.16546589933E+04  0.16673308180E+04  0.81737931154E+02 0.  0.
        -13    1    3    3    0    0 -0.11527433879E+02  0.43926493518E+02 -0.25260878647E+02  0.51966629241E+02  0.00000000000E+00 0.  1.
         14    1    3    3    0    0  0.19182787140E+02 -0.89362546288E+01 -0.19031141872E+02  0.28460856104E+02  0.00000000000E+00 0. -1.
         13    1    5    5    0    0 -0.11948061758E+03  0.87166936045E+02  0.14681568388E+04  0.14755874071E+04  0.00000000000E+00 0. -1.
        -14    1    5    5    0    0 -0.18988090040E+02  0.40273247159E+02  0.18650215448E+03  0.19174341091E+03  0.00000000000E+00 0.  1.
          5    1    4    4  501    0  0.39269638437E+02  0.39530045997E+01  0.24807979649E+03  0.25123452903E+03  0.41800000000E+01 0. -1.
         -5    1    4    4    0  501  0.91543715925E+02 -0.16638342669E+03  0.47122863985E+03  0.50807243580E+03  0.41800000000E+01 0. -1.
</event>
<event>
11    1  0.8328696E-009  0.2883353E+03  0.7561462E-02  0.1005252E+00
         22   -1    0    0    0    0  0.00000000000E+00  0.00000000000E+00  0.18393251350E+04  0.18393251350E+04  0.00000000000E+00 0.  1.
         22   -1    0    0    0    0 -0.00000000000E+00 -0.00000000000E+00 -0.23367934591E+04  0.23367934591E+04  0.00000000000E+00 0. -1.
        -24    2    1    2    0    0  0.98083512955E+02  0.24003829869E+03 -0.21970704222E+04  0.22137619176E+04  0.79903862975E+02 0.  0.
         25    2    1    2    0    0 -0.12960889302E+03 -0.23825711180E+03  0.40919355240E+02  0.30147623307E+03  0.12509440035E+03 0.  0.
         24    2    1    2    0    0  0.31525380062E+02 -0.17811868879E+01  0.16586827429E+04  0.16608804433E+04  0.79362353337E+02 0.  0.
        -13    1    5    5    0    0  0.31115308190E+02  0.35718765144E+02  0.83193544974E+03  0.83328301622E+03  0.00000000000E+00 0.  1.
         14    1    5    5    0    0  0.41007187203E+00 -0.37499952032E+02  0.82674729320E+03  0.82759742712E+03  0.00000000000E+00 0. -1.
         13    1    3    3    0    0  0.14068746895E+02  0.13996782190E+03 -0.11422337422E+04  0.11508635205E+04  0.00000000000E+00 0. -1.
        -14    1    3    3    0    0  0.84014766060E+02  0.10007047679E+03 -0.10548366800E+04  0.10628983972E+04  0.00000000000E+00 0.  1.
          5    1    4    4  501    0 -0.21176541317E+01  0.14582400967E+02  0.44014778382E+01  0.15936633401E+02  0.41800000000E+01 0. -1.
         -5    1    4    4    0  501 -0.12749123889E+03 -0.25283951277E+03  0.36517877401E+02  0.28553959967E+03  0.41800000000E+01 0. -1.
</event>
<event>
11    1  0.8328696E-009  0.1731082E+03  0.7561462E-02  0.1075358E+00
         22   -1    0    0    0    0  0.00000000000E+00  0.00000000000E+00  0.43467469187E+03  0.43467469187E+03  0.00000000000E+00 0.  1.
         22   -1    0    0    0    0 -0.00000000000E+00 -0.00000000000E+00 -0.65399084784E+03  0.65399084784E+03  0.00000000000E+00 0. -1.
         24    2    1    2    0    0 -0.92947667176E+01  0.17298674208E+02 -0.57702583218E+03  0.58287747771E+03  0.80010663085E+02 0.  0.
         25    2    1    2    0    0 -0.23464345454E+01 -0.13238752273E+03  0.91656004023E+02  0.20392434697E+03  0.12510936929E+03 0.  0.
        -24    2    1    2    0    0  0.11641201263E+02  0.11508884852E+03  0.26605367218E+03  0.30186371503E+03  0.83403749001E+02 0.  0.
        -11    1    3    3    0    0 -0.27068546314E+01  0.22646014027E+02 -0.42071227774E+02  0.47855587132E+02  0.00000000000E+00 0.  1.
         12    1    3    3    0    0 -0.65879120862E+01 -0.53473398192E+01 -0.53495460440E+03  0.53502189058E+03  0.00000000000E+00 0. -1.
         13    1    5    5    0    0  0.11596207365E+01  0.56361063610E+02  0.42806934130E+02  0.70783810445E+02  0.00000000000E+00 0. -1.
        -14    1    5    5    0    0  0.10481580526E+02  0.58727784915E+02  0.22324673805E+03  0.23107990458E+03  0.00000000000E+00 0.  1.
          5    1    4    4  501    0  0.14746709337E+02 -0.11815110948E+02 -0.27414124370E+02  0.33556950069E+02  0.41800000000E+01 0.  1.
         -5    1    4    4    0  501 -0.17093143882E+02 -0.12057241178E+03  0.11907012839E+03  0.17036739690E+03  0.41800000000E+01 0.  1.
</event>
<event>
11    1  0.8328696E-009  0.3089406E+03  0.7561462E-02  0.9964768E-01
         22   -1    0    0    0    0  0.00000000000E+00  0.00000000000E+00  0.88308199852E+03  0.88308199852E+03  0.00000000000E+00 0.  1.
         22   -1    0    0    0    0 -0.00000000000E+00 -0.00000000000E+00 -0.37732418703E+03  0.37732418703E+03  0.00000000000E+00 0. -1.
         24    2    1    2    0    0 -0.11273684869E+03  0.25811160976E+03 -0.25612774245E+03  0.38901118609E+03  0.79981762324E+02 0.  0.
         25    2    1    2    0    0  0.15741178121E+03 -0.24659703115E+03  0.50878314300E+03  0.60007975492E+03  0.12508741356E+03 0.  0.
        -24    2    1    2    0    0 -0.44674932520E+02 -0.11514578612E+02  0.25310241094E+03  0.27131524455E+03  0.86155071720E+02 0.  0.
        -11    1    3    3    0    0 -0.10624441381E+03  0.14662784325E+03 -0.15499934661E+03  0.23835351336E+03  0.00000000000E+00 0.  1.
         12    1    3    3    0    0 -0.64924348735E+01  0.11148376651E+03 -0.10112839584E+03  0.15065767273E+03  0.00000000000E+00 0. -1.
         11    1    5    5    0    0  0.75024597482E+01 -0.36360122919E+02  0.13214506432E+03  0.13726129631E+03  0.00000000000E+00 0. -1.
        -12    1    5    5    0    0 -0.52177392268E+02  0.24845544307E+02  0.12095734662E+03  0.13405394823E+03  0.00000000000E+00 0.  1.
          5    1    4    4  501    0  0.14462854324E+03 -0.21096311486E+03  0.33137062771E+03  0.41862491166E+03  0.41800000000E+01 0.  1.
         -5    1    4    4    0  501  0.12783237970E+02 -0.35633916290E+02  0.17741251529E+03  0.18145484327E+03  0.41800000000E+01 0.  1.
</event>
<event>
11    1  0.8328696E-009  0.1362324E+03  0.7561462E-02  0.1111840E+00
         22   -1    0    0    0    0  0.00000000000E+00  0.00000000000E+00  0.14663102807E+04  0.14663102807E+04  0.00000000000E+00 0.  1.
         22   -1    0    0    0    0 -0.00000000000E+00 -0.00000000000E+00 -0.44384949645E+02  0.44384949645E+02  0.00000000000E+00 0. -1.
         24    2    1    2    0    0 -0.32373980233E+02  0.86211879820E+01  0.32278936174E+02  0.92334499382E+02  0.79757949931E+02 0.  0.
         25    2    1    2    0    0 -0.17482333788E+02 -0.37538106608E+02  0.34883658668E+03  0.37289682283E+03  0.12510129825E+03 0.  0.
        -24    2    1    2    0    0  0.49856314020E+02  0.28916918626E+02  0.10408098082E+04  0.10454639082E+04  0.79924252560E+02 0.  0.
        -11    1    3    3    0    0 -0.75175298543E+01  0.21590875171E+02  0.52835154460E+02  0.57569372870E+02  0.00000000000E+00 0.  1.
         12    1    3    3    0    0 -0.24856450378E+02 -0.12969687189E+02 -0.20556218286E+02  0.34765126512E+02  0.00000000000E+00 0. -1.
         11    1    5    5    0    0 -0.20110788300E+02  0.91656473521E+01  0.14096923077E+03  0.14269119427E+03  0.00000000000E+00 0. -1.
        -12    1    5    5    0    0  0.69967102320E+02  0.19751271274E+02  0.89984057746E+03  0.90277271390E+03  0.00000000000E+00 0.  1.
          5    1    4    4  501    0 -0.29631998756E+02 -0.64624609112E+02  0.32975997732E+03  0.33736258017E+03  0.41800000000E+01 0. -1.
         -5    1    4    4    0  501  0.12149664968E+02  0.27086502503E+02  0.19076609360E+02  0.35534242659E+02  0.41800000000E+01 0. -1.
</event>
<event>
11    1  0.8328696E-009  0.1535085E+03  0.7561462E-02  0.1093347E+00
         22   -1    0    0    0    0  0.00000000000E+00  0.00000000000E+00  0.19239327886E+04  0.19239327886E+04  0.00000000000E+00 0.  1.
         22   -1    0    0    0    0 -0.00000000000E+00 -0.00000000000E+00 -0.98131912174E+03  0.98131912174E+03  0.00000000000E+00 0. -1.
         24    2    1    2    0    0  0.50675549600E+02 -0.57992082238E+02 -0.96742900126E+03  0.97382865116E+03  0.80574663640E+02 0.  0.
         25    2    1    2    0    0 -0.86184308426E+00  0.11972634441E+03  0.11151235820E+04  0.11284867241E+04  0.12508614222E+03 0.  0.
        -24    2    1    2    0    0 -0.49813706515E+02 -0.61734262172E+02  0.79491908612E+03  0.80293653511E+03  0.80735379154E+02 0.  0.
        -11    1    3    3    0    0 -0.15369784034E+02 -0.18424064300E+01 -0.50711022480E+02  0.53021057361E+02  0.00000000000E+00 0.  1.
         12    1    3    3    0    0  0.66045333634E+02 -0.56149675808E+02 -0.91671797878E+03  0.92080759380E+03  0.00000000000E+00 0. -1.
         13    1    5    5    0    0  0.14683892095E+02 -0.14735720259E+02  0.37025041883E+03  0.37083437109E+03  0.00000000000E+00 0. -1.
        -14    1    5    5    0    0 -0.64497598611E+02 -0.46998541914E+02  0.42466866730E+03  0.43210216402E+03  0.00000000000E+00 0.  1.
          5    1    4    4  501    0  0.28128518960E+00  0.13752480761E+03  0.10813237135E+04  0.10900420165E+04  0.41800000000E+01 0.  1.
         -5    1    4    4    0  501 -0.11431282739E+01 -0.17798463197E+02  0.33799868443E+02  0.38444707584E+02  0.41800000000E+01 0.  1.
</event>
<event>
11    1  0.8328696E-009  0.1460539E+03  0.7561462E-02  0.1100981E+00
         22   -1    0    0    0    0  0.00000000000E+00  0.00000000000E+00  0.20448952846E+03  0.20448952846E+03  0.00000000000E+00 0.  1.
         22   -1    0    0    0    0 -0.00000000000E+00 -0.00000000000E+00 -0.18031005236E+04  0.18031005236E+04  0.00000000000E+00 0. -1.
         24    2    1    2    0    0 -0.92942943583E+02  0.15529133136E+01 -0.11831217441E+04  0.11902482821E+04  0.90956635204E+02 0.  0.
         25    2    1    2    0    0  0.38985052264E+02  0.20107144069E+02 -0.59749602930E+03  0.61202405720E+03  0.12509120681E+03 0.  0.
        -24    2    1    2    0    0  0.53957891319E+02 -0.21660057382E+02  0.18200677831E+03  0.20531771267E+03  0.75155064117E+02 0.  0.
        -13    1    3    3    0    0 -0.23336996849E+02 -0.23843022488E+02 -0.12011561603E+03  0.12466301119E+03  0.00000000000E+00 0.  1.
         14    1    3    3    0    0 -0.69605946734E+02  0.25395935802E+02 -0.10630061281E+04  0.10655852710E+04  0.00000000000E+00 0. -1.
         11    1    5    5    0    0  0.24396588570E+02 -0.32087354908E+01  0.52524012784E+01  0.25161026142E+02  0.00000000000E+00 0. -1.
        -12    1    5    5    0    0  0.29561302749E+02 -0.18451321891E+02  0.17675437703E+03  0.18015668653E+03  0.00000000000E+00 0.  1.
          5    1    4    4  501    0 -0.42182589738E+02  0.24274730216E+02 -0.28208332151E+03  0.28628151543E+03  0.41800000000E+01 0.  1.
         -5    1    4    4    0  501  0.81167642002E+02 -0.41675861474E+01 -0.31541270779E+03  0.32574254177E+03  0.41800000000E+01 0.  1.
</event>
<event>
11    1  0.8328696E-009  0.1636755E+03  0.7561462E-02  0.1083670E+00
         22   -1    0    0    0    0  0.00000000000E+00  0.00000000000E+00  0.48236251325E+03  0.48236251325E+03  0.00000000000E+00 0.  1.
         22   -1    0    0    0    0 -0.00000000000E+00 -0.00000000000E+00 -0.10178469708E+04  0.10178469708E+04  0.00000000000E+00 0.  1.
         24    2    1    2    0    0 -0.25475920933E+01  0.56781313238E+02 -0.93947955875E+03  0.94451051394E+03  0.79042152494E+02 0.  0.
         25    2    1    2    0    0  0.45796896055E+02 -0.14291766412E+03  0.89980699268E+02  0.21509731051E+03  0.12509001695E+03 0.  0.
        -24    2    1    2    0    0 -0.43249303961E+02  0.86136350887E+02  0.31401440194E+03  0.34060165960E+03  0.90080367794E+02 0.  0.
        -11    1    3    3    0    0  0.25293957953E+02  0.63195309809E+02 -0.60665253537E+03  0.61045944186E+03  0.00000000000E+00 0.  1.
         12    1    3    3    0    0 -0.27841550047E+02 -0.64139965715E+01 -0.33282702338E+03  0.33405107208E+03  0.00000000000E+00 0. -1.
         11    1    5    5    0    0 -0.25198037527E+02  0.90854203271E+01  0.13799536696E+02  0.30131597547E+02  0.00000000000E+00 0. -1.
        -12    1    5    5    0    0 -0.18051266434E+02  0.77050930560E+02  0.30021486524E+03  0.31047006206E+03  0.00000000000E+00 0.  1.
          5    1    4    4  501    0  0.90068665441E+01 -0.86078188581E+02 -0.17116904493E+02  0.88323490724E+02  0.41800000000E+01 0.  1.
         -5    1    4    4    0  501  0.36790029510E+02 -0.56839475544E+02  0.10709760376E+03  0.12677381978E+03  0.41800000000E+01 0.  1.
</event>
<event>
11    1  0.8328696E-009  0.1790944E+03  0.7561462E-02  0.1070378E+00
         22   -1    0    0    0    0  0.00000000000E+00  0.00000000000E+00  0.70885495416E+03  0.70885495416E+03  0.00000000000E+00 0.  1.
         22   -1    0    0    0    0 -0.00000000000E+00 -0.00000000000E+00 -0.32792140708E+04  0.32792140708E+04  0.00000000000E+00 0. -1.
        -24    2    1    2    0    0  0.33115637021E+02 -0.73340505081E+02 -0.21889133283E+04  0.21913189474E+04  0.63731430156E+02 0.  0.
         25    2    1    2    0    0  0.26207109363E+02  0.18653718239E+03 -0.10692101655E+04  0.10928592141E+04  0.12509177017E+03 0.  0.
         24    2    1    2    0    0 -0.59322746384E+02 -0.11319667731E+03  0.68776437719E+03  0.70389086340E+03  0.78165421078E+02 0.  0.
        -11    1    5    5    0    0 -0.55301744791E+02 -0.80907308562E+02  0.31951454698E+03  0.33420625561E+03  0.00000000000E+00 0.  1.
         12    1    5    5    0    0 -0.40210015932E+01 -0.32289368750E+02  0.36824983021E+03  0.36968460779E+03  0.00000000000E+00 0. -1.
         11    1    3    3    0    0  0.89061975366E+01 -0.10670957636E+02 -0.12200201874E+04  0.12200993597E+04  0.00000000000E+00 0. -1.
        -12    1    3    3    0    0  0.24209439484E+02 -0.62669547445E+02 -0.96889314089E+03  0.97121958773E+03  0.00000000000E+00 0.  1.
          5    1    4    4  501    0  0.12223475432E+02  0.67639690213E+02 -0.72766711910E+03  0.73091822365E+03  0.41800000000E+01 0. -1.
         -5    1    4    4    0  501  0.13983633931E+02  0.11889749218E+03 -0.34154304637E+03  0.36194099048E+03  0.41800000000E+01 0. -1.
</event>
<event>
11    1  0.8328696E-009  0.1558345E+03  0.7561462E-02  0.1091062E+00
         22   -1    0    0    0    0  0.00000000000E+00  0.00000000000E+00  0.11715826542E+04  0.11715826542E+04  0.00000000000E+00 0.  1.
         22   -1    0    0    0    0 -0.00000000000E+00 -0.00000000000E+00 -0.22834835757E+03  0.22834835757E+03  0.00000000000E+00 0. -1.
        -24    2    1    2    0    0 -0.58741191136E+02 -0.55313095102E+02 -0.92461407048E+02  0.16038897113E+03  0.10327363769E+03 0.  0.
         25    2    1    2    0    0  0.12896630890E+03  0.33637334697E+02 -0.14818300302E+02  0.18338801176E+03  0.12509117361E+03 0.  0.
         24    2    1    2    0    0 -0.70225117761E+02  0.21675760405E+02  0.10505140040E+04  0.10561540289E+04  0.80500027445E+02 0.  0.
        -13    1    5    5    0    0 -0.42780404727E+02  0.21754736542E+02  0.96812966764E+03  0.96931856732E+03  0.00000000000E+00 0.  1.
         14    1    5    5    0    0 -0.27444713034E+02 -0.78976136964E-01  0.82384336348E+02  0.86835461571E+02  0.00000000000E+00 0. -1.
         13    1    3    3    0    0  0.96810544349E+01 -0.56177128755E+02 -0.65523147996E+02  0.86849729611E+02  0.00000000000E+00 0. -1.
        -14    1    3    3    0    0 -0.68422245571E+02  0.86403365253E+00 -0.26938259052E+02  0.73539241524E+02  0.00000000000E+00 0.  1.
          5    1    4    4  501    0  0.87900163385E+01  0.59043345573E+02 -0.29528652841E+01  0.59913044132E+02  0.41800000000E+01 0. -1.
         -5    1    4    4    0  501  0.12017629256E+03 -0.25406010877E+02 -0.11865435018E+02  0.12347496763E+03  0.41800000000E+01 0. -1.
</event>
<event>
11    1  0.8328696E-009  0.1457440E+03  0.7561462E-02  0.1101309E+00
         22   -1    0    0    0    0  0.00000000000E+00  0.00000000000E+00  0.16050499673E+04  0.16050499673E+04  0.00000000000E+00 0. -1.
         22   -1    0    0    0    0 -0.00000000000E+00 -0.00000000000E+00 -0.17520452347E+03  0.17520452347E+03  0.00000000000E+00 0. -1.
        -24    2    1    2    0    0  0.46546198683E+02  0.34558693209E+02 -0.10852559792E+03  0.14697561670E+03  0.80393871735E+02 0.  0.
         25    2    1    2    0    0 -0.23049660507E+02 -0.10456864288E+03  0.10523551908E+03  0.19541714070E+03  0.12508979367E+03 0.  0.
         24    2    1    2    0    0 -0.23496538176E+02  0.70009949674E+02  0.14331355227E+04  0.14378617334E+04  0.90085834405E+02 0.  0.
        -13    1    5    5    0    0  0.31827269358E+02  0.43907295779E+02  0.57658023425E+03  0.57912485030E+03  0.00000000000E+00 0.  1.
         14    1    5    5    0    0 -0.55323807534E+02  0.26102653895E+02  0.85655528844E+03  0.85873688309E+03  0.00000000000E+00 0. -1.
         11    1    3    3    0    0  0.43528703147E+02  0.11920850111E+02 -0.11474860592E+03  0.12330489538E+03  0.00000000000E+00 0. -1.
        -12    1    3    3    0    0  0.30174955357E+01  0.22637843098E+02  0.62230079934E+01  0.23670721322E+02  0.00000000000E+00 0.  1.
          5    1    4    4  501    0  0.89394627024E+01  0.24424679746E+02  0.38482565967E+02  0.46635386323E+02  0.41800000000E+01 0.  1.
         -5    1    4    4    0  501 -0.31989123209E+02 -0.12899332263E+03  0.66752953118E+02  0.14878175438E+03  0.41800000000E+01 0.  1.
</event>
<event>
11    1  0.8328696E-009  0.2076651E+03  0.7561462E-02  0.1049232E+00
         22   -1    0    0    0    0  0.00000000000E+00  0.00000000000E+00  0.15459181841E+04  0.15459181841E+04  0.00000000000E+00 0. -1.
         22   -1    0    0    0    0 -0.00000000000E+00 -0.00000000000E+00 -0.28786277867E+03  0.28786277867E+03  0.00000000000E+00 0. -1.
        -24    2    1    2    0    0 -0.15391237335E+03 -0.41165369401E+02 -0.19540165442E+03  0.26451983929E+03  0.80033321289E+02 0.  0.
         25    2    1    2    0    0  0.22772658671E+03  0.82899121666E+01  0.25162969227E+03  0.36179134269E+03  0.12508937876E+03 0.  0.
         24    2    1    2    0    0 -0.73814213366E+02  0.32875457234E+02  0.12018273676E+04  0.12074697808E+04  0.84053056347E+02 0.  0.
        -13    1    5    5    0    0 -0.17215736297E+01 -0.79055619597E+01  0.10447007839E+02  0.13213693596E+02  0.00000000000E+00 0.  1.
         14    1    5    5    0    0 -0.72092639736E+02  0.40781019194E+02  0.11913803597E+04  0.11942560872E+04  0.00000000000E+00 0. -1.
         13    1    3    3    0    0 -0.14457526860E+03 -0.11824781008E+02 -0.14269787944E+03  0.20348100288E+03  0.00000000000E+00 0. -1.
        -14    1    3    3    0    0 -0.93371047509E+01 -0.29340588393E+02 -0.52703774984E+02  0.61038836407E+02  0.00000000000E+00 0.  1.
          5    1    4    4  501    0  0.81060828720E+02  0.34325999333E+02  0.26896766571E+02  0.92141416502E+02  0.41800000000E+01 0. -1.
         -5    1    4    4    0  501  0.14666575799E+03 -0.26036087166E+02  0.22473292570E+03  0.26964992619E+03  0.41800000000E+01 0. -1.
</event>
<event>
11    1  0.8328696E-009  0.2691755E+03  0.7561462E-02  0.1014153E+00
         22   -1    0    0    0    0  0.00000000000E+00  0.00000000000E+00  0.72584698365E+03  0.72584698365E+03  0.00000000000E+00 0.  1.
         22   -1    0    0    0    0 -0.00000000000E+00 -0.00000000000E+00 -0.16206841721E+04  0.16206841721E+04  0.00000000000E+00 0.  1.
         24    2    1    2    0    0  0.99618085830E+02  0.16151677580E+02 -0.13803312745E+04  0.13864556426E+04  0.82220325217E+02 0.  0.
         25    2    1    2    0    0 -0.32649306478E+03  0.63325719719E+01 -0.68009080175E+02  0.35624375622E+03  0.12508619445E+03 0.  0.
        -24    2    1    2    0    0  0.22687497895E+03 -0.22484249552E+02  0.55350316621E+03  0.60383175693E+03  0.79178520543E+02 0.  0.
        -11    1    3    3    0    0  0.57862393126E+02  0.24355060614E+02 -0.11793019987E+04  0.11809718158E+04  0.00000000000E+00 0.  1.
         12    1    3    3    0    0  0.41755692704E+02 -0.82033830342E+01 -0.20102927576E+03  0.20548382681E+03  0.00000000000E+00 0. -1.
         13    1    5    5    0    0  0.27397489243E+02  0.44573098613E-01  0.15736712023E+03  0.15973426349E+03  0.00000000000E+00 0. -1.
        -14    1    5    5    0    0  0.19947748971E+03 -0.22528822650E+02  0.39613604598E+03  0.44409749344E+03  0.00000000000E+00 0.  1.
          5    1    4    4  501    0 -0.11025685870E+03 -0.43928525414E+02 -0.62350201101E+02  0.13413168982E+03  0.41800000000E+01 0. -1.
         -5    1    4    4    0  501 -0.21623620608E+03  0.50261097386E+02 -0.56588790746E+01  0.22211206640E+03  0.41800000000E+01 0. -1.
</event>
<event>
11    1  0.8328696E-009  0.1399603E+03  0.7561462E-02  0.1107603E+00
         22   -1    0    0    0    0  0.00000000000E+00  0.00000000000E+00  0.20902644533E+03  0.20902644533E+03  0.00000000000E+00 0.  1.
         22   -1    0    0    0    0 -0.00000000000E+00 -0.00000000000E+00 -0.11461898602E+04  0.11461898602E+04  0.00000000000E+00 0. -1.
         24    2    1    2    0    0  0.26228202953E+02  0.31171477298E+02 -0.99996784556E+03  0.10040285607E+04  0.80486513961E+02 0.  0.
         25    2    1    2    0    0  0.22849249776E+01  0.29505748000E+02 -0.96364898455E+02  0.16065668299E+03  0.12509422883E+03 0.  0.
        -24    2    1    2    0    0 -0.28513127931E+02 -0.60677225298E+02  0.15916932914E+03  0.19053106184E+03  0.80451762260E+02 0.  0.
        -13    1    3    3    0    0  0.35479911556E+02 -0.86343479477E+01 -0.22157798265E+03  0.22456664598E+03  0.00000000000E+00 0.  1.
         14    1    3    3    0    0 -0.92517086023E+01  0.39805825245E+02 -0.77838986290E+03  0.77946191473E+03  0.00000000000E+00 0. -1.
         13    1    5    5    0    0 -0.31315551674E+02  0.10098104013E+02  0.63217021522E+02  0.71267294683E+02  0.00000000000E+00 0. -1.
        -14    1    5    5    0    0  0.28024237434E+01 -0.70775329312E+02  0.95952307618E+02  0.11926376715E+03  0.00000000000E+00 0.  1.
          5    1    4    4  501    0  0.53663358555E+02 -0.79338274992E+01 -0.13366081108E+02  0.56025228196E+02  0.41800000000E+01 0. -1.
         -5    1    4    4    0  501 -0.51378433578E+02  0.37439575500E+02 -0.82998817348E+02  0.10463145479E+03  0.41800000000E+01 0. -1.
</event>
<event>
11    1  0.8328696E-009  0.2500987E+03  0.7561462E-02  0.1023847E+00
         22   -1    0    0    0    0  0.00000000000E+00  0.00000000000E+00  0.29708511298E+04  0.29708511298E+04  0.00000000000E+00 0.  1.
         22   -1    0    0    0    0 -0.00000000000E+00 -0.00000000000E+00 -0.37269210019E+03  0.37269210019E+03  0.00000000000E+00 0. -1.
         24    2    1    2    0    0 -0.38899715998E+02  0.45874145778E+02 -0.26576245280E+03  0.28392904339E+03  0.79802225559E+02 0.  0.
         25    2    1    2    0    0  0.21702346680E+03  0.76746819878E+02  0.91402552510E+02  0.27747452214E+03  0.12509366223E+03 0.  0.
        -24    2    1    2    0    0 -0.17812375080E+03 -0.12262096566E+03  0.27725189299E+04  0.27821396644E+04  0.81706328302E+02 0.  0.
        -13    1    3    3    0    0  0.37854530767E+01  0.17165371590E+01  0.48773623081E+01  0.64081836661E+01  0.00000000000E+00 0.  1.
         14    1    3    3    0    0 -0.42685169075E+02  0.44157608619E+02 -0.27063981511E+03  0.27752085972E+03  0.00000000000E+00 0. -1.
         13    1    5    5    0    0 -0.66198198628E+02 -0.38038352793E+02  0.14933956610E+04  0.14953460195E+04  0.00000000000E+00 0. -1.
        -14    1    5    5    0    0 -0.11192555217E+03 -0.84582612862E+02  0.12791232689E+04  0.12867936449E+04  0.00000000000E+00 0.  1.
          5    1    4    4  501    0  0.25860959205E+02 -0.49254022277E+01  0.61997675371E+02  0.67485057231E+02  0.41800000000E+01 0. -1.
         -5    1    4    4    0  501  0.19116250759E+03  0.81672222105E+02  0.29404877139E+02  0.20998946491E+03  0.41800000000E+01 0. -1.
</event>
<event>
11    1  0.8328696E-009  0.1739493E+03  0.7561462E-02  0.1074645E+00
         22   -1    0    0    0    0  0.00000000000E+00  0.00000000000E+00  0.10622452891E+04  0.10622452891E+04  0.00000000000E+00 0. -1.
         22   -1    0    0    0    0 -0.00000000000E+00 -0.00000000000E+00 -0.19466429000E+03  0.19466429000E+03  0.00000000000E+00 0. -1.
         24    2    1    2    0    0 -0.12321429401E+03  0.32185209094E+02 -0.10422348964E+03  0.18257478865E+03  0.79078238014E+02 0.  0.
         25    2    1    2    0    0  0.98304845580E+02 -0.16608665320E+02  0.81000382444E+02  0.17929707285E+03  0.12508672171E+03 0.  0.
        -24    2    1    2    0    0  0.24909448430E+02 -0.15576543774E+02  0.89080410628E+03  0.89503771758E+03  0.81837954477E+02 0.  0.
        -11    1    3    3    0    0  0.10491444749E+02  0.70998549263E+01 -0.30267898296E+01  0.13024584813E+02  0.00000000000E+00 0.  1.
         12    1    3    3    0    0 -0.13370573876E+03  0.25085354168E+02 -0.10119669981E+03  0.16955020384E+03  0.00000000000E+00 0. -1.
         11    1    5    5    0    0 -0.22053989519E+02 -0.30356949488E+02  0.35587621834E+03  0.35784885862E+03  0.00000000000E+00 0. -1.
        -12    1    5    5    0    0  0.46963437949E+02  0.14780405714E+02  0.53492788794E+03  0.53718885896E+03  0.00000000000E+00 0.  1.
          5    1    4    4  501    0  0.11149499326E+03 -0.51136274359E+02  0.63545482582E+02  0.13820836745E+03  0.41800000000E+01 0.  1.
         -5    1    4    4    0  501 -0.13190147682E+02  0.34527609039E+02  0.17454899862E+02  0.41088705395E+02  0.41800000000E+01 0.  1.
</event>
<event>
11    1  0.8328696E-009  0.2020333E+03  0.7561462E-02  0.1053095E+00
         22   -1    0    0    0    0  0.00000000000E+00  0.00000000000E+00  0.44266367469E+03  0.44266367469E+03  0.00000000000E+00 0.  1.
         22   -1    0    0    0    0 -0.00000000000E+00 -0.00000000000E+00 -0.17458579945E+03  0.17458579945E+03  0.00000000000E+00 0. -1.
         24    2    1    2    0    0  0.22099569585E+02 -0.62488142800E+02 -0.45832044594E+02  0.11319979409E+03  0.79501308819E+02 0.  0.
         25    2    1    2    0    0 -0.13364601902E+03  0.14437588649E+03  0.16230072890E+03  0.28406969100E+03  0.12509359594E+03 0.  0.
        -24    2    1    2    0    0  0.11154644943E+03 -0.81887743685E+02  0.15160919093E+03  0.21997998905E+03  0.79105220179E+02 0.  0.
        -11    1    3    3    0    0 -0.12137960853E+02  0.14701306542E+02 -0.83545427776E+01  0.20814823870E+02  0.00000000000E+00 0.  1.
         12    1    3    3    0    0  0.34237530438E+02 -0.77189449342E+02 -0.37477501817E+02  0.92384970220E+02  0.00000000000E+00 0. -1.
         13    1    5    5    0    0  0.53128305669E+02 -0.49356804123E+01  0.20592772735E+02  0.57193007381E+02  0.00000000000E+00 0. -1.
        -14    1    5    5    0    0  0.58418143762E+02 -0.76952063273E+02  0.13101641820E+03  0.16278698167E+03  0.00000000000E+00 0.  1.
          5    1    4    4  501    0 -0.13469502893E+03  0.13034310140E+03  0.85816167032E+02  0.20618914090E+03  0.41800000000E+01 0.  1.
         -5    1    4    4    0  501  0.10490099089E+01  0.14032785081E+02  0.76484561873E+02  0.77880550099E+02  0.41800000000E+01 0.  1.
</event>
<event>
11    1  0.8328696E-009  0.1705638E+03  0.7561462E-02  0.1077542E+00
         22   -1    0    0    0    0  0.00000000000E+00  0.00000000000E+00  0.98063896067E+03  0.98063896067E+03  0.00000000000E+00 0.  1.
         22   -1    0    0    0    0 -0.00000000000E+00 -0.00000000000E+00 -0.89883105513E+03  0.89883105513E+03  0.00000000000E+00 0.  1.
         24    2    1    2    0    0  0.62809940770E+01  0.58380306423E+02 -0.86113369715E+03  0.86686805138E+03  0.80381982231E+02 0.  0.
         25    2    1    2    0    0 -0.10680841392E+03 -0.10175028253E+03  0.31099520446E+03  0.36623326348E+03  0.12509048246E+03 0.  0.
        -24    2    1    2    0    0  0.10052741984E+03  0.43369976106E+02  0.63194639823E+03  0.64636870095E+03  0.80308968126E+02 0.  0.
        -11    1    3    3    0    0 -0.68526230097E+01  0.72296093688E+02 -0.78556272538E+03  0.78891221255E+03  0.00000000000E+00 0.  1.
         12    1    3    3    0    0  0.13133617087E+02 -0.13915787266E+02 -0.75570971773E+02  0.77955838830E+02  0.00000000000E+00 0. -1.
         11    1    5    5    0    0  0.66748362295E+01 -0.20200716602E+02  0.72667331890E+02  0.75717656553E+02  0.00000000000E+00 0. -1.
        -12    1    5    5    0    0  0.93852583613E+02  0.63570692708E+02  0.55927906634E+03  0.57065104439E+03  0.00000000000E+00 0.  1.
          5    1    4    4  501    0 -0.62914595043E+02 -0.56133160729E+01  0.38887514697E+02  0.74293113988E+02  0.41800000000E+01 0.  1.
         -5    1    4    4    0  501 -0.43893818876E+02 -0.96136966455E+02  0.27210768976E+03  0.29194014949E+03  0.41800000000E+01 0.  1.
</event>
<event>
11    1  0.8328696E-009  0.1493756E+03  0.7561462E-02  0.1097519E+00
         22   -1    0    0    0    0  0.00000000000E+00  0.00000000000E+00  0.26462321482E+03  0.26462321482E+03  0.00000000000E+00 0.  1.
         22   -1    0    0    0    0 -0.00000000000E+00 -0.00000000000E+00 -0.83786093076E+03  0.83786093076E+03  0.00000000000E+00 0.  1.
        -24    2    1    2    0    0 -0.40393453923E+02  0.72457329912E+02 -0.76589597577E+03  0.77436252805E+03  0.78479190699E+02 0.  0.
         25    2    1    2    0    0 -0.12255798041E+02 -0.66549149207E+02  0.39357900589E+02  0.14756540166E+03  0.12509000593E+03 0.  0.
         24    2    1    2    0    0  0.52649251964E+02 -0.59081807049E+01  0.15330035923E+03  0.18055621587E+03  0.79326519006E+02 0.  0.
        -13    1    5    5    0    0  0.61688783054E+02 -0.40218071001E+01  0.15837976656E+03  0.17001715014E+03  0.00000000000E+00 0.  1.
         14    1    5    5    0    0 -0.90395310906E+01 -0.18863736048E+01 -0.50794073252E+01  0.10539065731E+02  0.00000000000E+00 0. -1.
         13    1    3    3    0    0 -0.30788098203E+02  0.15384841385E+02 -0.96221987581E+02  0.10219232471E+03  0.00000000000E+00 0. -1.
        -14    1    3    3    0    0 -0.96053557194E+01  0.57072488527E+02 -0.66967398819E+03  0.67217020334E+03  0.00000000000E+00 0.  1.
          5    1    4    4  501    0 -0.68551016586E+02 -0.36684568295E+02  0.15489962398E+02  0.79387724247E+02  0.41800000000E+01 0.  1.
         -5    1    4    4    0  501  0.56295218545E+02 -0.29864580911E+02  0.23867938191E+02  0.68177677414E+02  0.41800000000E+01 0.  1.
</event>
<event>
11    1  0.8328696E-009  0.1330455E+03  0.7561462E-02  0.1115583E+00
         22   -1    0    0    0    0  0.00000000000E+00  0.00000000000E+00  0.17980345662E+04  0.17980345662E+04  0.00000000000E+00 0. -1.
         22   -1    0    0    0    0 -0.00000000000E+00 -0.00000000000E+00 -0.90682166503E+02  0.90682166503E+02  0.00000000000E+00 0.  1.
         24    2    1    2    0    0  0.41871547000E+02  0.17446315479E+02 -0.55769037068E+02  0.10560914817E+03  0.77366053986E+02 0.  0.
         25    2    1    2    0    0 -0.50281688036E+02  0.60037512261E+01  0.52382565666E+03  0.54092973560E+03  0.12508943641E+03 0.  0.
        -24    2    1    2    0    0  0.84101410361E+01 -0.23450066705E+02  0.12392957801E+04  0.12421778490E+04  0.80815479301E+02 0.  0.
        -13    1    3    3    0    0  0.19096192966E+02 -0.10240176605E+02 -0.65060632663E+02  0.68574133062E+02  0.00000000000E+00 0.  1.
         14    1    3    3    0    0  0.22775354034E+02  0.27686492084E+02  0.92915955944E+01  0.37035015107E+02  0.00000000000E+00 0. -1.
         11    1    5    5    0    0  0.18684390480E+02 -0.25601900474E+02  0.12182233886E+04  0.12186356257E+04  0.00000000000E+00 0. -1.
        -12    1    5    5    0    0 -0.10274249444E+02  0.21518337687E+01  0.21072391581E+02  0.23542223284E+02  0.00000000000E+00 0.  1.
          5    1    4    4  501    0 -0.75547631928E+02  0.44835351295E+02  0.36384312180E+03  0.37432197784E+03  0.41800000000E+01 0. -1.
         -5    1    4    4    0  501  0.25265943892E+02 -0.38831600069E+02  0.15998253486E+03  0.16660775776E+03  0.41800000000E+01 0. -1.
</event>
<event>
11    1  0.8328696E-009  0.1423069E+03  0.7561462E-02  0.1105009E+00
         22   -1    0    0    0    0  0.00000000000E+00  0.00000000000E+00  0.10171507866E+04  0.10171507866E+04  0.00000000000E+00 0.  1.
         22   -1    0    0    0    0 -0.00000000000E+00 -0.00000000000E+00 -0.26469098538E+03  0.26469098538E+03  0.00000000000E+00 0. -1.
         24    2    1    2    0    0  0.82568143392E+00 -0.25427027176E+02 -0.24074665800E+03  0.25495529653E+03  0.79975211353E+02 0.  0.
         25    2    1    2    0    0 -0.65324839718E+02  0.35342412974E+02  0.51179688221E+03  0.53207106464E+03  0.12508856201E+03 0.  0.
        -24    2    1    2    0    0  0.64499158284E+02 -0.99153857982E+01  0.48140957706E+03  0.49481541085E+03  0.93960915494E+02 0.  0.
        -13    1    3    3    0    0  0.37973939744E+01 -0.31320556843E+02 -0.28229270030E+02  0.42335436320E+02  0.00000000000E+00 0.  1.
         14    1    3    3    0    0 -0.29717125404E+01  0.58935296670E+01 -0.21251738797E+03  0.21261986021E+03  0.00000000000E+00 0. -1.
         11    1    5    5    0    0  0.40504807832E+01  0.27636498388E+02  0.47458452068E+02  0.55068022576E+02  0.00000000000E+00 0. -1.
        -12    1    5    5    0    0  0.60448677501E+02 -0.37551884186E+02  0.43395112499E+03  0.43974738828E+03  0.00000000000E+00 0.  1.
          5    1    4    4  501    0 -0.41095372681E+01  0.69508201708E+02  0.18268070816E+03  0.19554537053E+03  0.41800000000E+01 0.  1.
         -5    1    4    4    0  501 -0.61215302450E+02 -0.34165788734E+02  0.32911617405E+03  0.33652569411E+03  0.41800000000E+01 0.  1.
</event>
<event>
11    1  0.8328696E-009  0.1508306E+03  0.7561462E-02  0.1096033E+00
         22   -1    0    0    0    0  0.00000000000E+00  0.00000000000E+00  0.64969238060E+03  0.64969238060E+03  0.00000000000E+00 0.  1.
         22   -1    0    0    0    0 -0.00000000000E+00 -0.00000000000E+00 -0.53351508100E+03  0.53351508100E+03  0.00000000000E+00 0.  1.
        -24    2    1    2    0    0  0.52284936115E+02  0.70309675989E+02 -0.38638754146E+03  0.40419046455E+03  0.79983963097E+02 0.  0.
         25    2    1    2    0    0 -0.76929455443E+02 -0.25633501113E+02 -0.93133168509E+02  0.17577443429E+03  0.12509055592E+03 0.  0.
         24    2    1    2    0    0  0.24644519328E+02 -0.44676174876E+02  0.59569800956E+03  0.60324256276E+03  0.80263054991E+02 0.  0.
        -11    1    5    5    0    0  0.24827850402E+02 -0.43246311376E+02  0.59824296967E+03  0.60031767954E+03  0.00000000000E+00 0.  1.
         12    1    5    5    0    0 -0.18333107409E+00 -0.14298634995E+01 -0.25449601103E+01  0.29248832238E+01  0.00000000000E+00 0. -1.
         11    1    3    3    0    0 -0.18521446343E+02  0.18901716606E+01 -0.40741823124E+02  0.44794116522E+02  0.00000000000E+00 0. -1.
        -12    1    3    3    0    0  0.70806382458E+02  0.68419504329E+02 -0.34564571834E+03  0.35939634803E+03  0.00000000000E+00 0.  1.
          5    1    4    4  501    0  0.30232612472E+02 -0.20457268040E+02 -0.54347746347E+01  0.37141888050E+02  0.41800000000E+01 0. -1.
         -5    1    4    4    0  501 -0.10716206792E+03 -0.51762330730E+01 -0.87698393875E+02  0.13863254624E+03  0.41800000000E+01 0. -1.
</event>
<event>
11    1  0.8328696E-009  0.1465381E+03  0.7561462E-02  0.1100470E+00
         22   -1    0    0    0    0  0.00000000000E+00  0.00000000000E+00  0.10870052377E+04  0.10870052377E+04  0.00000000000E+00 0. -1.
         22   -1    0    0    0    0 -0.00000000000E+00 -0.00000000000E+00 -0.13786589711E+03  0.13786589711E+03  0.00000000000E+00 0.  1.
         24    2    1    2    0    0 -0.34707416976E+02  0.15845019822E+02 -0.10024420604E+03  0.13426033759E+03  0.80754368054E+02 0.  0.
         25    2    1    2    0    0  0.99461719637E+02 -0.38112990071E+02  0.39630099811E+03  0.42900705776E+03  0.12508933134E+03 0.  0.
        -24    2    1    2    0    0 -0.64754302660E+02  0.22267970249E+02  0.65308254854E+03  0.66160373948E+03  0.80707562711E+02 0.  0.
        -11    1    3    3    0    0 -0.16630372093E+01  0.44726003795E+02 -0.58814173506E+02  0.73907294048E+02  0.00000000000E+00 0.  1.
         12    1    3    3    0    0 -0.33044379767E+02 -0.28880983973E+02 -0.41430032530E+02  0.60353043543E+02  0.00000000000E+00 0. -1.
         11    1    5    5    0    0 -0.52794810105E+02  0.48474727752E+02  0.54714415969E+03  0.55181865018E+03  0.00000000000E+00 0. -1.
        -12    1    5    5    0    0 -0.11959492555E+02 -0.26206757503E+02  0.10593838885E+03  0.10978508931E+03  0.00000000000E+00 0.  1.
          5    1    4    4  501    0 -0.28764874954E+02 -0.22439613699E+01  0.99459568897E+02  0.10364425521E+03  0.41800000000E+01 0.  1.
         -5    1    4    4    0  501  0.12822659459E+03 -0.35869028701E+02  0.29684142921E+03  0.32536280254E+03  0.41800000000E+01 0.  1.
</event>
<event>
11    1  0.8328696E-009  0.1357515E+03  0.7561462E-02  0.1112397E+00
         22   -1    0    0    0    0  0.00000000000E+00  0.00000000000E+00  0.41436769858E+03  0.41436769858E+03  0.00000000000E+00 0.  1.
         22   -1    0    0    0    0 -0.00000000000E+00 -0.00000000000E+00 -0.71897536191E+03  0.71897536191E+03  0.00000000000E+00 0.  1.
        -24    2    1    2    0    0  0.18831973557E+02 -0.15184763356E+02 -0.66646164044E+03  0.67189685884E+03  0.81786615504E+02 0.  0.
         25    2    1    2    0    0 -0.61287223830E+02  0.39708742018E+02  0.82593577897E+02  0.16673807515E+03  0.12508788350E+03 0.  0.
         24    2    1    2    0    0  0.42455250274E+02 -0.24523978662E+02  0.27926039922E+03  0.29470812649E+03  0.80390518388E+02 0.  0.
        -13    1    5    5    0    0  0.47655509029E+02 -0.32341723930E+02  0.27944364574E+03  0.28531699177E+03  0.00000000000E+00 0.  1.
         14    1    5    5    0    0 -0.52002587550E+01  0.78177452681E+01 -0.18324652199E+00  0.93911347282E+01  0.00000000000E+00 0. -1.
         13    1    3    3    0    0 -0.11395504026E+02 -0.31663352492E+02 -0.12845176430E+03  0.13278660005E+03  0.00000000000E+00 0. -1.
        -14    1    3    3    0    0  0.30227477583E+02  0.16478589136E+02 -0.53800987615E+03  0.53911025879E+03  0.00000000000E+00 0.  1.
          5    1    4    4  501    0 -0.47205958473E+02  0.75867368041E+02  0.17963754164E+02  0.91238308361E+02  0.41800000000E+01 0. -1.
         -5    1    4    4    0  501 -0.14081265357E+02 -0.36158626024E+02  0.64629823733E+02  0.75499766793E+02  0.41800000000E+01 0. -1.
</event>
<event>
11    1  0.8328696E-009  0.1366205E+03  0.7561462E-02  0.1111392E+00
         22   -1    0    0    0    0  0.00000000000E+00  0.00000000000E+00  0.17492006503E+04  0.17492006503E+04  0.00000000000E+00 0.  1.
         22   -1    0    0    0    0 -0.00000000000E+00 -0.00000000000E+00 -0.66883798011E+03  0.66883798011E+03  0.00000000000E+00 0. -1.
         24    2    1    2    0    0  0.74130019908E+01  0.18964525575E+02 -0.60882072267E+03  0.61438255215E+03  0.79928982278E+02 0.  0.
         25    2    1    2    0    0 -0.29494967021E+02 -0.68683427426E+02  0.39469089715E+02  0.15097379770E+03  0.12509161550E+03 0.  0.
        -24    2    1    2    0    0  0.22081965031E+02  0.49718901852E+02  0.16497143031E+04  0.16526822806E+04  0.82715512952E+02 0.  0.
        -13    1    3    3    0    0  0.79291351926E+01  0.32659117425E+02 -0.10235211819E+03  0.10772857204E+03  0.00000000000E+00 0.  1.
         14    1    3    3    0    0 -0.51613320181E+00 -0.13694591851E+02 -0.50646860448E+03  0.50665398011E+03  0.00000000000E+00 0. -1.
         13    1    5    5    0    0 -0.11613715383E+02  0.46631813458E+02  0.46332339961E+03  0.46580894908E+03  0.00000000000E+00 0. -1.
        -14    1    5    5    0    0  0.33695680414E+02  0.30870883941E+01  0.11863909035E+04  0.11868733315E+04  0.00000000000E+00 0.  1.
          5    1    4    4  501    0  0.28708392189E+02 -0.38591541512E+02 -0.28832048515E+02  0.56233782372E+02  0.41800000000E+01 0. -1.
         -5    1    4    4    0  501 -0.58203359211E+02 -0.30091885915E+02  0.68301138230E+02  0.94740015331E+02  0.41800000000E+01 0. -1.
</event>
<event>
11    1  0.8328696E-009  0.1398853E+03  0.7561462E-02  0.1107687E+00
         22   -1    0    0    0    0  0.00000000000E+00  0.00000000000E+00  0.18011325825E+04  0.18011325825E+04  0.00000000000E+00 0.  1.
         22   -1    0    0    0    0 -0.00000000000E+00 -0.00000000000E+00 -0.91144690851E+03  0.91144690851E+03  0.00000000000E+00 0.  1.
         24    2    1    2    0    0 -0.41711594887E+02  0.19618269287E+01 -0.70650338260E+03  0.71225298212E+03  0.80084798777E+02 0.  0.
         25    2    1    2    0    0  0.59367989722E+02  0.58036756273E+02 -0.17250956671E+03  0.22869108294E+03  0.12508891848E+03 0.  0.
        -24    2    1    2    0    0 -0.17656394835E+02 -0.59998583202E+02  0.17686986233E+04  0.17716354260E+04  0.80533745707E+02 0.  0.
        -11    1    3    3    0    0 -0.52307247648E+02 -0.27378676530E+02 -0.44751114461E+03  0.45138881758E+03  0.00000000000E+00 0.  1.
         12    1    3    3    0    0  0.10595652761E+02  0.29340503459E+02 -0.25899223799E+03  0.26086416453E+03  0.00000000000E+00 0. -1.
         13    1    5    5    0    0  0.71235322157E+01  0.14022588358E+01  0.14774847994E+02  0.16462295536E+02  0.00000000000E+00 0. -1.
        -14    1    5    5    0    0 -0.24779927051E+02 -0.61400842038E+02  0.17539237753E+04  0.17551731305E+04  0.00000000000E+00 0.  1.
          5    1    4    4  501    0  0.87587844630E+02  0.19548298588E+02 -0.64690050948E+02  0.11070700789E+03  0.41800000000E+01 0. -1.
         -5    1    4    4    0  501 -0.28219854908E+02  0.38488457685E+02 -0.10781951576E+03  0.11798407505E+03  0.41800000000E+01 0. -1.
</event>
<event>
11    1  0.8328696E-009  0.1296739E+03  0.7561462E-02  0.1119670E+00
         22   -1    0    0    0    0  0.00000000000E+00  0.00000000000E+00  0.82758121549E+02  0.82758121549E+02  0.00000000000E+00 0. -1.
         22   -1    0    0    0    0 -0.00000000000E+00 -0.00000000000E+00 -0.10767004208E+04  0.10767004208E+04  0.00000000000E+00 0. -1.
         24    2    1    2    0    0  0.96418910486E+01 -0.17516396509E+02 -0.90868110651E+03  0.91251815707E+03  0.81167995176E+02 0.  0.
         25    2    1    2    0    0  0.80113618475E+01  0.43801870860E+02 -0.90829005836E+02  0.16087675569E+03  0.12509450991E+03 0.  0.
        -24    2    1    2    0    0 -0.17653252896E+02 -0.26285474351E+02  0.55678130496E+01  0.86063629637E+02  0.79833478595E+02 0.  0.
        -13    1    3    3    0    0 -0.14737678849E+01  0.28925940935E+01  0.28143731476E+00  0.32585732047E+01  0.00000000000E+00 0.  1.
         14    1    3    3    0    0  0.11115658933E+02 -0.20408990603E+02 -0.90896254382E+03  0.90925958386E+03  0.00000000000E+00 0. -1.
         13    1    5    5    0    0 -0.31610642116E+02 -0.38017826405E+01  0.34437423771E+02  0.46900132220E+02  0.00000000000E+00 0. -1.
        -14    1    5    5    0    0  0.13957389220E+02 -0.22483691711E+02 -0.28869610722E+02  0.39163497418E+02  0.00000000000E+00 0.  1.
          5    1    4    4  501    0  0.40144570672E+02  0.76605754081E+02 -0.56501287736E+02  0.10339195340E+03  0.41800000000E+01 0. -1.
         -5    1    4    4    0  501 -0.32133208825E+02 -0.32803883220E+02 -0.34327718100E+02  0.57484802284E+02  0.41800000000E+01 0. -1.
</event>
<event>
11    1  0.8328696E-009  0.1698890E+03  0.7561462E-02  0.1078128E+00
         22   -1    0    0    0    0  0.00000000000E+00  0.00000000000E+00  0.37930821260E+04  0.37930821260E+04  0.00000000000E+00 0.  1.
         22   -1    0    0    0    0 -0.00000000000E+00 -0.00000000000E+00 -0.33728903666E+02  0.33728903666E+02  0.00000000000E+00 0.  1.
        -24    2    1    2    0    0  0.15719735172E+02 -0.19604345660E+01  0.49202920695E+02  0.96051599954E+02  0.80956958140E+02 0.  0.
         25    2    1    2    0    0  0.31337477123E+02  0.10764500217E+03  0.81207315838E+03  0.82926513364E+03  0.12509341850E+03 0.  0.
         24    2    1    2    0    0 -0.47057212294E+02 -0.10568456761E+03  0.28980771432E+04  0.29014942960E+04  0.80214791485E+02 0.  0.
        -13    1    5    5    0    0 -0.69164166350E+02 -0.72405958635E+02  0.19354715190E+04  0.19380599334E+04  0.00000000000E+00 0.  1.
         14    1    5    5    0    0  0.22106954056E+02 -0.33278608971E+02  0.96260562425E+03  0.96343436262E+03  0.00000000000E+00 0. -1.
         11    1    3    3    0    0 -0.11334689408E+02  0.28887249014E+02  0.45198857848E+02  0.54825952708E+02  0.00000000000E+00 0. -1.
        -12    1    3    3    0    0  0.27054424579E+02 -0.30847683580E+02  0.40040628469E+01  0.41225647246E+02  0.00000000000E+00 0.  1.
          5    1    4    4  501    0 -0.11532938634E+01  0.12311273658E+03  0.71735449933E+03  0.72785508592E+03  0.41800000000E+01 0.  1.
         -5    1    4    4    0  501  0.32490770986E+02 -0.15467734404E+02  0.94718659048E+02  0.10141004772E+03  0.41800000000E+01 0.  1.
</event>
<event>
11    1  0.8328696E-009  0.1488583E+03  0.7561462E-02  0.1098051E+00
         22   -1    0    0    0    0  0.00000000000E+00  0.00000000000E+00  0.10854056890E+04  0.10854056890E+04  0.00000000000E+00 0.  1.
         22   -1    0    0    0    0 -0.00000000000E+00 -0.00000000000E+00 -0.94883760983E+02  0.94883760983E+02  0.00000000000E+00 0. -1.
         24    2    1    2    0    0  0.69290352520E+02  0.23232764853E+02 -0.10699380488E+02  0.11058899017E+03  0.82307555485E+02 0.  0.
         25    2    1    2    0    0 -0.12577546342E+03  0.58689091717E+01  0.22432984982E+03  0.28605524384E+03  0.12509919950E+03 0.  0.
        -24    2    1    2    0    0  0.56485110904E+02 -0.29101674024E+02  0.77689145866E+03  0.78364521594E+03  0.80635046612E+02 0.  0.
        -11    1    3    3    0    0 -0.62010337269E+01  0.32011940965E+02  0.49890416677E+01  0.32986477841E+02  0.00000000000E+00 0.  1.
         12    1    3    3    0    0  0.75491386247E+02 -0.87791761120E+01 -0.15688422155E+02  0.77602512333E+02  0.00000000000E+00 0. -1.
         11    1    5    5    0    0  0.59755477224E+02  0.24832787641E+00  0.30309941155E+03  0.30893370163E+03  0.00000000000E+00 0. -1.
        -12    1    5    5    0    0 -0.32703663200E+01 -0.29350001901E+02  0.47379204711E+03  0.47471151430E+03  0.00000000000E+00 0.  1.
          5    1    4    4  501    0 -0.60084966340E+02  0.25249754499E+02  0.16741620216E+02  0.67420379188E+02  0.41800000000E+01 0. -1.
         -5    1    4    4    0  501 -0.65690497084E+02 -0.19380845327E+02  0.20758822960E+03  0.21863486465E+03  0.41800000000E+01 0. -1.
</event>
<event>
11    1  0.8328696E-009  0.1555839E+03  0.7561462E-02  0.1091306E+00
         22   -1    0    0    0    0  0.00000000000E+00  0.00000000000E+00  0.28555782906E+03  0.28555782906E+03  0.00000000000E+00 0. -1.
         22   -1    0    0    0    0 -0.00000000000E+00 -0.00000000000E+00 -0.19236945844E+03  0.19236945844E+03  0.00000000000E+00 0.  1.
        -24    2    1    2    0    0  0.10409470902E+02 -0.10650125036E+03 -0.10346365369E+03  0.16936897835E+03  0.80809960908E+02 0.  0.
         25    2    1    2    0    0 -0.97809168500E+01  0.37578375719E+02  0.88174563288E+02  0.15789281960E+03  0.12509032023E+03 0.  0.
         24    2    1    2    0    0 -0.62855405158E+00  0.68922874640E+02  0.10847746101E+03  0.15066548955E+03  0.78625520442E+02 0.  0.
        -13    1    5    5    0    0 -0.33239637430E+02  0.27662425874E+02  0.19791537403E+02  0.47558261685E+02  0.00000000000E+00 0.  1.
         14    1    5    5    0    0  0.32611083378E+02  0.41260448766E+02  0.88685923612E+02  0.10310722787E+03  0.00000000000E+00 0. -1.
         11    1    3    3    0    0  0.55133880139E+01 -0.84781996851E+01  0.13381870498E+02  0.16773543911E+02  0.00000000000E+00 0. -1.
        -12    1    3    3    0    0  0.48960828877E+01 -0.98023050674E+02 -0.11684552418E+03  0.15259543444E+03  0.00000000000E+00 0.  1.
          5    1    4    4  501    0  0.25373334786E+02  0.73503225292E+02  0.37626550194E+02  0.86485605311E+02  0.41800000000E+01 0. -1.
         -5    1    4    4    0  501 -0.35154251636E+02 -0.35924849573E+02  0.50548013095E+02  0.71407214291E+02  0.41800000000E+01 0. -1.
</event>
<event>
11    1  0.8328696E-009  0.1682674E+03  0.7561462E-02  0.1079549E+00
         22   -1    0    0    0    0  0.00000000000E+00  0.00000000000E+00  0.14998273248E+03  0.14998273248E+03  0.00000000000E+00 0.  1.
         22   -1    0    0    0    0 -0.00000000000E+00 -0.00000000000E+00 -0.12454551485E+04  0.12454551485E+04  0.00000000000E+00 0. -1.
         24    2    1    2    0    0 -0.78789314802E+02  0.46734143614E+02 -0.75599035856E+03  0.76599765180E+03  0.82699117385E+02 0.  0.
         25    2    1    2    0    0  0.16381740996E+03 -0.10893934799E+03 -0.41575994924E+03  0.47666092636E+03  0.12508148538E+03 0.  0.
        -24    2    1    2    0    0 -0.85028095160E+02  0.62205204379E+02  0.76277891793E+02  0.15277930280E+03  0.80149448972E+02 0.  0.
        -13    1    3    3    0    0 -0.31752748737E+02  0.11015107954E+02 -0.71954542024E+02  0.79416785212E+02  0.00000000000E+00 0.  1.
         14    1    3    3    0    0 -0.47036566065E+02  0.35719035660E+02 -0.68403581654E+03  0.68658086659E+03  0.00000000000E+00 0. -1.
         13    1    5    5    0    0 -0.62178975371E+01  0.51348920937E+02  0.39780832152E+02  0.65252498327E+02  0.00000000000E+00 0. -1.
        -14    1    5    5    0    0 -0.78810197623E+02  0.10856283442E+02  0.36497059641E+02  0.87526804477E+02  0.00000000000E+00 0.  1.
          5    1    4    4  501    0 -0.18798098500E+02 -0.61836371506E+01 -0.64822603620E+02  0.67904699511E+02  0.41800000000E+01 0.  1.
         -5    1    4    4    0  501  0.18261550846E+03 -0.10275571084E+03 -0.35093734562E+03  0.40875622685E+03  0.41800000000E+01 0.  1.
</event>
<event>
11    1  0.8328696E-009  0.1416905E+03  0.7561462E-02  0.1105685E+00
         22   -1    0    0    0    0  0.00000000000E+00  0.00000000000E+00  0.27372920683E+04  0.27372920683E+04  0.00000000000E+00 0. -1.
         22   -1    0    0    0    0 -0.00000000000E+00 -0.00000000000E+00 -0.22278813164E+02  0.22278813164E+02  0.00000000000E+00 0.  1.
        -24    2    1    2    0    0 -0.47361780867E+02 -0.27521244068E+02  0.21170117112E+03  0.23361684203E+03  0.82212443485E+02 0.  0.
         25    2    1    2    0    0  0.74129181783E+02  0.70519161671E+02  0.63414123170E+03  0.65440855680E+03  0.12508944686E+03 0.  0.
         24    2    1    2    0    0 -0.26767400916E+02 -0.42997917604E+02  0.18691708523E+04  0.18715454826E+04  0.79482726154E+02 0.  0.
        -13    1    5    5    0    0  0.28040798801E+01  0.19030772031E+02  0.19050294392E+03  0.19147168143E+03  0.00000000000E+00 0.  1.
         14    1    5    5    0    0 -0.29571480796E+02 -0.62028689634E+02  0.16786679084E+04  0.16800738012E+04  0.00000000000E+00 0. -1.
         11    1    3    3    0    0 -0.30070444419E+01  0.78430234125E+01 -0.48905148869E+01  0.97196948710E+01  0.00000000000E+00 0. -1.
        -12    1    3    3    0    0 -0.44354736425E+02 -0.35364267480E+02  0.21659168601E+03  0.22389714716E+03  0.00000000000E+00 0.  1.
          5    1    4    4  501    0  0.10621402654E+03  0.65309270701E+02  0.43297402203E+03  0.45058927686E+03  0.41800000000E+01 0.  1.
         -5    1    4    4    0  501 -0.32084844753E+02  0.52098909704E+01  0.20116720967E+03  0.20381927994E+03  0.41800000000E+01 0.  1.
</event>
<event>
11    1  0.8328696E-009  0.2160540E+03  0.7561462E-02  0.1043718E+00
         22   -1    0    0    0    0  0.00000000000E+00  0.00000000000E+00  0.30877933489E+04  0.30877933489E+04  0.00000000000E+00 0.  1.
         22   -1    0    0    0    0 -0.00000000000E+00 -0.00000000000E+00 -0.11369211968E+04  0.11369211968E+04  0.00000000000E+00 0.  1.
         24    2    1    2    0    0 -0.11605018238E+03 -0.13308072109E+03 -0.10664215588E+04  0.10837442916E+04  0.77901382278E+02 0.  0.
         25    2    1    2    0    0  0.93917222174E+02  0.14028072550E+03  0.11973042904E+03  0.24183020296E+03  0.12508934751E+03 0.  0.
        -24    2    1    2    0    0  0.22132960210E+02 -0.72000044069E+01  0.28975632819E+04  0.28991400511E+04  0.92727314900E+02 0.  0.
        -13    1    3    3    0    0 -0.97747143047E+02 -0.14210807265E+03 -0.94205040055E+03  0.95770985453E+03  0.00000000000E+00 0.  1.
         14    1    3    3    0    0 -0.18303039337E+02  0.90273515586E+01 -0.12437115828E+03  0.12603443711E+03  0.00000000000E+00 0. -1.
         13    1    5    5    0    0 -0.20006175031E+02  0.29400813618E+02  0.73886461631E+03  0.73971993087E+03  0.00000000000E+00 0. -1.
        -14    1    5    5    0    0  0.42139135241E+02 -0.36600818025E+02  0.21586986656E+04  0.21594201202E+04  0.00000000000E+00 0.  1.
          5    1    4    4  501    0  0.61144492246E+02  0.11262381308E+03  0.15633891193E+02  0.12916912618E+03  0.41800000000E+01 0. -1.
         -5    1    4    4    0  501  0.32772729928E+02  0.27656912422E+02  0.10409653784E+03  0.11266107679E+03  0.41800000000E+01 0. -1.
</event>
<event>
11    1  0.8328696E-009  0.1540981E+03  0.7561462E-02  0.1092763E+00
         22   -1    0    0    0    0  0.00000000000E+00  0.00000000000E+00  0.84877559959E+03  0.84877559959E+03  0.00000000000E+00 0. -1.
         22   -1    0    0    0    0 -0.00000000000E+00 -0.00000000000E+00 -0.21372563903E+03  0.21372563903E+03  0.00000000000E+00 0. -1.
         24    2    1    2    0    0  0.85970593239E+02 -0.11912140338E+01 -0.13844048293E+03  0.18172360934E+03  0.80407344092E+02 0.  0.
         25    2    1    2    0    0 -0.11749216580E+03 -0.30993711980E+02  0.99200805689E+02  0.20063240801E+03  0.12509014385E+03 0.  0.
        -24    2    1    2    0    0  0.31521572566E+02  0.32184926014E+02  0.67428963780E+03  0.68014522128E+03  0.76821399266E+02 0.  0.
        -11    1    3    3    0    0 -0.91180413693E+01 -0.78296414782E+01 -0.50917067003E+02  0.52316246771E+02  0.00000000000E+00 0.  1.
         12    1    3    3    0    0  0.95088634609E+02  0.66384274444E+01 -0.87523415926E+02  0.12940736257E+03  0.00000000000E+00 0. -1.
         11    1    5    5    0    0  0.50929729421E+02  0.42865053089E+02  0.47907888638E+03  0.48368153726E+03  0.00000000000E+00 0. -1.
        -12    1    5    5    0    0 -0.19408156855E+02 -0.10680127075E+02  0.19521075142E+03  0.19646368402E+03  0.00000000000E+00 0.  1.
          5    1    4    4  501    0 -0.50357026413E+02  0.39429288025E+02  0.36466797203E+01  0.64197114704E+02  0.41800000000E+01 0. -1.
         -5    1    4    4    0  501 -0.67135139392E+02 -0.70423000005E+02  0.95554125968E+02  0.13643529331E+03  0.41800000000E+01 0. -1.
</event>
<event>
11    1  0.8328696E-009  0.1314215E+03  0.7561462E-02  0.1117535E+00
         22   -1    0    0    0    0  0.00000000000E+00  0.00000000000E+00  0.64853460610E+02  0.64853460610E+02  0.00000000000E+00 0.  1.
         22   -1    0    0    0    0 -0.00000000000E+00 -0.00000000000E+00 -0.82781274235E+03  0.82781274235E+03  0.00000000000E+00 0.  1.
        -24    2    1    2    0    0 -0.12338724167E+02 -0.31937169557E+02 -0.37269981881E+03  0.38412231379E+03  0.86444028694E+02 0.  0.
         25    2    1    2    0    0  0.48153026311E+02  0.33084263634E+02 -0.39649208436E+03  0.41984004160E+03  0.12508559121E+03 0.  0.
         24    2    1    2    0    0 -0.35814302143E+02 -0.11470940775E+01  0.62326214354E+01  0.88703847564E+02  0.80904554506E+02 0.  0.
        -11    1    5    5    0    0  0.10135165929E+02  0.17525311032E+02  0.27989064007E+02  0.34543390383E+02  0.00000000000E+00 0.  1.
         12    1    5    5    0    0 -0.45949468073E+02 -0.18672405109E+02 -0.21756442571E+02  0.54160457181E+02  0.00000000000E+00 0. -1.
         13    1    3    3    0    0  0.10985097723E+02 -0.41751617304E+02 -0.85227757412E+02  0.95538686159E+02  0.00000000000E+00 0. -1.
        -14    1    3    3    0    0 -0.23323821891E+02  0.98144477473E+01 -0.28747206140E+03  0.28858362763E+03  0.00000000000E+00 0.  1.
          5    1    4    4  501    0  0.90062374720E+02  0.16215331361E+02 -0.23941538047E+03  0.25634228117E+03  0.41800000000E+01 0.  1.
         -5    1    4    4    0  501 -0.41909348410E+02  0.16868932273E+02 -0.15707670390E+03  0.16349776043E+03  0.41800000000E+01 0.  1.
</event>
<event>
11    1  0.8328696E-009  0.1315994E+03  0.7561462E-02  0.1117319E+00
         22   -1    0    0    0    0  0.00000000000E+00  0.00000000000E+00  0.92950631962E+02  0.92950631962E+02  0.00000000000E+00 0. -1.
         22   -1    0    0    0    0 -0.00000000000E+00 -0.00000000000E+00 -0.71253916651E+03  0.71253916651E+03  0.00000000000E+00 0. -1.
         24    2    1    2    0    0 -0.53150493107E+02 -0.21957770128E+02 -0.51856984193E+03  0.52678226363E+03  0.72648150197E+02 0.  0.
         25    2    1    2    0    0  0.48620953373E+01  0.33310297878E+02 -0.12459946308E+03  0.17973800377E+03  0.12508999913E+03 0.  0.
        -24    2    1    2    0    0  0.48288397770E+02 -0.11352527750E+02  0.23580770458E+02  0.98969531079E+02  0.82330225926E+02 0.  0.
        -13    1    3    3    0    0 -0.54322232368E+02 -0.35225283634E+01 -0.18868438039E+03  0.19638001054E+03  0.00000000000E+00 0.  1.
         14    1    3    3    0    0  0.11717392610E+01 -0.18435241764E+02 -0.32988546154E+03  0.33040225309E+03  0.00000000000E+00 0. -1.
         13    1    5    5    0    0  0.35638038295E+02 -0.18924314064E+02  0.52674402339E+02  0.66353538700E+02  0.00000000000E+00 0. -1.
        -14    1    5    5    0    0  0.12650359475E+02  0.75717863136E+01 -0.29093631881E+02  0.32615992379E+02  0.00000000000E+00 0.  1.
          5    1    4    4  501    0  0.58263249250E+02  0.16776422031E+02 -0.25552797694E+02  0.65927781848E+02  0.41800000000E+01 0.  1.
         -5    1    4    4    0  501 -0.53401153913E+02  0.16533875847E+02 -0.99046665387E+02  0.11381022192E+03  0.41800000000E+01 0.  1.
</event>
<event>
11    1  0.8328696E-009  0.1298198E+03  0.7561462E-02  0.1119491E+00
         22   -1    0    0    0    0  0.00000000000E+00  0.00000000000E+00  0.24767903379E+03  0.24767903379E+03  0.00000000000E+00 0.  1.
         22   -1    0    0    0    0 -0.00000000000E+00 -0.00000000000E+00 -0.93551377885E+03  0.93551377885E+03  0.00000000000E+00 0. -1.
        -24    2    1    2    0    0 -0.16510032514E+02  0.43567067683E+01 -0.76592208180E+03  0.77032753713E+03  0.80475567823E+02 0.  0.
         25    2    1    2    0    0  0.29863856824E+02 -0.35789450965E+02 -0.13022620486E+03  0.18649135703E+03  0.12508967611E+03 0.  0.
         24    2    1    2    0    0 -0.13353824311E+02  0.31432744197E+02  0.20831354160E+03  0.22637391848E+03  0.81757429759E+02 0.  0.
        -11    1    5    5    0    0 -0.24946471398E+02  0.56066558555E+02  0.14253216529E+03  0.15518119592E+03  0.00000000000E+00 0.  1.
         12    1    5    5    0    0  0.11592647087E+02 -0.24633814359E+02  0.65781376311E+02  0.71192722561E+02  0.00000000000E+00 0. -1.
         11    1    3    3    0    0  0.21747165339E+02  0.21997289687E+02 -0.51207341541E+03  0.51300682522E+03  0.00000000000E+00 0. -1.
        -12    1    3    3    0    0 -0.38257197853E+02 -0.17640582919E+02 -0.25384866639E+03  0.25732071191E+03  0.00000000000E+00 0.  1.
          5    1    4    4  501    0  0.40317981226E+02  0.38577076197E+02 -0.73015105098E+02  0.91991349542E+02  0.41800000000E+01 0.  1.
         -5    1    4    4    0  501 -0.10454124402E+02 -0.74366527162E+02 -0.57211099766E+02  0.94500007490E+02  0.41800000000E+01 0.  1.
</event>
<event>
11    1  0.8328696E-009  0.1728385E+03  0.7561462E-02  0.1075588E+00
         22   -1    0    0    0    0  0.00000000000E+00  0.00000000000E+00  0.59450764086E+03  0.59450764086E+03  0.00000000000E+00 0. -1.
         22   -1    0    0    0    0 -0.00000000000E+00 -0.00000000000E+00 -0.99823089261E+03  0.99823089261E+03  0.00000000000E+00 0. -1.
        -24    2    1    2    0    0 -0.87969977691E+02  0.14196743999E+02 -0.94679199325E+03  0.95422995905E+03  0.78736724245E+02 0.  0.
         25    2    1    2    0    0 -0.48291177651E+02 -0.63685969135E+02  0.14407661186E+03  0.20686746229E+03  0.12509251123E+03 0.  0.
         24    2    1    2    0    0  0.13626115534E+03  0.49489225136E+02  0.39899212965E+03  0.43164111213E+03  0.78121983455E+02 0.  0.
        -11    1    5    5    0    0 -0.63208853440E+01  0.15473632011E+02  0.26338826400E+02  0.31194881876E+02  0.00000000000E+00 0.  1.
         12    1    5    5    0    0  0.14258204069E+03  0.34015593125E+02  0.37265330325E+03  0.40044623026E+03  0.00000000000E+00 0. -1.
         13    1    3    3    0    0 -0.67467208418E+02  0.28474551280E+02 -0.87787361020E+03  0.88092264119E+03  0.00000000000E+00 0. -1.
        -14    1    3    3    0    0 -0.20502769273E+02 -0.14277807281E+02 -0.68918383057E+02  0.73307317860E+02  0.00000000000E+00 0.  1.
          5    1    4    4  501    0 -0.54768696018E+01 -0.94517858466E+02  0.10221154945E+03  0.13938541857E+03  0.41800000000E+01 0.  1.
         -5    1    4    4    0  501 -0.42814308049E+02  0.30831889331E+02  0.41865062409E+02  0.67482043715E+02  0.41800000000E+01 0.  1.
</event>
<event>
11    1  0.8328696E-009  0.8754883E+03  0.7561462E-02  0.8807391E-01
         22   -1    0    0    0    0  0.00000000000E+00  0.00000000000E+00  0.18454571377E+04  0.18454571377E+04  0.00000000000E+00 0.  1.
         22   -1    0    0    0    0 -0.00000000000E+00 -0.00000000000E+00 -0.67779038420E+03  0.67779038420E+03  0.00000000000E+00 0.  1.
        -24    2    1    2    0    0  0.35029555378E+02  0.71602161743E+02 -0.23498424052E+03  0.26147235851E+03  0.82439442339E+02 0.  0.
         25    2    1    2    0    0  0.84452157949E+03 -0.14315675500E+03  0.87368166895E+03  0.12299084206E+04  0.12507801459E+03 0.  0.
         24    2    1    2    0    0 -0.87955113487E+03  0.71554593256E+02  0.52896932511E+03  0.10318667428E+04  0.78804627691E+02 0.  0.
        -13    1    5    5    0    0 -0.28635991358E+03  0.28874431047E+01  0.13611913452E+03  0.31707847013E+03  0.00000000000E+00 0.  1.
         14    1    5    5    0    0 -0.59319122129E+03  0.68667150152E+02  0.39285019059E+03  0.71478827269E+03  0.00000000000E+00 0. -1.
         11    1    3    3    0    0 -0.12069225591E+02 -0.11380046946E+02 -0.58974191789E+02  0.61262769869E+02  0.00000000000E+00 0. -1.
        -12    1    3    3    0    0  0.47098780968E+02  0.82982208689E+02 -0.17601004873E+03  0.20020958864E+03  0.00000000000E+00 0.  1.
          5    1    4    4  501    0  0.61052622840E+03 -0.54993129878E+02  0.66228822188E+03  0.90244649766E+03  0.41800000000E+01 0. -1.
         -5    1    4    4    0  501  0.23399535109E+03 -0.88163625121E+02  0.21139344707E+03  0.32746192297E+03  0.41800000000E+01 0. -1.
</event>
<event>
11    1  0.8328696E-009  0.1383533E+03  0.7561462E-02  0.1109411E+00
         22   -1    0    0    0    0  0.00000000000E+00  0.00000000000E+00  0.38077815508E+03  0.38077815508E+03  0.00000000000E+00 0. -1.
         22   -1    0    0    0    0 -0.00000000000E+00 -0.00000000000E+00 -0.75365110210E+03  0.75365110210E+03  0.00000000000E+00 0.  1.
         24    2    1    2    0    0  0.11203093106E+01  0.92750725663E+01 -0.62018539470E+03  0.62532421824E+03  0.79455472123E+02 0.  0.
         25    2    1    2    0    0 -0.38370795146E+01  0.50295167329E+02 -0.86874540038E+02  0.16042972507E+03  0.12508470708E+03 0.  0.
        -24    2    1    2    0    0  0.27167702040E+01 -0.59570239895E+02  0.33418698773E+03  0.34867531387E+03  0.79608651637E+02 0.  0.
        -13    1    3    3    0    0 -0.10650228516E+02 -0.32139604531E+02 -0.36130508161E+03  0.36288805925E+03  0.00000000000E+00 0.  1.
         14    1    3    3    0    0  0.11770537826E+02  0.41414677097E+02 -0.25888031309E+03  0.26243615899E+03  0.00000000000E+00 0. -1.
         13    1    5    5    0    0 -0.23512426048E+02 -0.36007010569E+02  0.28460018413E+03  0.28783085970E+03  0.00000000000E+00 0. -1.
        -14    1    5    5    0    0  0.26229196252E+02 -0.23563229327E+02  0.49586803593E+02  0.60844454167E+02  0.00000000000E+00 0.  1.
          5    1    4    4  501    0  0.57508087230E+02  0.29200580295E+02 -0.65452625627E+02  0.91985719478E+02  0.41800000000E+01 0. -1.
         -5    1    4    4    0  501 -0.61345166744E+02  0.21094587034E+02 -0.21421914411E+02  0.68444005596E+02  0.41800000000E+01 0. -1.
</event>
<event>
11    1  0.8328696E-009  0.4820809E+03  0.7561462E-02  0.9434478E-01
         22   -1    0    0    0    0  0.00000000000E+00  0.00000000000E+00  0.18871410518E+04  0.18871410518E+04  0.00000000000E+00 0. -1.
         22   -1    0    0    0    0 -0.00000000000E+00 -0.00000000000E+00 -0.11360326551E+04  0.11360326551E+04  0.00000000000E+00 0.  1.
        -24    2    1    2    0    0 -0.52761150951E+02 -0.11019124104E+02 -0.46754335235E+03  0.47793436484E+03  0.83182393707E+02 0.  0.
         25    2    1    2    0    0  0.51523190629E+03  0.34466231316E+02 -0.52044138629E+03  0.74374580178E+03  0.12508694073E+03 0.  0.
         24    2    1    2    0    0 -0.46247075533E+03 -0.23447107211E+02  0.17390931354E+04  0.18014935402E+04  0.80654048824E+02 0.  0.
        -11    1    5    5    0    0 -0.15662044656E+03 -0.18201453609E+02  0.45781725327E+03  0.48420852387E+03  0.00000000000E+00 0.  1.
         12    1    5    5    0    0 -0.30585030877E+03 -0.52456536026E+01  0.12812758821E+04  0.13172850163E+04  0.00000000000E+00 0. -1.
         13    1    3    3    0    0  0.22335605822E+02 -0.40179578071E+01 -0.13936710011E+03  0.14120273321E+03  0.00000000000E+00 0. -1.
        -14    1    3    3    0    0 -0.75096756772E+02 -0.70011662973E+01 -0.32817625224E+03  0.33673163163E+03  0.00000000000E+00 0.  1.
          5    1    4    4  501    0  0.48278357707E+03  0.30163737676E+02 -0.52072372847E+03  0.71074644364E+03  0.41800000000E+01 0.  1.
         -5    1    4    4    0  501  0.32448329213E+02  0.43024936399E+01  0.28234217460E+00  0.32999358136E+02  0.41800000000E+01 0.  1.
</event>
<event>
11    1  0.8328696E-009  0.1408780E+03  0.7561462E-02  0.1106582E+00
         22   -1    0    0    0    0  0.00000000000E+00  0.00000000000E+00  0.27354959265E+03  0.27354959265E+03  0.00000000000E+00 0. -1.
         22   -1    0    0    0    0 -0.00000000000E+00 -0.00000000000E+00 -0.71089126259E+03  0.71089126259E+03  0.00000000000E+00 0.  1.
         24    2    1    2    0    0 -0.36942952149E+02  0.54213919803E+02 -0.55513930398E+03  0.56479079004E+03  0.80653945203E+02 0.  0.
         25    2    1    2    0    0  0.14060016877E+02 -0.61323702328E+02 -0.10881337912E+03  0.17733057455E+03  0.12508997023E+03 0.  0.
        -24    2    1    2    0    0  0.22882935272E+02  0.71097825252E+01  0.22661101317E+03  0.24231949064E+03  0.82413630678E+02 0.  0.
        -13    1    3    3    0    0 -0.16685238465E+02  0.47298681766E+02 -0.13353542298E+03  0.14264386306E+03  0.00000000000E+00 0.  1.
         14    1    3    3    0    0 -0.20257713684E+02  0.69152380371E+01 -0.42160388100E+03  0.42214692698E+03  0.00000000000E+00 0. -1.
         13    1    5    5    0    0  0.10590923414E+01 -0.25661874335E+02  0.17762055799E+03  0.17946786924E+03  0.00000000000E+00 0. -1.
        -14    1    5    5    0    0  0.21823842931E+02  0.32771656860E+02  0.48990455182E+02  0.62851621399E+02  0.00000000000E+00 0.  1.
          5    1    4    4  501    0  0.56574708864E+02  0.66909971020E+01 -0.62269824752E+02  0.84501305315E+02  0.41800000000E+01 0.  1.
         -5    1    4    4    0  501 -0.42514691986E+02 -0.68014699430E+02 -0.46543554372E+02  0.92829269236E+02  0.41800000000E+01 0.  1.
</event>
<event>
11    1  0.8328696E-009  0.1745376E+03  0.7561462E-02  0.1074149E+00
         22   -1    0    0    0    0  0.00000000000E+00  0.00000000000E+00  0.17795271579E+03  0.17795271579E+03  0.00000000000E+00 0. -1.
         22   -1    0    0    0    0 -0.00000000000E+00 -0.00000000000E+00 -0.89731347759E+03  0.89731347759E+03  0.00000000000E+00 0.  1.
        -24    2    1    2    0    0  0.10199522431E+03  0.47538536666E+02 -0.64261621088E+03  0.65905155602E+03  0.93436720571E+02 0.  0.
         25    2    1    2    0    0 -0.17913650292E+03 -0.58168753706E+02 -0.16001498116E+03  0.27699022793E+03  0.12508117998E+03 0.  0.
         24    2    1    2    0    0  0.77141278610E+02  0.10630217040E+02  0.83270430246E+02  0.13922440943E+03  0.79910532767E+02 0.  0.
        -11    1    5    5    0    0  0.10896649104E+02 -0.13313454811E+02 -0.11829649631E+02  0.20878832608E+02  0.00000000000E+00 0.  1.
         12    1    5    5    0    0  0.66244629506E+02  0.23943671851E+02  0.95100079877E+02  0.11834557682E+03  0.00000000000E+00 0. -1.
         13    1    3    3    0    0  0.18519769462E+02  0.53091601688E+02 -0.16915220156E+03  0.17825309906E+03  0.00000000000E+00 0. -1.
        -14    1    3    3    0    0  0.83475454850E+02 -0.55530650220E+01 -0.47346400932E+03  0.48079845696E+03  0.00000000000E+00 0.  1.
          5    1    4    4  501    0 -0.12980911049E+03 -0.81200252312E+02 -0.16121530581E+03  0.22237745697E+03  0.41800000000E+01 0. -1.
         -5    1    4    4    0  501 -0.49327392437E+02  0.23031498606E+02  0.12003246473E+01  0.54612770960E+02  0.41800000000E+01 0. -1.
</event>
<event>
11    1  0.8328696E-009  0.2339403E+03  0.7561462E-02  0.1032820E+00
         22   -1    0    0    0    0  0.00000000000E+00  0.00000000000E+00  0.80315945816E+03  0.80315945816E+03  0.00000000000E+00 0. -1.
         22   -1    0    0    0    0 -0.00000000000E+00 -0.00000000000E+00 -0.72092242066E+03  0.72092242066E+03  0.00000000000E+00 0. -1.
        -24    2    1    2    0    0  0.17545342080E+03  0.13579857736E+03 -0.62441939419E+03  0.66771160395E+03  0.81939305130E+02 0.  0.
         25    2    1    2    0    0 -0.86100318512E+02 -0.41344481593E+02  0.26709900263E+02  0.15964109885E+03  0.12509688511E+03 0.  0.
         24    2    1    2    0    0 -0.89353102284E+02 -0.94454095767E+02  0.67994653142E+03  0.69672917602E+03  0.78731861634E+02 0.  0.
        -13    1    5    5    0    0 -0.70002916065E+01 -0.28747666759E+02  0.50520390644E+02  0.58546923894E+02  0.00000000000E+00 0.  1.
         14    1    5    5    0    0 -0.82352810677E+02 -0.65706429007E+02  0.62942614078E+03  0.63818225213E+03  0.00000000000E+00 0. -1.
         11    1    3    3    0    0  0.14984923103E+03  0.69010397928E+02 -0.43843616600E+03  0.46844796799E+03  0.00000000000E+00 0. -1.
        -12    1    3    3    0    0  0.25604189767E+02  0.66788179432E+02 -0.18598322819E+03  0.19926363595E+03  0.00000000000E+00 0.  1.
          5    1    4    4  501    0 -0.63180377926E+02  0.15844421466E+02 -0.33524305659E+02  0.73376817295E+02  0.41800000000E+01 0.  1.
         -5    1    4    4    0  501 -0.22919940586E+02 -0.57188903059E+02  0.60234205922E+02  0.86264281558E+02  0.41800000000E+01 0.  1.
</event>
<event>
11    1  0.8328696E-009  0.1293304E+03  0.7561462E-02  0.1120094E+00
         22   -1    0    0    0    0  0.00000000000E+00  0.00000000000E+00  0.26268470861E+03  0.26268470861E+03  0.00000000000E+00 0. -1.
         22   -1    0    0    0    0 -0.00000000000E+00 -0.00000000000E+00 -0.77244574414E+03  0.77244574414E+03  0.00000000000E+00 0. -1.
        -24    2    1    2    0    0 -0.22148529890E+02  0.26011235221E+02 -0.63321465513E+03  0.63921650872E+03  0.80435090701E+02 0.  0.
         25    2    1    2    0    0  0.57472754334E+01 -0.19825658407E+02 -0.97659366184E+02  0.16003838235E+03  0.12509534010E+03 0.  0.
         24    2    1    2    0    0  0.16401254457E+02 -0.61855768149E+01  0.22111298578E+03  0.23587556169E+03  0.80243788630E+02 0.  0.
        -11    1    5    5    0    0  0.38536258363E+02  0.17387163280E+02  0.73767174795E+02  0.85023248190E+02  0.00000000000E+00 0.  1.
         12    1    5    5    0    0 -0.22135003906E+02 -0.23572740095E+02  0.14734581098E+03  0.15085231350E+03  0.00000000000E+00 0. -1.
         13    1    3    3    0    0  0.10659106150E+02  0.43999508080E+02 -0.44654482161E+03  0.44883387903E+03  0.00000000000E+00 0. -1.
        -14    1    3    3    0    0 -0.32807636041E+02 -0.17988272859E+02 -0.18666983352E+03  0.19038262969E+03  0.00000000000E+00 0.  1.
          5    1    4    4  501    0  0.39620383372E+02  0.40850993651E+02 -0.40709275380E+02  0.70094906825E+02  0.41800000000E+01 0. -1.
         -5    1    4    4    0  501 -0.33873107939E+02 -0.60676652057E+02 -0.56950090804E+02  0.89943475521E+02  0.41800000000E+01 0. -1.
</event>
<event>
11    1  0.8328696E-009  0.1302337E+03  0.7561462E-02  0.1118982E+00
         22   -1    0    0    0    0  0.00000000000E+00  0.00000000000E+00  0.51800659354E+03  0.51800659354E+03  0.00000000000E+00 0. -1.
         22   -1    0    0    0    0 -0.00000000000E+00 -0.00000000000E+00 -0.53470296362E+03  0.53470296362E+03  0.00000000000E+00 0.  1.
        -24    2    1    2    0    0  0.35855266832E+02  0.85242802655E+01 -0.44667326647E+03  0.45514175042E+03  0.79238516431E+02 0.  0.
         25    2    1    2    0    0 -0.21353423034E+02 -0.42061682055E+02 -0.22868949281E+02  0.13562925980E+03  0.12508858261E+03 0.  0.
         24    2    1    2    0    0 -0.14501843798E+02  0.33537401790E+02  0.45284584567E+03  0.46193854694E+03  0.83563152251E+02 0.  0.
        -11    1    5    5    0    0  0.11687951876E+02  0.92236409454E+00  0.60579276751E+01  0.13196873202E+02  0.00000000000E+00 0.  1.
         12    1    5    5    0    0 -0.26189795674E+02  0.32615037695E+02  0.44678791799E+03  0.44874167373E+03  0.00000000000E+00 0. -1.
         13    1    3    3    0    0  0.62559525337E+01 -0.20364254906E+02 -0.32196216994E+02  0.38606168014E+02  0.00000000000E+00 0. -1.
        -14    1    3    3    0    0  0.29599314298E+02  0.28888535172E+02 -0.41447704947E+03  0.41653558241E+03  0.00000000000E+00 0.  1.
          5    1    4    4  501    0 -0.55295583204E+02  0.16938016162E+02 -0.32954148669E+02  0.66692924871E+02  0.41800000000E+01 0.  1.
         -5    1    4    4    0  501  0.33942160170E+02 -0.58999698217E+02  0.10085199388E+02  0.68936334929E+02  0.41800000000E+01 0.  1.
</event>
<event>
11    1  0.8328696E-009  0.3311833E+03  0.7561462E-02  0.9877942E-01
         22   -1    0    0    0    0  0.00000000000E+00  0.00000000000E+00  0.77954816974E+03  0.77954816974E+03  0.00000000000E+00 0. -1.
         22   -1    0    0    0    0 -0.00000000000E+00 -0.00000000000E+00 -0.26617189255E+03  0.26617189255E+03  0.00000000000E+00 0. -1.
         24    2    1    2    0    0 -0.59511968178E+02 -0.24464770214E+03  0.12454388480E+03  0.29224269408E+03  0.80625309183E+02 0.  0.
         25    2    1    2    0    0  0.36092617172E+02  0.36613180073E+03  0.60313303931E+02  0.39324368502E+03  0.12509088159E+03 0.  0.
        -24    2    1    2    0    0  0.23419351006E+02 -0.12148409858E+03  0.32851908846E+03  0.36023368319E+03  0.80849630894E+02 0.  0.
        -13    1    3    3    0    0 -0.37104173931E+01 -0.59848906656E+02 -0.43577525109E+01  0.60121949670E+02  0.00000000000E+00 0.  1.
         14    1    3    3    0    0 -0.55801550785E+02 -0.18479879549E+03  0.12890163731E+03  0.23212074441E+03  0.00000000000E+00 0. -1.
         11    1    5    5    0    0 -0.25300429316E+02 -0.15011975098E+02  0.86767593463E+02  0.91619246860E+02  0.00000000000E+00 0. -1.
        -12    1    5    5    0    0  0.48719780322E+02 -0.10647212348E+03  0.24175149499E+03  0.26861443633E+03  0.00000000000E+00 0.  1.
          5    1    4    4  501    0  0.45616335151E+02  0.35914096547E+02  0.94485831818E+01  0.58969657346E+02  0.41800000000E+01 0.  1.
         -5    1    4    4    0  501 -0.95237179784E+01  0.33021770418E+03  0.50864720749E+02  0.33427402767E+03  0.41800000000E+01 0.  1.
</event>
<event>
11    1  0.8328696E-009  0.3396161E+03  0.7561462E-02  0.9846919E-01
         22   -1    0    0    0    0  0.00000000000E+00  0.00000000000E+00  0.12824185777E+04  0.12824185777E+04  0.00000000000E+00 0. -1.
         22   -1    0    0    0    0 -0.00000000000E+00 -0.00000000000E+00 -0.15120331779E+03  0.15120331779E+03  0.00000000000E+00 0.  1.
        -24    2    1    2    0    0 -0.58111990544E+02  0.34442755468E+02  0.30058857231E+02  0.10907055769E+03  0.80184442429E+02 0.  0.
         25    2    1    2    0    0  0.30870965915E+03 -0.19342989462E+03  0.38143469864E+03  0.54208457495E+03  0.12508588767E+03 0.  0.
         24    2    1    2    0    0 -0.25059766861E+03  0.15898713915E+03  0.71972170408E+03  0.78246676289E+03  0.78605354630E+02 0.  0.
        -11    1    5    5    0    0 -0.57751863482E+01 -0.21670573632E+01  0.63058517135E+02  0.63359494144E+02  0.00000000000E+00 0.  1.
         12    1    5    5    0    0 -0.24482248226E+03  0.16115419651E+03  0.65666318694E+03  0.71910726874E+03  0.00000000000E+00 0. -1.
         13    1    3    3    0    0 -0.65268529433E+02 -0.16891542260E+01  0.71189327135E+01  0.65677342968E+02  0.00000000000E+00 0. -1.
        -14    1    3    3    0    0  0.71565388897E+01  0.36131909694E+02  0.22939924518E+02  0.43393214722E+02  0.00000000000E+00 0.  1.
          5    1    4    4  501    0  0.27926924379E+02 -0.65268275767E+02  0.11029347908E+03  0.13123256019E+03  0.41800000000E+01 0.  1.
         -5    1    4    4    0  501  0.28078273477E+03 -0.12816161885E+03  0.27114121956E+03  0.41085201476E+03  0.41800000000E+01 0.  1.
</event>
<event>
11    1  0.8328696E-009  0.2551883E+03  0.7561462E-02  0.1021171E+00
         22   -1    0    0    0    0  0.00000000000E+00  0.00000000000E+00  0.82242802743E+03  0.82242802743E+03  0.00000000000E+00 0.  1.
         22   -1    0    0    0    0 -0.00000000000E+00 -0.00000000000E+00 -0.26443960592E+03  0.26443960592E+03  0.00000000000E+00 0. -1.
         24    2    1    2    0    0  0.17657024115E+03 -0.12210094826E+03 -0.12454192562E+03  0.26076832481E+03  0.80023348864E+02 0.  0.
         25    2    1    2    0    0 -0.19447387727E+03  0.17122993317E+03  0.24338541100E+03  0.37686056122E+03  0.12509054864E+03 0.  0.
        -24    2    1    2    0    0  0.17903636128E+02 -0.49128984909E+02  0.43914493614E+03  0.44923874732E+03  0.78949222990E+02 0.  0.
        -11    1    3    3    0    0  0.13988616568E+03 -0.55152204712E+02 -0.64369228342E+02  0.16356436834E+03  0.00000000000E+00 0.  1.
         12    1    3    3    0    0  0.36684075462E+02 -0.66948743550E+02 -0.60172697280E+02  0.97203956470E+02  0.00000000000E+00 0. -1.
         13    1    5    5    0    0 -0.23059067076E+02  0.79900442581E+01  0.11451221669E+03  0.11708376981E+03  0.00000000000E+00 0. -1.
        -14    1    5    5    0    0  0.40962703203E+02 -0.57119029167E+02  0.32463271945E+03  0.33215497750E+03  0.00000000000E+00 0.  1.
          5    1    4    4  501    0 -0.10933270744E+03  0.12425576043E+03  0.22246012986E+03  0.27730689983E+03  0.41800000000E+01 0.  1.
         -5    1    4    4    0  501 -0.85141169837E+02  0.46974172743E+02  0.20925281144E+02  0.99553661395E+02  0.41800000000E+01 0.  1.
</event>
<event>
11    1  0.8328696E-009  0.1491683E+03  0.7561462E-02  0.1097732E+00
         22   -1    0    0    0    0  0.00000000000E+00  0.00000000000E+00  0.24092393031E+03  0.24092393031E+03  0.00000000000E+00 0.  1.
         22   -1    0    0    0    0 -0.00000000000E+00 -0.00000000000E+00 -0.76885004982E+03  0.76885004982E+03  0.00000000000E+00 0. -1.
        -24    2    1    2    0    0 -0.24588050681E+02 -0.61046142334E+02 -0.59652462696E+03  0.60576535100E+03  0.82333627239E+02 0.  0.
         25    2    1    2    0    0  0.53809778638E+02 -0.19992981184E+02 -0.11915520388E+03  0.18204563513E+03  0.12508972414E+03 0.  0.
         24    2    1    2    0    0 -0.29221727957E+02  0.81039123518E+02  0.18775371132E+03  0.22196299400E+03  0.81208778236E+02 0.  0.
        -11    1    5    5    0    0 -0.29379454621E+02  0.80139227396E+02  0.89394186257E+02  0.12359922596E+03  0.00000000000E+00 0.  1.
         12    1    5    5    0    0  0.15772666446E+00  0.89989612142E+00  0.98359525068E+02  0.98363768036E+02  0.00000000000E+00 0. -1.
         11    1    3    3    0    0 -0.45770139851E+02 -0.57752428590E+02 -0.54499959805E+03  0.54995891718E+03  0.00000000000E+00 0. -1.
        -12    1    3    3    0    0  0.21182089170E+02 -0.32937137442E+01 -0.51525028910E+02  0.55806433822E+02  0.00000000000E+00 0.  1.
          5    1    4    4  501    0  0.37237676591E+02 -0.71664879391E+02 -0.87222299366E+02  0.11894411042E+03  0.41800000000E+01 0.  1.
         -5    1    4    4    0  501  0.16572102047E+02  0.51671898208E+02 -0.31932904513E+02  0.63101524715E+02  0.41800000000E+01 0.  1.
</event>
<event>
11    1  0.8328696E-009  0.1467722E+03  0.7561462E-02  0.1100223E+00
         22   -1    0    0    0    0  0.00000000000E+00  0.00000000000E+00  0.40680816097E+03  0.40680816097E+03  0.00000000000E+00 0. -1.
         22   -1    0    0    0    0 -0.00000000000E+00 -0.00000000000E+00 -0.13168170543E+03  0.13168170543E+03  0.00000000000E+00 0. -1.
        -24    2    1    2    0    0 -0.25229681349E+02  0.61573333797E+02 -0.36788904880E+02  0.11151443672E+03  0.81573487232E+02 0.  0.
         25    2    1    2    0    0  0.65616203185E+02 -0.11236470812E+03  0.14884388937E+03  0.23395158281E+03  0.12509007133E+03 0.  0.
         24    2    1    2    0    0 -0.40386521836E+02  0.50791374325E+02  0.16307147105E+03  0.19302384687E+03  0.80343424986E+02 0.  0.
        -11    1    5    5    0    0  0.43453648699E+01 -0.13408475311E+02  0.23805547535E+01  0.14294630004E+02  0.00000000000E+00 0.  1.
         12    1    5    5    0    0 -0.44731886706E+02  0.64199849636E+02  0.16069091629E+03  0.17872921686E+03  0.00000000000E+00 0. -1.
         13    1    3    3    0    0 -0.28918183872E+01  0.75288604601E+02 -0.39660694927E+02  0.85145213127E+02  0.00000000000E+00 0. -1.
        -14    1    3    3    0    0 -0.22337862962E+02 -0.13715270804E+02  0.28717900467E+01  0.26369223595E+02  0.00000000000E+00 0.  1.
          5    1    4    4  501    0  0.24092373968E+02 -0.61747462646E+01  0.11086923999E+03  0.11370149845E+03  0.41800000000E+01 0. -1.
         -5    1    4    4    0  501  0.41523829217E+02 -0.10618996186E+03  0.37974649380E+02  0.12025008436E+03  0.41800000000E+01 0. -1.
</event>
<event>
11    1  0.8328696E-009  0.1555687E+03  0.7561462E-02  0.1091321E+00
         22   -1    0    0    0    0  0.00000000000E+00  0.00000000000E+00  0.91598706138E+03  0.91598706138E+03  0.00000000000E+00 0. -1.
         22   -1    0    0    0    0 -0.00000000000E+00 -0.00000000000E+00 -0.64720814493E+03  0.64720814493E+03  0.00000000000E+00 0.  1.
        -24    2    1    2    0    0 -0.23072415351E+02 -0.69778850657E+02 -0.61843705150E+03  0.62797802939E+03  0.80564225160E+02 0.  0.
         25    2    1    2    0    0  0.10458269661E+03  0.68502018065E+02  0.48503626921E+03  0.51627103537E+03  0.12508210345E+03 0.  0.
         24    2    1    2    0    0 -0.81510281258E+02  0.12768325918E+01  0.40217969874E+03  0.41894614155E+03  0.84390776681E+02 0.  0.
        -13    1    5    5    0    0  0.13419805662E+02  0.32187897927E+01  0.15384120985E+02  0.20666953579E+02  0.00000000000E+00 0.  1.
         14    1    5    5    0    0 -0.94930086920E+02 -0.19419572009E+01  0.38679557776E+03  0.39827918798E+03  0.00000000000E+00 0. -1.
         13    1    3    3    0    0  0.62693355212E+01  0.10651964712E+02 -0.20464032400E+02  0.23907018680E+02  0.00000000000E+00 0. -1.
        -14    1    3    3    0    0 -0.29341750873E+02 -0.80430815368E+02 -0.59797301910E+03  0.60407101071E+03  0.00000000000E+00 0.  1.
          5    1    4    4  501    0  0.71707885135E+02 -0.13748596504E+02  0.32678511131E+03  0.33486866989E+03  0.41800000000E+01 0.  1.
         -5    1    4    4    0  501  0.32874811474E+02  0.82250614569E+02  0.15825115790E+03  0.18140236548E+03  0.41800000000E+01 0.  1.
</event>
<event>
11    1  0.8328696E-009  0.1452397E+03  0.7561462E-02  0.1101845E+00
         22   -1    0    0    0    0  0.00000000000E+00  0.00000000000E+00  0.26312452461E+03  0.26312452461E+03  0.00000000000E+00 0. -1.
         22   -1    0    0    0    0 -0.00000000000E+00 -0.00000000000E+00 -0.96313170731E+03  0.96313170731E+03  0.00000000000E+00 0.  1.
        -24    2    1    2    0    0  0.49570445873E+02 -0.56712363152E+02 -0.78135073027E+03  0.78906107026E+03  0.80217751536E+02 0.  0.
         25    2    1    2    0    0 -0.19523448777E+02  0.64919383344E+02 -0.13995811580E+03  0.19956665479E+03  0.12507151610E+03 0.  0.
         24    2    1    2    0    0 -0.30046997096E+02 -0.82070201917E+01  0.22130166337E+03  0.23762850688E+03  0.80763258092E+02 0.  0.
        -13    1    5    5    0    0  0.17630573004E+02 -0.29109038943E+02  0.75622264790E+02  0.82927077512E+02  0.00000000000E+00 0.  1.
         14    1    5    5    0    0 -0.47677570100E+02  0.20902018751E+02  0.14567939858E+03  0.15470142937E+03  0.00000000000E+00 0. -1.
         13    1    3    3    0    0  0.11579115200E+02  0.19672472443E+02 -0.11257845870E+03  0.11486945392E+03  0.00000000000E+00 0. -1.
        -14    1    3    3    0    0  0.37991330673E+02 -0.76384835596E+02 -0.66877227157E+03  0.67419161633E+03  0.00000000000E+00 0.  1.
          5    1    4    4  501    0  0.35142811731E+02  0.77487827807E+02 -0.73611448491E+02  0.11258551605E+03  0.41800000000E+01 0.  1.
         -5    1    4    4    0  501 -0.54666260508E+02 -0.12568444463E+02 -0.66346667308E+02  0.86981138743E+02  0.41800000000E+01 0.  1.
</event>
<event>
11    1  0.8328696E-009  0.1297160E+03  0.7561462E-02  0.1119618E+00
         22   -1    0    0    0    0  0.00000000000E+00  0.00000000000E+00  0.63380930735E+03  0.63380930735E+03  0.00000000000E+00 0.  1.
         22   -1    0    0    0    0 -0.00000000000E+00 -0.00000000000E+00 -0.73112347199E+03  0.73112347199E+03  0.00000000000E+00 0. -1.
         24    2    1    2    0    0 -0.30298806543E+02  0.16670077798E+02 -0.70084516482E+03  0.70684949293E+03  0.85184220522E+02 0.  0.
         25    2    1    2    0    0  0.16681552306E+02 -0.10996423179E+02  0.14605909320E+03  0.19334001635E+03  0.12509159726E+03 0.  0.
        -24    2    1    2    0    0  0.13617254237E+02 -0.56736546184E+01  0.45747190698E+03  0.46474327006E+03  0.80549000131E+02 0.  0.
        -11    1    3    3    0    0 -0.30650188942E+02 -0.13935054273E+02 -0.10603013230E+03  0.11124751132E+03  0.00000000000E+00 0.  1.
         12    1    3    3    0    0  0.35138239866E+00  0.30605132071E+02 -0.59481503252E+03  0.59560198160E+03  0.00000000000E+00 0. -1.
         11    1    5    5    0    0 -0.42380282158E+01 -0.38671354997E+02  0.14887447452E+03  0.15387346666E+03  0.00000000000E+00 0. -1.
        -12    1    5    5    0    0  0.17855282453E+02  0.32997700379E+02  0.30859743247E+03  0.31086980340E+03  0.00000000000E+00 0.  1.
          5    1    4    4  501    0  0.64331087936E+02  0.20237548475E+02  0.61982014960E+02  0.91691274513E+02  0.41800000000E+01 0. -1.
         -5    1    4    4    0  501 -0.47649535630E+02 -0.31233971655E+02  0.84077078245E+02  0.10164874184E+03  0.41800000000E+01 0. -1.
</event>
<event>
11    1  0.8328696E-009  0.1824313E+03  0.7561462E-02  0.1067693E+00
         22   -1    0    0    0    0  0.00000000000E+00  0.00000000000E+00  0.57982988828E+03  0.57982988828E+03  0.00000000000E+00 0.  1.
         22   -1    0    0    0    0 -0.00000000000E+00 -0.00000000000E+00 -0.85945090269E+03  0.85945090269E+03  0.00000000000E+00 0.  1.
        -24    2    1    2    0    0  0.77433907880E+02 -0.84631322425E+02 -0.71499635248E+03  0.72948810933E+03  0.88173957471E+02 0.  0.
         25    2    1    2    0    0 -0.18866949852E+03  0.13718096933E+03  0.15838054626E+02  0.26516778659E+03  0.12509321746E+03 0.  0.
         24    2    1    2    0    0  0.11123559064E+03 -0.52549646903E+02  0.41953728344E+03  0.44462489505E+03  0.80900822555E+02 0.  0.
        -11    1    5    5    0    0  0.88464379865E+02 -0.74463895169E+02  0.32796662482E+03  0.34775411598E+03  0.00000000000E+00 0.  1.
         12    1    5    5    0    0  0.22771210773E+02  0.21914248265E+02  0.91570658620E+02  0.96870779068E+02  0.00000000000E+00 0. -1.
         11    1    3    3    0    0  0.45494727979E+02 -0.39487614680E+02 -0.14784384231E+03  0.15964599493E+03  0.00000000000E+00 0. -1.
        -12    1    3    3    0    0  0.31939179902E+02 -0.45143707745E+02 -0.56715251017E+03  0.56984211440E+03  0.00000000000E+00 0.  1.
          5    1    4    4  501    0 -0.15753455239E+03  0.89989032856E+02 -0.39743791971E+02  0.18577460168E+03  0.41800000000E+01 0.  1.
         -5    1    4    4    0  501 -0.31134946131E+02  0.47191936473E+02  0.55581846597E+02  0.79393184907E+02  0.41800000000E+01 0.  1.
</event>
<event>
11    1  0.8328696E-009  0.3329399E+03  0.7561462E-02  0.9871399E-01
         22   -1    0    0    0    0  0.00000000000E+00  0.00000000000E+00  0.11245759724E+04  0.11245759724E+04  0.00000000000E+00 0. -1.
         22   -1    0    0    0    0 -0.00000000000E+00 -0.00000000000E+00 -0.51078914286E+03  0.51078914286E+03  0.00000000000E+00 0. -1.
         24    2    1    2    0    0  0.37908101876E+02  0.18065010753E+02 -0.28268821273E+03  0.29675437825E+03  0.79919750945E+02 0.  0.
         25    2    1    2    0    0 -0.65354304331E+02  0.29094913289E+03 -0.60903897388E+02  0.32906689337E+03  0.12511255960E+03 0.  0.
        -24    2    1    2    0    0  0.27446202455E+02 -0.30901414364E+03  0.95737893966E+03  0.10095438437E+04  0.79757778044E+02 0.  0.
        -13    1    3    3    0    0  0.13407078051E+02  0.44519974379E+02 -0.21594653588E+03  0.22089518831E+03  0.00000000000E+00 0.  1.
         14    1    3    3    0    0  0.24501023825E+02 -0.26454963626E+02 -0.66741676844E+02  0.75859189930E+02  0.00000000000E+00 0. -1.
         13    1    5    5    0    0  0.23971654986E+02 -0.19039453694E+03  0.70511505939E+03  0.73076122428E+03  0.00000000000E+00 0. -1.
        -14    1    5    5    0    0  0.34745474683E+01 -0.11861960671E+03  0.25226388027E+03  0.27878261938E+03  0.00000000000E+00 0.  1.
          5    1    4    4  501    0  0.24063976452E+02  0.78580082210E+02 -0.54144183106E+02  0.98503650933E+02  0.41800000000E+01 0. -1.
         -5    1    4    4    0  501 -0.89418280783E+02  0.21236905068E+03 -0.67597142811E+01  0.23056324244E+03  0.41800000000E+01 0. -1.
</event>
<event>
11    1  0.8328696E-009  0.1598840E+03  0.7561462E-02  0.1087186E+00
         22   -1    0    0    0    0  0.00000000000E+00  0.00000000000E+00  0.82029817504E+03  0.82029817504E+03  0.00000000000E+00 0. -1.
         22   -1    0    0    0    0 -0.00000000000E+00 -0.00000000000E+00 -0.26557188434E+03  0.26557188434E+03  0.00000000000E+00 0.  1.
         24    2    1    2    0    0  0.61248851551E+02  0.76478862014E+02 -0.19780563370E+03  0.23285350160E+03  0.74116437672E+02 0.  0.
         25    2    1    2    0    0 -0.57276796203E+02 -0.99119040488E+02  0.10354102017E+03  0.19867912687E+03  0.12508971591E+03 0.  0.
        -24    2    1    2    0    0 -0.39720553482E+01  0.22640178474E+02  0.64899090422E+03  0.65433743090E+03  0.80249142143E+02 0.  0.
        -13    1    3    3    0    0  0.78448626916E+02  0.62986804702E+02 -0.16921231422E+03  0.19686119961E+03  0.00000000000E+00 0.  1.
         14    1    3    3    0    0 -0.17199775365E+02  0.13492057312E+02 -0.28593319480E+02  0.35992301983E+02  0.00000000000E+00 0. -1.
         13    1    5    5    0    0 -0.23819159544E+01  0.39409886231E+02  0.15145802923E+03  0.15651947890E+03  0.00000000000E+00 0. -1.
        -14    1    5    5    0    0 -0.15901393938E+01 -0.16769707758E+02  0.49753287500E+03  0.49781795201E+03  0.00000000000E+00 0.  1.
          5    1    4    4  501    0  0.18179355455E+02 -0.12896311501E+02  0.77980194749E+02  0.81210756604E+02  0.41800000000E+01 0.  1.
         -5    1    4    4    0  501 -0.75456151658E+02 -0.86222728987E+02  0.25560825424E+02  0.11746837027E+03  0.41800000000E+01 0.  1.
</event>
<event>
11    1  0.8328696E-009  0.1752226E+03  0.7561462E-02  0.1073574E+00
         22   -1    0    0    0    0  0.00000000000E+00  0.00000000000E+00  0.29168830508E+03  0.29168830508E+03  0.00000000000E+00 0.  1.
         22   -1    0    0    0    0 -0.00000000000E+00 -0.00000000000E+00 -0.79053404171E+03  0.79053404171E+03  0.00000000000E+00 0. -1.
        -24    2    1    2    0    0  0.93309773705E+02  0.89579778048E+02 -0.58098741180E+03  0.60026423627E+03  0.77714414150E+02 0.  0.
         25    2    1    2    0    0 -0.86586188313E+02 -0.52678657488E+02 -0.15789186403E+03  0.22549882128E+03  0.12509064198E+03 0.  0.
         24    2    1    2    0    0 -0.67235853918E+01 -0.36901120560E+02  0.24003353920E+03  0.25645928925E+03  0.82148449768E+02 0.  0.
        -11    1    5    5    0    0 -0.61438481748E+01 -0.46539312544E+02  0.24207974110E+03  0.24658924456E+03  0.00000000000E+00 0.  1.
         12    1    5    5    0    0 -0.57973721699E+00  0.96381919843E+01 -0.20462018928E+01  0.98700446885E+01  0.00000000000E+00 0. -1.
         11    1    3    3    0    0  0.67695062390E+02  0.45931022254E+02 -0.48401584963E+03  0.49088045690E+03  0.00000000000E+00 0. -1.
        -12    1    3    3    0    0  0.25614711314E+02  0.43648755793E+02 -0.96971562175E+02  0.10938377937E+03  0.00000000000E+00 0.  1.
          5    1    4    4  501    0 -0.90769949174E+02 -0.21274081626E+02 -0.16783078984E+03  0.19203233227E+03  0.41800000000E+01 0. -1.
         -5    1    4    4    0  501  0.41837608615E+01 -0.31404575862E+02  0.99389258066E+01  0.33466489004E+02  0.41800000000E+01 0. -1.
</event>
<event>
11    1  0.8328696E-009  0.1359288E+03  0.7561462E-02  0.1112192E+00
         22   -1    0    0    0    0  0.00000000000E+00  0.00000000000E+00  0.47403945184E+02  0.47403945184E+02  0.00000000000E+00 0. -1.
         22   -1    0    0    0    0 -0.00000000000E+00 -0.00000000000E+00 -0.14514624127E+04  0.14514624127E+04  0.00000000000E+00 0. -1.
         24    2    1    2    0    0  0.36104878029E+02 -0.27525531128E+02 -0.10150818041E+04  0.10194016056E+04  0.82020407473E+02 0.  0.
         25    2    1    2    0    0  0.23361114798E+02  0.25941133794E+02 -0.34578610981E+03  0.36936940330E+03  0.12508812196E+03 0.  0.
        -24    2    1    2    0    0 -0.59465992827E+02  0.15843973333E+01 -0.43190553604E+02  0.11009534905E+03  0.81956374644E+02 0.  0.
        -13    1    3    3    0    0  0.43911967449E+01 -0.11229910386E+01 -0.12111830240E+01  0.46915543313E+01  0.00000000000E+00 0.  1.
         14    1    3    3    0    0  0.31713681284E+02 -0.26402540089E+02 -0.10138706211E+04  0.10147100512E+04  0.00000000000E+00 0. -1.
         11    1    5    5    0    0 -0.14702388680E+02  0.27582807881E+02  0.12858934777E+02  0.33798279942E+02  0.00000000000E+00 0. -1.
        -12    1    5    5    0    0 -0.44763604147E+02 -0.25998410547E+02 -0.56049488381E+02  0.76297069111E+02  0.00000000000E+00 0.  1.
          5    1    4    4  501    0  0.46360237817E+02  0.66603213933E+02 -0.18923307163E+03  0.20594146634E+03  0.41800000000E+01 0.  1.
         -5    1    4    4    0  501 -0.22999123020E+02 -0.40662080138E+02 -0.15655303817E+03  0.16342793697E+03  0.41800000000E+01 0.  1.
</event>
<event>
11    1  0.8328696E-009  0.1462579E+03  0.7561462E-02  0.1100765E+00
         22   -1    0    0    0    0  0.00000000000E+00  0.00000000000E+00  0.12829538238E+04  0.12829538238E+04  0.00000000000E+00 0.  1.
         22   -1    0    0    0    0 -0.00000000000E+00 -0.00000000000E+00 -0.28779639581E+03  0.28779639581E+03  0.00000000000E+00 0.  1.
         24    2    1    2    0    0  0.15821005342E+02 -0.81042591894E+02 -0.25603708703E+03  0.27764627567E+03  0.68660458391E+02 0.  0.
         25    2    1    2    0    0 -0.50350482823E+02  0.12621101314E+01  0.24390031622E+03  0.27869584062E+03  0.12508894149E+03 0.  0.
        -24    2    1    2    0    0  0.34529477481E+02  0.79780481762E+02  0.10072941988E+04  0.10144081033E+04  0.82613480075E+02 0.  0.
        -11    1    3    3    0    0  0.15481413205E+02 -0.71791045898E+02 -0.25794298205E+03  0.26819435195E+03  0.00000000000E+00 0.  1.
         12    1    3    3    0    0  0.33959213630E+00 -0.92515459959E+01  0.19058950252E+01  0.94519237185E+01  0.00000000000E+00 0. -1.
         11    1    5    5    0    0 -0.26201265702E+02  0.11933908990E+02  0.22671618748E+03  0.22853698645E+03  0.00000000000E+00 0. -1.
        -12    1    5    5    0    0  0.60730743184E+02  0.67846572772E+02  0.78057801133E+03  0.78587111690E+03  0.00000000000E+00 0.  1.
          5    1    4    4  501    0 -0.82255698556E+02 -0.63467745356E+01  0.22699738643E+03  0.24156069080E+03  0.41800000000E+01 0. -1.
         -5    1    4    4    0  501  0.31905215733E+02  0.76088846671E+01  0.16902929788E+02  0.37135149822E+02  0.41800000000E+01 0. -1.
</event>
<event>
11    1  0.8328696E-009  0.1342401E+03  0.7561462E-02  0.1114166E+00
         22   -1    0    0    0    0  0.00000000000E+00  0.00000000000E+00  0.52004950958E+03  0.52004950958E+03  0.00000000000E+00 0.  1.
         22   -1    0    0    0    0 -0.00000000000E+00 -0.00000000000E+00 -0.11592078407E+04  0.11592078407E+04  0.00000000000E+00 0. -1.
        -24    2    1    2    0    0  0.26383974186E+02  0.11378400565E+02 -0.10456266764E+04  0.10491648524E+04  0.81155153258E+02 0.  0.
         25    2    1    2    0    0 -0.60605663606E+02  0.22589858753E+02 -0.60819888510E+02  0.15340460411E+03  0.12510222039E+03 0.  0.
         24    2    1    2    0    0  0.34221689420E+02 -0.33968259318E+02  0.46728823386E+03  0.47668789375E+03  0.80920256328E+02 0.  0.
        -11    1    5    5    0    0  0.45642187125E+02 -0.51299882989E+02  0.41096556434E+03  0.41666243208E+03  0.00000000000E+00 0.  1.
         12    1    5    5    0    0 -0.11420497705E+02  0.17331623671E+02  0.56322669519E+02  0.60025461670E+02  0.00000000000E+00 0. -1.
         13    1    3    3    0    0  0.14921511136E+02 -0.84644010630E+01 -0.96978677753E+03  0.96993849880E+03  0.00000000000E+00 0. -1.
        -14    1    3    3    0    0  0.11462463050E+02  0.19842801628E+02 -0.75839898908E+02  0.79226353583E+02  0.00000000000E+00 0.  1.
          5    1    4    4  501    0 -0.82211290204E+02  0.34898580892E+02 -0.20266983553E+01  0.89432584059E+02  0.41800000000E+01 0.  1.
         -5    1    4    4    0  501  0.21605626597E+02 -0.12308722140E+02 -0.58793190154E+02  0.63972020055E+02  0.41800000000E+01 0.  1.
</event>
<event>
11    1  0.8328696E-009  0.2256433E+03  0.7561462E-02  0.1037739E+00
         22   -1    0    0    0    0  0.00000000000E+00  0.00000000000E+00  0.21297173520E+03  0.21297173520E+03  0.00000000000E+00 0. -1.
         22   -1    0    0    0    0 -0.00000000000E+00 -0.00000000000E+00 -0.13320568190E+04  0.13320568190E+04  0.00000000000E+00 0. -1.
        -24    2    1    2    0    0 -0.12270244929E+03 -0.15048360319E+02 -0.70529667084E+03  0.72123387209E+03  0.86328211721E+02 0.  0.
         25    2    1    2    0    0 -0.60473187170E+02  0.90330274580E+02 -0.54716943773E+03  0.57171557729E+03  0.12509093832E+03 0.  0.
         24    2    1    2    0    0  0.18317563646E+03 -0.75281914261E+02  0.13338102473E+03  0.25207910487E+03  0.80825100976E+02 0.  0.
        -13    1    5    5    0    0 -0.50823906327E+01  0.17232468995E+01 -0.39466565805E+01  0.66615593208E+01  0.00000000000E+00 0.  1.
         14    1    5    5    0    0  0.18825802710E+03 -0.77005161160E+02  0.13732768131E+03  0.24541754555E+03  0.00000000000E+00 0. -1.
         11    1    3    3    0    0 -0.42281099643E+02 -0.19427805353E+02 -0.96497418334E+02  0.10713021401E+03  0.00000000000E+00 0. -1.
        -12    1    3    3    0    0 -0.80421349651E+02  0.43794450338E+01 -0.60879925250E+03  0.61410365808E+03  0.00000000000E+00 0.  1.
          5    1    4    4  501    0 -0.88786959611E+02  0.96524909392E+02 -0.49270115995E+03  0.50987458041E+03  0.41800000000E+01 0. -1.
         -5    1    4    4    0  501  0.28313772441E+02 -0.61946348125E+01 -0.54468277785E+02  0.61840996880E+02  0.41800000000E+01 0. -1.
</event>
<event>
11    1  0.8328696E-009  0.1620293E+03  0.7561462E-02  0.1085184E+00
         22   -1    0    0    0    0  0.00000000000E+00  0.00000000000E+00  0.13306131961E+04  0.13306131961E+04  0.00000000000E+00 0. -1.
         22   -1    0    0    0    0 -0.00000000000E+00 -0.00000000000E+00 -0.17241039566E+03  0.17241039566E+03  0.00000000000E+00 0.  1.
         24    2    1    2    0    0 -0.12547394135E+02  0.11611593049E+03 -0.68909657913E+02  0.15748913230E+03  0.80087074012E+02 0.  0.
         25    2    1    2    0    0 -0.14148161567E+02 -0.75001189760E+02  0.36403681753E+02  0.15098317022E+03  0.12508133635E+03 0.  0.
        -24    2    1    2    0    0  0.26695555702E+02 -0.41114740734E+02  0.11907087766E+04  0.11945512892E+04  0.82233310736E+02 0.  0.
        -11    1    3    3    0    0  0.22072737046E+02  0.57170793705E+02 -0.64523380876E+02  0.88988606311E+02  0.00000000000E+00 0.  1.
         12    1    3    3    0    0 -0.34620131181E+02  0.58945136789E+02 -0.43862770373E+01  0.68500525986E+02  0.00000000000E+00 0. -1.
         11    1    5    5    0    0  0.88336840141E+01 -0.19742713213E+02  0.10855750491E+04  0.10857904935E+04  0.00000000000E+00 0. -1.
        -12    1    5    5    0    0  0.17861871688E+02 -0.21372027521E+02  0.10513372750E+03  0.10876079568E+03  0.00000000000E+00 0.  1.
          5    1    4    4  501    0 -0.61366336017E+02 -0.16618204237E+02 -0.70912558352E+01  0.64107333570E+02  0.41800000000E+01 0.  1.
         -5    1    4    4    0  501  0.47218174450E+02 -0.58382985523E+02  0.43494937588E+02  0.86875836645E+02  0.41800000000E+01 0.  1.
</event>
<event>
11    1  0.8328696E-009  0.1351434E+03  0.7561462E-02  0.1113106E+00
         22   -1    0    0    0    0  0.00000000000E+00  0.00000000000E+00  0.66102164570E+03  0.66102164570E+03  0.00000000000E+00 0.  1.
         22   -1    0    0    0    0 -0.00000000000E+00 -0.00000000000E+00 -0.78512343464E+03  0.78512343464E+03  0.00000000000E+00 0. -1.
        -24    2    1    2    0    0 -0.13035130895E+02  0.11218715775E+02 -0.51483826725E+03  0.52129788354E+03  0.79982921555E+02 0.  0.
         25    2    1    2    0    0 -0.37223132236E+02 -0.21532032449E+02 -0.24655752959E+03  0.27979795967E+03  0.12508834015E+03 0.  0.
         24    2    1    2    0    0  0.50258263132E+02  0.10313316673E+02  0.63729400789E+03  0.64504923713E+03  0.85513790177E+02 0.  0.
        -11    1    5    5    0    0  0.26701107955E+02  0.31732895040E+02  0.55889557856E+03  0.56043214890E+03  0.00000000000E+00 0.  1.
         12    1    5    5    0    0  0.23557155177E+02 -0.21419578366E+02  0.78398429334E+02  0.84617088224E+02  0.00000000000E+00 0. -1.
         11    1    3    3    0    0  0.23508636956E+01  0.26894459973E+02 -0.47531620490E+03  0.47608227564E+03  0.00000000000E+00 0. -1.
        -12    1    3    3    0    0 -0.15385994591E+02 -0.15675744198E+02 -0.39522062349E+02  0.45215607903E+02  0.00000000000E+00 0.  1.
          5    1    4    4  501    0 -0.68121838281E+02  0.43153136041E+01 -0.67029187976E+02  0.95757982556E+02  0.41800000000E+01 0.  1.
         -5    1    4    4    0  501  0.30898706045E+02 -0.25847346053E+02 -0.17952834161E+03  0.18403997711E+03  0.41800000000E+01 0.  1.
</event>
<event>
11    1  0.8328696E-009  0.1261024E+03  0.7561462E-02  0.1124153E+00
         22   -1    0    0    0    0  0.00000000000E+00  0.00000000000E+00  0.72161329722E+02  0.72161329722E+02  0.00000000000E+00 0. -1.
         22   -1    0    0    0    0 -0.00000000000E+00 -0.00000000000E+00 -0.19125096541E+04  0.19125096541E+04  0.00000000000E+00 0. -1.
         24    2    1    2    0    0  0.15338780492E+02  0.10057717787E+01 -0.14446778930E+04  0.14486534942E+04  0.10614349593E+03 0.  0.
         25    2    1    2    0    0 -0.15652578953E+02  0.29878495248E+02 -0.40992149968E+03  0.42990854146E+03  0.12509192783E+03 0.  0.
        -24    2    1    2    0    0  0.31379846069E+00 -0.30884267027E+02  0.14251068385E+02  0.10610894817E+03  0.10050910164E+03 0.  0.
        -11    1    3    3    0    0  0.26804672572E+02  0.35623124439E+02 -0.29061407526E+03  0.29401367010E+03  0.00000000000E+00 0.  1.
         12    1    3    3    0    0 -0.11465892079E+02 -0.34617352661E+02 -0.11540638178E+04  0.11546398241E+04  0.00000000000E+00 0. -1.
         13    1    5    5    0    0  0.42419789448E+02 -0.38817897417E+02  0.23766318294E+02  0.62218209408E+02  0.00000000000E+00 0. -1.
        -14    1    5    5    0    0 -0.42105990987E+02  0.79336303898E+01 -0.95152499090E+01  0.43890738761E+02  0.00000000000E+00 0.  1.
          5    1    4    4  501    0  0.50255358568E+02 -0.28677756024E+01 -0.22983351310E+03  0.23531838293E+03  0.41800000000E+01 0.  1.
         -5    1    4    4    0  501 -0.65907937521E+02  0.32746270851E+02 -0.18008798658E+03  0.19459015853E+03  0.41800000000E+01 0.  1.
</event>
<event>
11    1  0.8328696E-009  0.1552869E+03  0.7561462E-02  0.1091596E+00
         22   -1    0    0    0    0  0.00000000000E+00  0.00000000000E+00  0.93378141761E+02  0.93378141761E+02  0.00000000000E+00 0.  1.
         22   -1    0    0    0    0 -0.00000000000E+00 -0.00000000000E+00 -0.15850865496E+04  0.15850865496E+04  0.00000000000E+00 0.  1.
         24    2    1    2    0    0  0.85848998628E+02  0.35342991223E+02 -0.13809722675E+04  0.13859747279E+04  0.72265934670E+02 0.  0.
         25    2    1    2    0    0 -0.92232387266E+02  0.18968312551E+02 -0.11537959008E+03  0.19449022487E+03  0.12508951843E+03 0.  0.
        -24    2    1    2    0    0  0.63833886376E+01 -0.54311303774E+02  0.46434496739E+01  0.97999738610E+02  0.81190650783E+02 0.  0.
        -11    1    3    3    0    0  0.35734012083E+02 -0.11338826722E+02 -0.23630995006E+03  0.23926529441E+03  0.00000000000E+00 0.  1.
         12    1    3    3    0    0  0.50114986545E+02  0.46681817945E+02 -0.11446623174E+04  0.11467094335E+04  0.00000000000E+00 0. -1.
         11    1    5    5    0    0  0.16573947651E+02 -0.29583016732E+02 -0.35929644358E+02  0.49404351664E+02  0.00000000000E+00 0. -1.
        -12    1    5    5    0    0 -0.10190559013E+02 -0.24728287043E+02  0.40573094032E+02  0.48595386946E+02  0.00000000000E+00 0.  1.
          5    1    4    4  501    0 -0.11405650257E+03 -0.15710003593E+02 -0.80901193619E+02  0.14077700636E+03  0.41800000000E+01 0.  1.
         -5    1    4    4    0  501  0.21824115307E+02  0.34678316144E+02 -0.34478396459E+02  0.53713218503E+02  0.41800000000E+01 0.  1.
</event>
<event>
11    1  0.8328696E-009  0.1328662E+03  0.7561462E-02  0.1115797E+00
         22   -1    0    0    0    0  0.00000000000E+00  0.00000000000E+00  0.46162290783E+02  0.46162290783E+02  0.00000000000E+00 0. -1.
         22   -1    0    0    0    0 -0.00000000000E+00 -0.00000000000E+00 -0.70280476579E+03  0.70280476579E+03  0.00000000000E+00 0. -1.
        -24    2    1    2    0    0 -0.43403180495E+02 -0.18350029309E+02 -0.29532678591E+03  0.30984161778E+03  0.81014554135E+02 0.  0.
         25    2    1    2    0    0  0.44119856947E+02 -0.29880530443E+02 -0.24940238192E+03  0.28406033150E+03  0.12509722598E+03 0.  0.
         24    2    1    2    0    0 -0.71667645228E+00  0.48230559753E+02 -0.11191330718E+03  0.15506510729E+03  0.95884819738E+02 0.  0.
        -13    1    5    5    0    0 -0.29977810553E+02  0.16908148142E+02  0.85205669294E+00  0.34427904376E+02  0.00000000000E+00 0.  1.
         14    1    5    5    0    0  0.29261134101E+02  0.31322411611E+02 -0.11276536387E+03  0.12063720291E+03  0.00000000000E+00 0. -1.
         13    1    3    3    0    0 -0.63676826879E+02 -0.29360068045E+02 -0.23563413442E+03  0.24584588096E+03  0.00000000000E+00 0. -1.
        -14    1    3    3    0    0  0.20273646384E+02  0.11010038736E+02 -0.59692651486E+02  0.63995736827E+02  0.00000000000E+00 0.  1.
          5    1    4    4  501    0 -0.22138857662E+02 -0.30482692247E+02 -0.15558550688E+02  0.40973948366E+02  0.41800000000E+01 0. -1.
         -5    1    4    4    0  501  0.66258714609E+02  0.60216180354E+00 -0.23384383123E+03  0.24308638314E+03  0.41800000000E+01 0. -1.
</event>
<event>
11    1  0.8328696E-009  0.1544276E+03  0.7561462E-02  0.1092439E+00
         22   -1    0    0    0    0  0.00000000000E+00  0.00000000000E+00  0.56718654880E+03  0.56718654880E+03  0.00000000000E+00 0. -1.
         22   -1    0    0    0    0 -0.00000000000E+00 -0.00000000000E+00 -0.10617583545E+04  0.10617583545E+04  0.00000000000E+00 0.  1.
        -24    2    1    2    0    0  0.41442552743E+02  0.81193651867E+02 -0.10263356559E+04  0.10333273434E+04  0.78042460517E+02 0.  0.
         25    2    1    2    0    0 -0.18551340449E+02 -0.57699547596E+02  0.15122317833E+03  0.20540026447E+03  0.12508968364E+03 0.  0.
         24    2    1    2    0    0 -0.22891212295E+02 -0.23494104271E+02  0.38054067182E+03  0.39021729552E+03  0.79889638119E+02 0.  0.
        -13    1    5    5    0    0  0.24331397501E+02 -0.16730264587E+02  0.69106619482E+02  0.75150805144E+02  0.00000000000E+00 0.  1.
         14    1    5    5    0    0 -0.47222609795E+02 -0.67638396842E+01  0.31143405234E+03  0.31506649038E+03  0.00000000000E+00 0. -1.
         11    1    3    3    0    0 -0.12756040506E+02 -0.83535817953E+01 -0.11825839346E+03  0.11923735372E+03  0.00000000000E+00 0. -1.
        -12    1    3    3    0    0  0.54198593250E+02  0.89547233662E+02 -0.90807726245E+03  0.91408998963E+03  0.00000000000E+00 0.  1.
          5    1    4    4  501    0 -0.63986131599E+02 -0.66596641052E+02  0.97653372549E+02  0.13447301293E+03  0.41800000000E+01 0. -1.
         -5    1    4    4    0  501  0.45434791150E+02  0.88970934568E+01  0.53569805786E+02  0.70927251538E+02  0.41800000000E+01 0. -1.
</event>
<event>
11    1  0.8328696E-009  0.1283836E+03  0.7561462E-02  0.1121271E+00
         22   -1    0    0    0    0  0.00000000000E+00  0.00000000000E+00  0.41057647055E+03  0.41057647055E+03  0.00000000000E+00 0. -1.
         22   -1    0    0    0    0 -0.00000000000E+00 -0.00000000000E+00 -0.41983826118E+03  0.41983826118E+03  0.00000000000E+00 0. -1.
        -24    2    1    2    0    0  0.27780580177E+02 -0.25865991227E+02 -0.38355848601E+03  0.39387031857E+03  0.81091957171E+02 0.  0.
         25    2    1    2    0    0 -0.15811667981E+02 -0.10264698928E+02  0.15905909720E+03  0.20323184552E+03  0.12509202110E+03 0.  0.
         24    2    1    2    0    0 -0.11968912196E+02  0.36130690155E+02  0.21523759818E+03  0.23331256763E+03  0.81601770293E+02 0.  0.
        -13    1    5    5    0    0 -0.27695884262E+02 -0.96814156406E+00  0.20555136120E+02  0.34503810283E+02  0.00000000000E+00 0.  1.
         14    1    5    5    0    0  0.15726972065E+02  0.37098831719E+02  0.19468246206E+03  0.19880875735E+03  0.00000000000E+00 0. -1.
         13    1    3    3    0    0  0.41176232708E+02  0.16870192154E+02 -0.20591453595E+03  0.21066770431E+03  0.00000000000E+00 0. -1.
        -14    1    3    3    0    0 -0.13395652531E+02 -0.42736183381E+02 -0.17764395006E+03  0.18320261426E+03  0.00000000000E+00 0.  1.
          5    1    4    4  501    0  0.97302180373E+00 -0.47085194689E+02  0.94826058910E+01  0.48221930124E+02  0.41800000000E+01 0.  1.
         -5    1    4    4    0  501 -0.16784689785E+02  0.36820495761E+02  0.14957649131E+03  0.15500991540E+03  0.41800000000E+01 0.  1.
</event>
<event>
11    1  0.8328696E-009  0.2677613E+03  0.7561462E-02  0.1014841E+00
         22   -1    0    0    0    0  0.00000000000E+00  0.00000000000E+00  0.13364623527E+04  0.13364623527E+04  0.00000000000E+00 0.  1.
         22   -1    0    0    0    0 -0.00000000000E+00 -0.00000000000E+00 -0.21384330451E+03  0.21384330451E+03  0.00000000000E+00 0.  1.
         24    2    1    2    0    0 -0.21387369397E+03  0.91659453685E+02 -0.87488964522E+01  0.24556229715E+03  0.77980037005E+02 0.  0.
         25    2    1    2    0    0  0.21515593174E+03 -0.11729810037E+03  0.13686507914E+03  0.30729585629E+03  0.12509106319E+03 0.  0.
        -24    2    1    2    0    0 -0.12822377690E+01  0.25638646681E+02  0.99450286555E+03  0.99744750382E+03  0.72156697134E+02 0.  0.
        -13    1    3    3    0    0 -0.19069628617E+03  0.53199053173E+02  0.66543935347E+01  0.19808961045E+03  0.00000000000E+00 0.  1.
         14    1    3    3    0    0 -0.23177407805E+02  0.38460400512E+02 -0.15403289987E+02  0.47472686700E+02  0.00000000000E+00 0. -1.
         13    1    5    5    0    0 -0.11165529757E+02  0.22392597513E+02  0.10711747578E+03  0.11000114134E+03  0.00000000000E+00 0. -1.
        -14    1    5    5    0    0  0.98832919881E+01  0.32460491673E+01  0.88738538977E+03  0.88744636248E+03  0.00000000000E+00 0.  1.
          5    1    4    4  501    0  0.19895276380E+03 -0.64894926986E+02  0.14061536455E+03  0.25215809906E+03  0.41800000000E+01 0. -1.
         -5    1    4    4    0  501  0.16203167943E+02 -0.52403173380E+02 -0.37502854124E+01  0.55137757230E+02  0.41800000000E+01 0. -1.
</event>
<event>
11    1  0.8328696E-009  0.1476306E+03  0.7561462E-02  0.1099325E+00
         22   -1    0    0    0    0  0.00000000000E+00  0.00000000000E+00  0.14958938140E+04  0.14958938140E+04  0.00000000000E+00 0.  1.
         22   -1    0    0    0    0 -0.00000000000E+00 -0.00000000000E+00 -0.35325567127E+03  0.35325567127E+03  0.00000000000E+00 0. -1.
        -24    2    1    2    0    0  0.60517010459E+02 -0.12172873019E+02 -0.33111948536E+03  0.34587585071E+03  0.78609815708E+02 0.  0.
         25    2    1    2    0    0 -0.12169647838E+03 -0.12067214469E+02  0.66690432913E+03  0.68946673504E+03  0.12508934409E+03 0.  0.
         24    2    1    2    0    0  0.61179467920E+02  0.24240087488E+02  0.80685329892E+03  0.81380689948E+03  0.83300147204E+02 0.  0.
        -11    1    5    5    0    0  0.65096179339E+02 -0.14701893476E+02  0.47933493856E+03  0.48395830560E+03  0.00000000000E+00 0.  1.
         12    1    5    5    0    0 -0.39167114194E+01  0.38941980963E+02  0.32751836036E+03  0.32984859388E+03  0.00000000000E+00 0. -1.
         11    1    3    3    0    0  0.25203219559E+02  0.33511872499E+02 -0.15213084573E+03  0.15780380888E+03  0.00000000000E+00 0. -1.
        -12    1    3    3    0    0  0.35313790900E+02 -0.45684745518E+02 -0.17898863963E+03  0.18807204183E+03  0.00000000000E+00 0.  1.
          5    1    4    4  501    0 -0.60981129221E+02  0.48193406282E+02  0.19698022808E+03  0.21180175917E+03  0.41800000000E+01 0. -1.
         -5    1    4    4    0  501 -0.60715349158E+02 -0.60260620751E+02  0.46992410104E+03  0.47766497587E+03  0.41800000000E+01 0. -1.
</event>
<event>
11    1  0.8328696E-009  0.1299258E+03  0.7561462E-02  0.1119360E+00
         22   -1    0    0    0    0  0.00000000000E+00  0.00000000000E+00  0.54923037866E+03  0.54923037866E+03  0.00000000000E+00 0. -1.
         22   -1    0    0    0    0 -0.00000000000E+00 -0.00000000000E+00 -0.37311173809E+03  0.37311173809E+03  0.00000000000E+00 0.  1.
         24    2    1    2    0    0  0.19578337147E+02 -0.28466916370E+02 -0.32812454336E+03  0.33952077691E+03  0.80093479049E+02 0.  0.
         25    2    1    2    0    0 -0.25373325691E+02  0.40613411219E+02  0.91452922750E+02  0.16218536256E+03  0.12508876817E+03 0.  0.
        -24    2    1    2    0    0  0.57949885437E+01 -0.12146494849E+02  0.41279026118E+03  0.42063597728E+03  0.79735227016E+02 0.  0.
        -11    1    3    3    0    0 -0.57618736604E+01 -0.44199635084E+02 -0.27505872338E+03  0.27864692397E+03  0.00000000000E+00 0.  1.
         12    1    3    3    0    0  0.25340210808E+02  0.15732718714E+02 -0.53065819975E+02  0.60873852938E+02  0.00000000000E+00 0. -1.
         11    1    5    5    0    0 -0.64535344377E+01 -0.29719272189E+02  0.38153466613E+03  0.38274480363E+03  0.00000000000E+00 0. -1.
        -12    1    5    5    0    0  0.12248522981E+02  0.17572777340E+02  0.31255595051E+02  0.37891173651E+02  0.00000000000E+00 0.  1.
          5    1    4    4  501    0 -0.32766028117E+02 -0.29790364683E+02 -0.24096079697E+01  0.44546122582E+02  0.41800000000E+01 0. -1.
         -5    1    4    4    0  501  0.73927024255E+01  0.70403775902E+02  0.93862530720E+02  0.11763923998E+03  0.41800000000E+01 0. -1.
</event>
<event>
11    1  0.8328696E-009  0.2266711E+03  0.7561462E-02  0.1037117E+00
         22   -1    0    0    0    0  0.00000000000E+00  0.00000000000E+00  0.11487578511E+04  0.11487578511E+04  0.00000000000E+00 0. -1.
         22   -1    0    0    0    0 -0.00000000000E+00 -0.00000000000E+00 -0.14572957952E+04  0.14572957952E+04  0.00000000000E+00 0.  1.
        -24    2    1    2    0    0  0.31422041052E+02  0.32272351592E+02 -0.13873382524E+04  0.13903846128E+04  0.80206580490E+02 0.  0.
         25    2    1    2    0    0  0.15764214664E+03  0.17172959226E+02  0.12184313355E+03  0.23587998541E+03  0.12509061275E+03 0.  0.
         24    2    1    2    0    0 -0.18906418769E+03 -0.49445310818E+02  0.95695717472E+03  0.97978904814E+03  0.77649460929E+02 0.  0.
        -11    1    5    5    0    0 -0.67660908473E+02  0.14492035164E+01  0.19177640351E+03  0.20336737120E+03  0.00000000000E+00 0.  1.
         12    1    5    5    0    0 -0.12140327922E+03 -0.50894514335E+02  0.76518077121E+03  0.77642167694E+03  0.00000000000E+00 0. -1.
         13    1    3    3    0    0 -0.20581905186E+02  0.34068517537E+02 -0.64102833506E+03  0.64226287847E+03  0.00000000000E+00 0. -1.
        -14    1    3    3    0    0  0.52003946237E+02 -0.17961659448E+01 -0.74630991731E+03  0.74812173429E+03  0.00000000000E+00 0.  1.
          5    1    4    4  501    0  0.15892532408E+02 -0.14856092646E+02  0.82279586324E+02  0.85209616832E+02  0.41800000000E+01 0. -1.
         -5    1    4    4    0  501  0.14174961423E+03  0.32029051872E+02  0.39563547230E+02  0.15067036858E+03  0.41800000000E+01 0. -1.
</event>
<event>
11    1  0.8328696E-009  0.1386383E+03  0.7561462E-02  0.1109089E+00
         22   -1    0    0    0    0  0.00000000000E+00  0.00000000000E+00  0.83952391962E+03  0.83952391962E+03  0.00000000000E+00 0.  1.
         22   -1    0    0    0    0 -0.00000000000E+00 -0.00000000000E+00 -0.10236356987E+04  0.10236356987E+04  0.00000000000E+00 0.  1.
        -24    2    1    2    0    0  0.43857853496E+01 -0.31510119773E+02 -0.99814360197E+03  0.10018748206E+04  0.80314278088E+02 0.  0.
         25    2    1    2    0    0 -0.16992518029E+02  0.84332459735E+02  0.27531242860E+03  0.31439481413E+03  0.12508579606E+03 0.  0.
         24    2    1    2    0    0  0.12606732680E+02 -0.52822339962E+02  0.53871939425E+03  0.54688998362E+03  0.76947638911E+02 0.  0.
        -11    1    5    5    0    0  0.35429078621E+02 -0.77160197139E+01  0.12687073589E+03  0.13195052178E+03  0.00000000000E+00 0.  1.
         12    1    5    5    0    0 -0.22822345941E+02 -0.45106320248E+02  0.41184865835E+03  0.41493946184E+03  0.00000000000E+00 0. -1.
         13    1    3    3    0    0  0.34361529037E+02 -0.20165313287E+02 -0.81313754009E+03  0.81411302264E+03  0.00000000000E+00 0. -1.
        -14    1    3    3    0    0 -0.29975743687E+02 -0.11344806486E+02 -0.18500606188E+03  0.18776179797E+03  0.00000000000E+00 0.  1.
          5    1    4    4  501    0  0.19374702357E+02  0.10021968456E+03  0.24102552977E+03  0.26178262483E+03  0.41800000000E+01 0. -1.
         -5    1    4    4    0  501 -0.36367220386E+02 -0.15887224824E+02  0.34286898834E+02  0.52612189299E+02  0.41800000000E+01 0. -1.
</event>
<event>
11    1  0.8328696E-009  0.1562392E+03  0.7561462E-02  0.1090669E+00
         22   -1    0    0    0    0  0.00000000000E+00  0.00000000000E+00  0.18693136273E+03  0.18693136273E+03  0.00000000000E+00 0. -1.
         22   -1    0    0    0    0 -0.00000000000E+00 -0.00000000000E+00 -0.26304231070E+04  0.26304231070E+04  0.00000000000E+00 0.  1.
        -24    2    1    2    0    0 -0.70957627305E+02  0.15673114821E+02 -0.14229783979E+04  0.14270864491E+04  0.80172194375E+02 0.  0.
         25    2    1    2    0    0  0.55359035848E+02  0.77117909679E+02 -0.11785699683E+04  0.11889854168E+04  0.12508939256E+03 0.  0.
         24    2    1    2    0    0  0.15598591456E+02 -0.92791024500E+02  0.15805662202E+03  0.20128260388E+03  0.81726988060E+02 0.  0.
        -11    1    5    5    0    0  0.33907007773E+01 -0.71786636160E+02  0.43128094994E+02  0.83814381587E+02  0.00000000000E+00 0.  1.
         12    1    5    5    0    0  0.12207890679E+02 -0.21004388340E+02  0.11492852703E+03  0.11746822230E+03  0.00000000000E+00 0. -1.
         13    1    3    3    0    0 -0.18851718979E+02  0.43579145016E+02 -0.75827237232E+03  0.75975754015E+03  0.00000000000E+00 0. -1.
        -14    1    3    3    0    0 -0.52105908326E+02 -0.27906030195E+02 -0.66470602559E+03  0.66732890891E+03  0.00000000000E+00 0.  1.
          5    1    4    4  501    0  0.82986271300E+02  0.95800236234E+01 -0.66549849730E+03  0.67073409067E+03  0.41800000000E+01 0.  1.
         -5    1    4    4    0  501 -0.27627235451E+02  0.67537886056E+02 -0.51307147104E+03  0.51825132608E+03  0.41800000000E+01 0.  1.
</event>
<event>
11    1  0.8328696E-009  0.1460214E+03  0.7561462E-02  0.1101015E+00
         22   -1    0    0    0    0  0.00000000000E+00  0.00000000000E+00  0.16172937277E+04  0.16172937277E+04  0.00000000000E+00 0.  1.
         22   -1    0    0    0    0 -0.00000000000E+00 -0.00000000000E+00 -0.43349229108E+03  0.43349229108E+03  0.00000000000E+00 0. -1.
         24    2    1    2    0    0 -0.55527946183E+02  0.53524731594E+02 -0.38776701011E+03  0.40358090057E+03  0.81031101916E+02 0.  0.
         25    2    1    2    0    0 -0.67764104018E+01 -0.67905194520E+02  0.10498687811E+03  0.17699556057E+03  0.12509256054E+03 0.  0.
        -24    2    1    2    0    0  0.62304356585E+02  0.14380462926E+02  0.14665815686E+04  0.14702095576E+04  0.81030953432E+02 0.  0.
        -11    1    3    3    0    0  0.49404934941E+01  0.36073063953E+02 -0.62936461787E+02  0.72709508602E+02  0.00000000000E+00 0.  1.
         12    1    3    3    0    0 -0.60468439677E+02  0.17451667641E+02 -0.32483054832E+03  0.33087139197E+03  0.00000000000E+00 0. -1.
         11    1    5    5    0    0  0.17822412967E+02 -0.22765357404E+02  0.17861101516E+03  0.18093588543E+03  0.00000000000E+00 0. -1.
        -12    1    5    5    0    0  0.44481943617E+02  0.37145820330E+02  0.12879705534E+04  0.12892736722E+04  0.00000000000E+00 0.  1.
          5    1    4    4  501    0  0.10917504612E+02 -0.52266221221E+01 -0.26929167108E+02  0.29818818335E+02  0.41800000000E+01 0. -1.
         -5    1    4    4    0  501 -0.17693915014E+02 -0.62678572398E+02  0.13191604522E+03  0.14717674223E+03  0.41800000000E+01 0. -1.
</event>
<event>
11    1  0.8328696E-009  0.1423308E+03  0.7561462E-02  0.1104983E+00
         22   -1    0    0    0    0  0.00000000000E+00  0.00000000000E+00  0.72946372653E+03  0.72946372653E+03  0.00000000000E+00 0. -1.
         22   -1    0    0    0    0 -0.00000000000E+00 -0.00000000000E+00 -0.15497686519E+03  0.15497686519E+03  0.00000000000E+00 0.  1.
         24    2    1    2    0    0  0.43874126369E+01 -0.20816345962E+02 -0.10045739519E+03  0.13105393606E+03  0.81430192558E+02 0.  0.
         25    2    1    2    0    0  0.15444727527E+02  0.83307100615E+02  0.13209695605E+03  0.20068848078E+03  0.12509055879E+03 0.  0.
        -24    2    1    2    0    0 -0.19832140164E+02 -0.62490754653E+02  0.54284730048E+03  0.55269817488E+03  0.80583327510E+02 0.  0.
        -11    1    3    3    0    0 -0.10922447495E+02 -0.26348629567E+01 -0.10604383956E+03  0.10663741497E+03  0.00000000000E+00 0.  1.
         12    1    3    3    0    0  0.15309860132E+02 -0.18181483006E+02  0.55864443729E+01  0.24416521093E+02  0.00000000000E+00 0. -1.
         11    1    5    5    0    0 -0.67660299917E+01 -0.68927606637E+02  0.52551069150E+03  0.53005497922E+03  0.00000000000E+00 0. -1.
        -12    1    5    5    0    0 -0.13066110172E+02  0.64368519842E+01  0.17336608984E+02  0.22643195657E+02  0.00000000000E+00 0.  1.
          5    1    4    4  501    0 -0.41041701238E+02  0.80457678373E+02  0.10262802760E+03  0.13677661971E+03  0.41800000000E+01 0.  1.
         -5    1    4    4    0  501  0.56486428764E+02  0.28494222419E+01  0.29468928448E+02  0.63911861071E+02  0.41800000000E+01 0.  1.
</event>
<event>
11    1  0.8328696E-009  0.1384616E+03  0.7561462E-02  0.1109288E+00
         22   -1    0    0    0    0  0.00000000000E+00  0.00000000000E+00  0.51864072549E+03  0.51864072549E+03  0.00000000000E+00 0. -1.
         22   -1    0    0    0    0 -0.00000000000E+00 -0.00000000000E+00 -0.17436168977E+03  0.17436168977E+03  0.00000000000E+00 0.  1.
        -24    2    1    2    0    0 -0.18364755956E+02 -0.22847255559E+02 -0.85243334070E+02  0.11932498698E+03  0.78184174662E+02 0.  0.
         25    2    1    2    0    0  0.66946424497E+01  0.79485033861E+02  0.16771144423E+02  0.14930467385E+03  0.12509166840E+03 0.  0.
         24    2    1    2    0    0  0.11670113506E+02 -0.56637778302E+02  0.41275122537E+03  0.42437275443E+03  0.79903887084E+02 0.  0.
        -13    1    5    5    0    0  0.34279490042E+02 -0.66197670183E+01  0.82382374771E+02  0.89474915065E+02  0.00000000000E+00 0.  1.
         14    1    5    5    0    0 -0.22609376536E+02 -0.50018011284E+02  0.33036885060E+03  0.33489783936E+03  0.00000000000E+00 0. -1.
         11    1    3    3    0    0  0.16869090276E+02  0.55725477116E+01  0.49216277698E+01  0.18434801725E+02  0.00000000000E+00 0. -1.
        -12    1    3    3    0    0 -0.35233846231E+02 -0.28419803271E+02 -0.90164961840E+02  0.10089018526E+03  0.00000000000E+00 0.  1.
          5    1    4    4  501    0 -0.37282549612E+02 -0.12698366399E+02 -0.14857263742E+02  0.42301864033E+02  0.41800000000E+01 0. -1.
         -5    1    4    4    0  501  0.43977192062E+02  0.92183400260E+02  0.31628408165E+02  0.10700280981E+03  0.41800000000E+01 0. -1.
</event>
<event>
11    1  0.8328696E-009  0.1756702E+03  0.7561462E-02  0.1073200E+00
         22   -1    0    0    0    0  0.00000000000E+00  0.00000000000E+00  0.11767498632E+03  0.11767498632E+03  0.00000000000E+00 0. -1.
         22   -1    0    0    0    0 -0.00000000000E+00 -0.00000000000E+00 -0.10652495023E+04  0.10652495023E+04  0.00000000000E+00 0.  1.
         24    2    1    2    0    0  0.80062537389E+00  0.22625499985E+02 -0.83415860352E+03  0.83827064635E+03  0.79778107649E+02 0.  0.
         25    2    1    2    0    0  0.33060123312E+02  0.10603647531E+03 -0.73641360508E+02  0.18277549050E+03  0.12508846510E+03 0.  0.
        -24    2    1    2    0    0 -0.33860748686E+02 -0.12866197530E+03 -0.39774551966E+02  0.16187835177E+03  0.83199348552E+02 0.  0.
        -13    1    3    3    0    0 -0.17252534122E+02  0.18153930425E+01 -0.73901867530E+03  0.73922225888E+03  0.00000000000E+00 0.  1.
         14    1    3    3    0    0  0.18053159496E+02  0.20810106942E+02 -0.95139928218E+02  0.99048387468E+02  0.00000000000E+00 0. -1.
         11    1    5    5    0    0 -0.10628113504E+02 -0.13147845884E+03 -0.25154804519E+02  0.13428442250E+03  0.00000000000E+00 0. -1.
        -12    1    5    5    0    0 -0.23232635182E+02  0.28164835471E+01 -0.14619747448E+02  0.27593929269E+02  0.00000000000E+00 0.  1.
          5    1    4    4  501    0  0.60229021213E+02  0.11989300661E+03 -0.47507901050E+02  0.14239501780E+03  0.41800000000E+01 0.  1.
         -5    1    4    4    0  501 -0.27168897900E+02 -0.13856531301E+02 -0.26133459459E+02  0.40380472707E+02  0.41800000000E+01 0.  1.
</event>
<event>
11    1  0.8328696E-009  0.1406100E+03  0.7561462E-02  0.1106879E+00
         22   -1    0    0    0    0  0.00000000000E+00  0.00000000000E+00  0.67545524364E+03  0.67545524364E+03  0.00000000000E+00 0. -1.
         22   -1    0    0    0    0 -0.00000000000E+00 -0.00000000000E+00 -0.30982536899E+03  0.30982536899E+03  0.00000000000E+00 0. -1.
         24    2    1    2    0    0  0.42685882461E+01 -0.36508041073E+02 -0.26332034290E+03  0.27754603938E+03  0.79643851475E+02 0.  0.
         25    2    1    2    0    0  0.57334097890E+02  0.51755946400E+02  0.12297133963E+03  0.19166161609E+03  0.12508536262E+03 0.  0.
        -24    2    1    2    0    0 -0.61602686136E+02 -0.15247905327E+02  0.50597887792E+03  0.51607295716E+03  0.79304997687E+02 0.  0.
        -11    1    3    3    0    0  0.29342273728E+02  0.99065922608E+01 -0.60354578278E+02  0.67836455663E+02  0.00000000000E+00 0.  1.
         12    1    3    3    0    0 -0.25073685482E+02 -0.46414633334E+02 -0.20296576462E+03  0.20970958371E+03  0.00000000000E+00 0. -1.
         11    1    5    5    0    0 -0.31968963711E+02  0.20087171143E+01  0.44469499845E+03  0.44584716130E+03  0.00000000000E+00 0. -1.
        -12    1    5    5    0    0 -0.29633722425E+02 -0.17256622441E+02  0.61283879462E+02  0.70225795864E+02  0.00000000000E+00 0.  1.
          5    1    4    4  501    0 -0.28286925034E+02 -0.20149536066E+02  0.32953038332E+02  0.48057559934E+02  0.41800000000E+01 0. -1.
         -5    1    4    4    0  501  0.85621022924E+02  0.71905482466E+02  0.90018301302E+02  0.14360405616E+03  0.41800000000E+01 0. -1.
</event>
<event>
11    1  0.8328696E-009  0.1388335E+03  0.7561462E-02  0.1108868E+00
         22   -1    0    0    0    0  0.00000000000E+00  0.00000000000E+00  0.61979860471E+03  0.61979860471E+03  0.00000000000E+00 0.  1.
         22   -1    0    0    0    0 -0.00000000000E+00 -0.00000000000E+00 -0.16364012877E+03  0.16364012877E+03  0.00000000000E+00 0.  1.
        -24    2    1    2    0    0  0.46873829646E+02 -0.38263164987E+02 -0.11367351407E+03  0.15361477245E+03  0.83753237636E+02 0.  0.
         25    2    1    2    0    0 -0.61710548246E+02  0.14492931408E+02  0.16714918699E+03  0.21818315011E+03  0.12508716742E+03 0.  0.
         24    2    1    2    0    0  0.14836718599E+02  0.23770233579E+02  0.40268280301E+03  0.41164081093E+03  0.80681876266E+02 0.  0.
        -13    1    5    5    0    0  0.33505499981E+02 -0.19086926967E+02  0.19205849824E+03  0.19589128632E+03  0.00000000000E+00 0.  1.
         14    1    5    5    0    0 -0.18668781381E+02  0.42857160546E+02  0.21062430478E+03  0.21574952461E+03  0.00000000000E+00 0. -1.
         13    1    3    3    0    0  0.15445980043E+02 -0.45535951386E+02 -0.15880749849E+02  0.50638911756E+02  0.00000000000E+00 0. -1.
        -14    1    3    3    0    0  0.31427849603E+02  0.72727863982E+01 -0.97792764218E+02  0.10297586070E+03  0.00000000000E+00 0.  1.
          5    1    4    4  501    0 -0.87657938500E+02  0.11483538168E+02  0.57865823654E+02  0.10574361342E+03  0.41800000000E+01 0. -1.
         -5    1    4    4    0  501  0.25947390255E+02  0.30093932402E+01  0.10928336334E+03  0.11243953669E+03  0.41800000000E+01 0. -1.
</event>
<event>
11    1  0.8328696E-009  0.3199991E+03  0.7561462E-02  0.9920652E-01
         22   -1    0    0    0    0  0.00000000000E+00  0.00000000000E+00  0.18848194663E+04  0.18848194663E+04  0.00000000000E+00 0. -1.
         22   -1    0    0    0    0 -0.00000000000E+00 -0.00000000000E+00 -0.32899149001E+03  0.32899149001E+03  0.00000000000E+00 0. -1.
        -24    2    1    2    0    0  0.52083725756E+02 -0.24568333394E+03 -0.41836740623E+02  0.26619541564E+03  0.77696019039E+02 0.  0.
         25    2    1    2    0    0  0.39248041806E+02  0.41146994573E+03  0.10953597173E+03  0.44552597004E+03  0.12508931150E+03 0.  0.
         24    2    1    2    0    0 -0.91331767562E+02 -0.16578661179E+03  0.14881287452E+04  0.15020895706E+04  0.76936490495E+02 0.  0.
        -11    1    5    5    0    0 -0.28741837996E+01 -0.49174294203E+01  0.48156516681E+01  0.74587227865E+01  0.00000000000E+00 0.  1.
         12    1    5    5    0    0 -0.88457583762E+02 -0.16086918237E+03  0.14833130935E+04  0.14946308479E+04  0.00000000000E+00 0. -1.
         13    1    3    3    0    0  0.56043102695E+02 -0.20363103725E+03 -0.60968525198E+02  0.21982627176E+03  0.00000000000E+00 0. -1.
        -14    1    3    3    0    0 -0.39593769393E+01 -0.42052296696E+02  0.19131784575E+02  0.46369143880E+02  0.00000000000E+00 0.  1.
          5    1    4    4  501    0  0.33166125300E+02  0.14354138909E+03 -0.18402524958E+02  0.14852692542E+03  0.41800000000E+01 0. -1.
         -5    1    4    4    0  501  0.60819165057E+01  0.26792855664E+03  0.12793849669E+03  0.29699904462E+03  0.41800000000E+01 0. -1.
</event>
<event>
11    1  0.8328696E-009  0.1318094E+03  0.7561462E-02  0.1117066E+00
         22   -1    0    0    0    0  0.00000000000E+00  0.00000000000E+00  0.93976881896E+03  0.93976881896E+03  0.00000000000E+00 0.  1.
         22   -1    0    0    0    0 -0.00000000000E+00 -0.00000000000E+00 -0.16199560206E+03  0.16199560206E+03  0.00000000000E+00 0.  1.
         24    2    1    2    0    0 -0.44859435015E+02  0.35421038415E+01 -0.10077134710E+03  0.13625001123E+03  0.79901725608E+02 0.  0.
         25    2    1    2    0    0  0.76719567405E+01 -0.26490219173E+02  0.59512444829E+02  0.14124543921E+03  0.12509177581E+03 0.  0.
        -24    2    1    2    0    0  0.37187478274E+02  0.22948115332E+02  0.81903211917E+03  0.82426897058E+03  0.81830306622E+02 0.  0.
        -11    1    3    3    0    0 -0.12013921043E+02 -0.11247503486E+02 -0.98814133450E+02  0.10017521451E+03  0.00000000000E+00 0.  1.
         12    1    3    3    0    0 -0.32845513971E+02  0.14789607328E+02 -0.19572136489E+01  0.36074796718E+02  0.00000000000E+00 0. -1.
         11    1    5    5    0    0  0.18014103612E+02 -0.29180341095E+02  0.41872822783E+03  0.42013013343E+03  0.00000000000E+00 0. -1.
        -12    1    5    5    0    0  0.19173374662E+02  0.52128456427E+02  0.40030389135E+03  0.40413883715E+03  0.00000000000E+00 0.  1.
          5    1    4    4  501    0  0.27285543952E+02 -0.23849805771E+02 -0.31386126910E+02  0.48123544201E+02  0.41800000000E+01 0. -1.
         -5    1    4    4    0  501 -0.19613587212E+02 -0.26404134023E+01  0.90898571739E+02  0.93121895011E+02  0.41800000000E+01 0. -1.
</event>
<event>
11    1  0.8328696E-009  0.1331217E+03  0.7561462E-02  0.1115492E+00
         22   -1    0    0    0    0  0.00000000000E+00  0.00000000000E+00  0.11254062183E+04  0.11254062183E+04  0.00000000000E+00 0.  1.
         22   -1    0    0    0    0 -0.00000000000E+00 -0.00000000000E+00 -0.17659421264E+03  0.17659421264E+03  0.00000000000E+00 0.  1.
        -24    2    1    2    0    0 -0.30209997219E+02  0.31875609118E+02 -0.11212679976E+03  0.14502959767E+03  0.80823675900E+02 0.  0.
         25    2    1    2    0    0  0.19108066887E+02 -0.57284586935E+02  0.58369200677E+02  0.15067521420E+03  0.12509761975E+03 0.  0.
         24    2    1    2    0    0  0.11101930332E+02  0.25408977817E+02  0.10025696048E+04  0.10062956191E+04  0.81952373944E+02 0.  0.
        -11    1    5    5    0    0 -0.20974952951E+02 -0.10458151137E+01  0.75249865055E+03  0.75279164546E+03  0.00000000000E+00 0.  1.
         12    1    5    5    0    0  0.32076883283E+02  0.26454792931E+02  0.25007095421E+03  0.25350397363E+03  0.00000000000E+00 0. -1.
         13    1    3    3    0    0  0.20129402813E+02  0.21431086776E+02 -0.10648245132E+02  0.31270904406E+02  0.00000000000E+00 0. -1.
        -14    1    3    3    0    0 -0.50339400032E+02  0.10444522342E+02 -0.10147855463E+03  0.11375869326E+03  0.00000000000E+00 0.  1.
          5    1    4    4  501    0 -0.50110290414E+02 -0.41642162921E+02  0.13674157980E+02  0.66705066783E+02  0.41800000000E+01 0.  1.
         -5    1    4    4    0  501  0.69218357301E+02 -0.15642424014E+02  0.44695042697E+02  0.83970147422E+02  0.41800000000E+01 0.  1.
</event>
<event>
11    1  0.8328696E-009  0.1332526E+03  0.7561462E-02  0.1115336E+00
         22   -1    0    0    0    0  0.00000000000E+00  0.00000000000E+00  0.65706194936E+03  0.65706194936E+03  0.00000000000E+00 0. -1.
         22   -1    0    0    0    0 -0.00000000000E+00 -0.00000000000E+00 -0.28877727898E+03  0.28877727898E+03  0.00000000000E+00 0.  1.
         24    2    1    2    0    0 -0.47373433894E+02  0.17230507176E+02 -0.20498226007E+03  0.22579421268E+03  0.80150900921E+02 0.  0.
         25    2    1    2    0    0  0.15260319757E+02 -0.18371496068E+02 -0.11370622174E+02  0.12785279853E+03  0.12508660127E+03 0.  0.
        -24    2    1    2    0    0  0.32113114136E+02  0.11409888916E+01  0.58463755263E+03  0.59219221713E+03  0.88645361599E+02 0.  0.
        -13    1    3    3    0    0 -0.34444727410E+02  0.37612891462E+02 -0.59693810614E+02  0.78514456478E+02  0.00000000000E+00 0.  1.
         14    1    3    3    0    0 -0.12928706484E+02 -0.20382384286E+02 -0.14528844946E+03  0.14727975620E+03  0.00000000000E+00 0. -1.
         13    1    5    5    0    0 -0.60362747081E+01  0.15486571937E+02  0.47391505288E+03  0.47420644014E+03  0.00000000000E+00 0. -1.
        -14    1    5    5    0    0  0.38149388845E+02 -0.14345583046E+02  0.11072249975E+03  0.11798577699E+03  0.00000000000E+00 0.  1.
          5    1    4    4  501    0  0.35916068338E+02 -0.65840066069E+02 -0.10987391237E+02  0.75914909149E+02  0.41800000000E+01 0. -1.
         -5    1    4    4    0  501 -0.20655748581E+02  0.47468570002E+02 -0.38323093657E+00  0.51937889381E+02  0.41800000000E+01 0. -1.
</event>
<event>
11    1  0.8328696E-009  0.1530737E+03  0.7561462E-02  0.1093779E+00
         22   -1    0    0    0    0  0.00000000000E+00  0.00000000000E+00  0.18388560441E+04  0.18388560441E+04  0.00000000000E+00 0.  1.
         22   -1    0    0    0    0 -0.00000000000E+00 -0.00000000000E+00 -0.13900302618E+03  0.13900302618E+03  0.00000000000E+00 0.  1.
        -24    2    1    2    0    0  0.49421211723E+02  0.68554332679E+02 -0.87537477084E+02  0.14553548487E+03  0.79847446829E+02 0.  0.
         25    2    1    2    0    0 -0.11922639544E+03 -0.10137923076E+03  0.48024607652E+03  0.52036133494E+03  0.12508774154E+03 0.  0.
         24    2    1    2    0    0  0.69805183717E+02  0.32824898082E+02  0.13071444184E+04  0.13119622504E+04  0.81658914177E+02 0.  0.
        -11    1    5    5    0    0  0.33934036279E+02  0.15539825199E+02  0.11203249402E+04  0.11209464646E+04  0.00000000000E+00 0.  1.
         12    1    5    5    0    0  0.35871147438E+02  0.17285072882E+02  0.18681947829E+03  0.19101578582E+03  0.00000000000E+00 0. -1.
         11    1    3    3    0    0 -0.33664844400E+01  0.10799263873E+02 -0.62304439677E+02  0.63322985725E+02  0.00000000000E+00 0. -1.
        -12    1    3    3    0    0  0.52787696163E+02  0.57755068806E+02 -0.25233037407E+02  0.82212499146E+02  0.00000000000E+00 0.  1.
          5    1    4    4  501    0 -0.10589060298E+03 -0.10824873050E+02  0.21945696831E+03  0.24394431950E+03  0.41800000000E+01 0.  1.
         -5    1    4    4    0  501 -0.13335792458E+02 -0.90554357711E+02  0.26078910822E+03  0.27641701544E+03  0.41800000000E+01 0.  1.
</event>
<event>
11    1  0.8328696E-009  0.1410996E+03  0.7561462E-02  0.1106337E+00
         22   -1    0    0    0    0  0.00000000000E+00  0.00000000000E+00  0.30309971882E+03  0.30309971882E+03  0.00000000000E+00 0. -1.
         22   -1    0    0    0    0 -0.00000000000E+00 -0.00000000000E+00 -0.35074461857E+03  0.35074461857E+03  0.00000000000E+00 0. -1.
        -24    2    1    2    0    0 -0.34185256239E+02 -0.78872812613E+01 -0.27629258174E+03  0.28977575166E+03  0.80009715512E+02 0.  0.
         25    2    1    2    0    0  0.92289632225E+02  0.13876477279E+02  0.57627119586E+02  0.16636987120E+03  0.12509243100E+03 0.  0.
         24    2    1    2    0    0 -0.58104375986E+02 -0.59891960172E+01  0.17102056241E+03  0.19769871454E+03  0.80154600526E+02 0.  0.
        -11    1    5    5    0    0  0.11941091266E+02 -0.20161490545E+02  0.20745670396E+02  0.31296296935E+02  0.00000000000E+00 0.  1.
         12    1    5    5    0    0 -0.70045467252E+02  0.14172294528E+02  0.15027489201E+03  0.16640241760E+03  0.00000000000E+00 0. -1.
         11    1    3    3    0    0 -0.32560111818E+02  0.27350125192E+02 -0.21404537594E+03  0.21822835102E+03  0.00000000000E+00 0. -1.
        -12    1    3    3    0    0 -0.16251444207E+01 -0.35237406454E+02 -0.62247205803E+02  0.71547400639E+02  0.00000000000E+00 0.  1.
          5    1    4    4  501    0  0.20496887360E+02 -0.21573456538E+02 -0.33492911246E+02  0.44997599071E+02  0.41800000000E+01 0. -1.
         -5    1    4    4    0  501  0.71792744865E+02  0.35449933816E+02  0.91120030832E+02  0.12137227213E+03  0.41800000000E+01 0. -1.
</event>
<event>
11    1  0.8328696E-009  0.1442267E+03  0.7561462E-02  0.1102928E+00
         22   -1    0    0    0    0  0.00000000000E+00  0.00000000000E+00  0.84906459416E+03  0.84906459416E+03  0.00000000000E+00 0. -1.
         22   -1    0    0    0    0 -0.00000000000E+00 -0.00000000000E+00 -0.52379677395E+03  0.52379677395E+03  0.00000000000E+00 0. -1.
        -24    2    1    2    0    0 -0.22888179952E+02  0.69457397435E+02 -0.48686051478E+03  0.49874284615E+03  0.79768834083E+02 0.  0.
         25    2    1    2    0    0  0.48400485568E+02 -0.19195062056E+02  0.14128901589E+03  0.19575778298E+03  0.12508983243E+03 0.  0.
         24    2    1    2    0    0 -0.25512305617E+02 -0.50262335380E+02  0.67083931911E+03  0.67836073899E+03  0.83490838070E+02 0.  0.
        -13    1    5    5    0    0  0.30420754224E+02 -0.20091089598E+02  0.20663285517E+03  0.20982423836E+03  0.00000000000E+00 0.  1.
         14    1    5    5    0    0 -0.55933059841E+02 -0.30171245782E+02  0.46420646394E+03  0.46853650063E+03  0.00000000000E+00 0. -1.
         13    1    3    3    0    0  0.29779633443E+01  0.66365482930E+02 -0.44120385809E+03  0.44617719573E+03  0.00000000000E+00 0. -1.
        -14    1    3    3    0    0 -0.25866143296E+02  0.30919145051E+01 -0.45656656689E+02  0.52565650422E+02  0.00000000000E+00 0.  1.
          5    1    4    4  501    0  0.15880574024E+02  0.71709721279E+01 -0.21287536639E+02  0.27825295843E+02  0.41800000000E+01 0. -1.
         -5    1    4    4    0  501  0.32519911545E+02 -0.26366034184E+02  0.16257655253E+03  0.16793248714E+03  0.41800000000E+01 0. -1.
</event>
<event>
11    1  0.8328696E-009  0.1419153E+03  0.7561462E-02  0.1105438E+00
         22   -1    0    0    0    0  0.00000000000E+00  0.00000000000E+00  0.11601530667E+04  0.11601530667E+04  0.00000000000E+00 0.  1.
         22   -1    0    0    0    0 -0.00000000000E+00 -0.00000000000E+00 -0.30989942394E+03  0.30989942394E+03  0.00000000000E+00 0. -1.
        -24    2    1    2    0    0  0.13283603765E+02 -0.67407288476E+02 -0.27048368552E+03  0.29147118317E+03  0.84106062927E+02 0.  0.
         25    2    1    2    0    0 -0.11266083893E+02  0.39962207074E+02  0.13345144260E+03  0.18756452225E+03  0.12508900764E+03 0.  0.
         24    2    1    2    0    0 -0.20175198713E+01  0.27445081402E+02  0.98728588568E+03  0.99101678523E+03  0.81385168475E+02 0.  0.
        -13    1    5    5    0    0 -0.15833488423E+01  0.29823900883E+02  0.98803423417E+03  0.98848551834E+03  0.00000000000E+00 0.  1.
         14    1    5    5    0    0 -0.43417102899E+00 -0.23788194812E+01 -0.74834849035E+00  0.25312668902E+01  0.00000000000E+00 0. -1.
         13    1    3    3    0    0  0.26631570119E+02 -0.30718452416E+02 -0.23570485580E+03  0.23918537350E+03  0.00000000000E+00 0. -1.
        -14    1    3    3    0    0 -0.13347966355E+02 -0.36688836060E+02 -0.34778829714E+02  0.52285809677E+02  0.00000000000E+00 0.  1.
          5    1    4    4  501    0  0.10091067664E+02 -0.41834052121E+02  0.67944207391E+02  0.80534497462E+02  0.41800000000E+01 0.  1.
         -5    1    4    4    0  501 -0.21357151557E+02  0.81796259195E+02  0.65507235214E+02  0.10703002479E+03  0.41800000000E+01 0.  1.
</event>
<event>
11    1  0.8328696E-009  0.1548883E+03  0.7561462E-02  0.1091986E+00
         22   -1    0    0    0    0  0.00000000000E+00  0.00000000000E+00  0.19441830298E+03  0.19441830298E+03  0.00000000000E+00 0.  1.
         22   -1    0    0    0    0 -0.00000000000E+00 -0.00000000000E+00 -0.57302029773E+03  0.57302029773E+03  0.00000000000E+00 0. -1.
        -24    2    1    2    0    0 -0.68516613877E+02 -0.55457093203E+02 -0.39811905230E+03  0.41537934533E+03  0.79190941157E+02 0.  0.
         25    2    1    2    0    0  0.35152110039E+02  0.13049472266E+03 -0.79512060321E+02  0.20058441579E+03  0.12508955447E+03 0.  0.
         24    2    1    2    0    0  0.33364503837E+02 -0.75037629459E+02  0.99029117867E+02  0.15147483959E+03  0.79962646857E+02 0.  0.
        -11    1    5    5    0    0  0.26650773867E+02 -0.73126678003E+02  0.11220933707E+03  0.13656028013E+03  0.00000000000E+00 0.  1.
         12    1    5    5    0    0  0.67137299698E+01 -0.19109514551E+01 -0.13180219204E+02  0.14914559459E+02  0.00000000000E+00 0. -1.
         13    1    3    3    0    0 -0.55893968649E+02 -0.75924760473E+02 -0.30795056497E+03  0.32205939739E+03  0.00000000000E+00 0. -1.
        -14    1    3    3    0    0 -0.12622645228E+02  0.20467667270E+02 -0.90168487327E+02  0.93319947936E+02  0.00000000000E+00 0.  1.
          5    1    4    4  501    0  0.37045976120E+02  0.87058764420E+02  0.15545144193E+02  0.95972687349E+02  0.41800000000E+01 0.  1.
         -5    1    4    4    0  501 -0.18938660801E+01  0.43435958241E+02 -0.95057204514E+02  0.10461172844E+03  0.41800000000E+01 0.  1.
</event>
<event>
11    1  0.8328696E-009  0.1432478E+03  0.7561462E-02  0.1103985E+00
         22   -1    0    0    0    0  0.00000000000E+00  0.00000000000E+00  0.80359420933E+03  0.80359420933E+03  0.00000000000E+00 0. -1.
         22   -1    0    0    0    0 -0.00000000000E+00 -0.00000000000E+00 -0.17616608773E+03  0.17616608773E+03  0.00000000000E+00 0. -1.
         24    2    1    2    0    0 -0.27866803913E+02 -0.24346671167E+01 -0.12937965974E+03  0.15515461977E+03  0.80940554234E+02 0.  0.
         25    2    1    2    0    0  0.93213344774E+02 -0.74912162847E+01  0.17889519740E+03  0.23748006924E+03  0.12509374752E+03 0.  0.
        -24    2    1    2    0    0 -0.65346540861E+02  0.99258834014E+01  0.57791258393E+03  0.58712560804E+03  0.79779893374E+02 0.  0.
        -11    1    3    3    0    0  0.32977834483E+01  0.35803033822E+02 -0.61592001157E+02  0.71318351166E+02  0.00000000000E+00 0.  1.
         12    1    3    3    0    0 -0.31164587361E+02 -0.38237700939E+02 -0.67787658579E+02  0.83836268608E+02  0.00000000000E+00 0. -1.
         13    1    5    5    0    0 -0.46622925374E+02 -0.30155347599E+01  0.54562665794E+03  0.54762326510E+03  0.00000000000E+00 0. -1.
        -14    1    5    5    0    0 -0.18723615487E+02  0.12941418161E+02  0.32285925992E+02  0.39502342945E+02  0.00000000000E+00 0.  1.
          5    1    4    4  501    0  0.16893430129E+02 -0.46079033502E+02  0.12968388982E+03  0.13872292164E+03  0.41800000000E+01 0. -1.
         -5    1    4    4    0  501  0.76319914645E+02  0.38587817218E+02  0.49211307584E+02  0.98757147605E+02  0.41800000000E+01 0. -1.
</event>
<event>
11    1  0.8328696E-009  0.1508327E+03  0.7561462E-02  0.1096031E+00
         22   -1    0    0    0    0  0.00000000000E+00  0.00000000000E+00  0.17023046811E+03  0.17023046811E+03  0.00000000000E+00 0.  1.
         22   -1    0    0    0    0 -0.00000000000E+00 -0.00000000000E+00 -0.73933996485E+03  0.73933996485E+03  0.00000000000E+00 0. -1.
        -24    2    1    2    0    0 -0.10404287272E+02 -0.28553649253E+02 -0.61035829846E+03  0.61636545345E+03  0.80284242695E+02 0.  0.
         25    2    1    2    0    0 -0.44275068020E+02  0.87248521740E+02 -0.23164042885E+02  0.16048876231E+03  0.12508990267E+03 0.  0.
         24    2    1    2    0    0  0.54679355292E+02 -0.58694872487E+02  0.64412844600E+02  0.13271621721E+03  0.83843066550E+02 0.  0.
        -11    1    5    5    0    0  0.31777773388E+02 -0.72874966283E+02  0.69148989828E+02  0.10536683722E+03  0.00000000000E+00 0.  1.
         12    1    5    5    0    0  0.22901581904E+02  0.14180093796E+02 -0.47361452276E+01  0.27349379982E+02  0.00000000000E+00 0. -1.
         11    1    3    3    0    0  0.29064715153E+02  0.17699723895E+01 -0.35562464176E+03  0.35681476469E+03  0.00000000000E+00 0. -1.
        -12    1    3    3    0    0 -0.39469002426E+02 -0.30323621642E+02 -0.25473365669E+03  0.25955068876E+03  0.00000000000E+00 0.  1.
          5    1    4    4  501    0  0.19404793496E+02  0.65422075640E+02  0.29949927776E+02  0.74639564344E+02  0.41800000000E+01 0.  1.
         -5    1    4    4    0  501 -0.63679861516E+02  0.21826446100E+02 -0.53113970661E+02  0.85849197966E+02  0.41800000000E+01 0.  1.
</event>
<event>
11    1  0.8328696E-009  0.1602504E+03  0.7561462E-02  0.1086842E+00
         22   -1    0    0    0    0  0.00000000000E+00  0.00000000000E+00  0.11679094239E+03  0.11679094239E+03  0.00000000000E+00 0. -1.
         22   -1    0    0    0    0 -0.00000000000E+00 -0.00000000000E+00 -0.85647031931E+03  0.85647031931E+03  0.00000000000E+00 0. -1.
         24    2    1    2    0    0 -0.11907025814E+01  0.27877563154E+02 -0.49120211436E+03  0.49777951214E+03  0.75672645344E+02 0.  0.
         25    2    1    2    0    0  0.40443874620E+01  0.76084466662E+02 -0.29492343366E+03  0.32928998421E+03  0.12508740480E+03 0.  0.
        -24    2    1    2    0    0 -0.28536848806E+01 -0.10396202982E+03  0.46446171103E+02  0.14619176535E+03  0.91643539236E+02 0.  0.
        -11    1    3    3    0    0 -0.84324118257E+00  0.37413959760E+02 -0.10517827242E+03  0.11163773748E+03  0.00000000000E+00 0.  1.
         12    1    3    3    0    0 -0.34746139888E+00 -0.95363966063E+01 -0.38602384194E+03  0.38614177466E+03  0.00000000000E+00 0. -1.
         13    1    5    5    0    0  0.18960428668E+02 -0.77678187995E+02  0.68705317852E+02  0.10542210132E+03  0.00000000000E+00 0. -1.
        -14    1    5    5    0    0 -0.21814113549E+02 -0.26283841821E+02 -0.22259146749E+02  0.40769664026E+02  0.00000000000E+00 0.  1.
          5    1    4    4  501    0  0.45011907893E+02 -0.13600807744E+02 -0.10942163296E+03  0.11917054998E+03  0.41800000000E+01 0. -1.
         -5    1    4    4    0  501 -0.40967520431E+02  0.89685274406E+02 -0.18550180070E+03  0.21011943422E+03  0.41800000000E+01 0. -1.
</event>
<event>
11    1  0.8328696E-009  0.1452657E+03  0.7561462E-02  0.1101817E+00
         22   -1    0    0    0    0  0.00000000000E+00  0.00000000000E+00  0.62514701659E+03  0.62514701659E+03  0.00000000000E+00 0.  1.
         22   -1    0    0    0    0 -0.00000000000E+00 -0.00000000000E+00 -0.13303010880E+04  0.13303010880E+04  0.00000000000E+00 0.  1.
        -24    2    1    2    0    0 -0.51684599495E+02 -0.49655168874E+02 -0.11539112313E+04  0.11587767280E+04  0.78201292022E+02 0.  0.
         25    2    1    2    0    0  0.83854180075E+02  0.72388778343E+02 -0.12960590969E+03  0.21146255058E+03  0.12508820778E+03 0.  0.
         24    2    1    2    0    0 -0.32169580580E+02 -0.22733609469E+02  0.57836306960E+03  0.58520882597E+03  0.80086395886E+02 0.  0.
        -11    1    5    5    0    0 -0.64553527713E+01 -0.15029435890E+02  0.52700349352E+03  0.52725727848E+03  0.00000000000E+00 0.  1.
         12    1    5    5    0    0 -0.25714227808E+02 -0.77041735791E+01  0.51359576077E+02  0.57951547496E+02  0.00000000000E+00 0. -1.
         11    1    3    3    0    0 -0.14792140066E+02 -0.28984260479E+02 -0.13062963044E+03  0.13462167400E+03  0.00000000000E+00 0. -1.
        -12    1    3    3    0    0 -0.36892459429E+02 -0.20670908395E+02 -0.10232816009E+04  0.10241550540E+04  0.00000000000E+00 0.  1.
          5    1    4    4  501    0  0.69719190180E+02  0.17379496621E+02 -0.23135673675E+01  0.72011369769E+02  0.41800000000E+01 0. -1.
         -5    1    4    4    0  501  0.14134989895E+02  0.55009281722E+02 -0.12729234233E+03  0.13945118081E+03  0.41800000000E+01 0. -1.
</event>
<event>
11    1  0.8328696E-009  0.1316493E+03  0.7561462E-02  0.1117259E+00
         22   -1    0    0    0    0  0.00000000000E+00  0.00000000000E+00  0.13059155990E+03  0.13059155990E+03  0.00000000000E+00 0.  1.
         22   -1    0    0    0    0 -0.00000000000E+00 -0.00000000000E+00 -0.21017841420E+04  0.21017841420E+04  0.00000000000E+00 0.  1.
        -24    2    1    2    0    0 -0.13068714506E+02 -0.38651450113E+02 -0.18717539575E+04  0.18738523554E+04  0.78708619091E+02 0.  0.
         25    2    1    2    0    0  0.34964656929E+02  0.36292003463E+02 -0.19205427687E+03  0.23467410917E+03  0.12508978976E+03 0.  0.
         24    2    1    2    0    0 -0.21895942423E+02  0.23594466491E+01  0.92615652231E+02  0.12384923731E+03  0.79221053139E+02 0.  0.
        -11    1    5    5    0    0 -0.61075859718E+01 -0.35623041462E+02  0.64786905964E+02  0.74186568014E+02  0.00000000000E+00 0.  1.
         12    1    5    5    0    0 -0.15788356451E+02  0.37982488111E+02  0.27828746267E+02  0.49662669293E+02  0.00000000000E+00 0. -1.
         11    1    3    3    0    0 -0.85758670868E+00  0.22617913737E+02 -0.76651324512E+03  0.76684735145E+03  0.00000000000E+00 0. -1.
        -12    1    3    3    0    0 -0.12211127797E+02 -0.61269363850E+02 -0.11052407124E+04  0.11070050040E+04  0.00000000000E+00 0.  1.
          5    1    4    4  501    0 -0.18969102184E+02  0.34536076196E+02 -0.49893568197E+01  0.39936618261E+02  0.41800000000E+01 0.  1.
         -5    1    4    4    0  501  0.53933759113E+02  0.17559272678E+01 -0.18706492005E+03  0.19473749091E+03  0.41800000000E+01 0.  1.
</event>
<event>
11    1  0.8328696E-009  0.1494795E+03  0.7561462E-02  0.1097412E+00
         22   -1    0    0    0    0  0.00000000000E+00  0.00000000000E+00  0.17996100551E+03  0.17996100551E+03  0.00000000000E+00 0.  1.
         22   -1    0    0    0    0 -0.00000000000E+00 -0.00000000000E+00 -0.19536504818E+04  0.19536504818E+04  0.00000000000E+00 0.  1.
        -24    2    1    2    0    0 -0.33342906987E+02 -0.63499998123E+01 -0.71324442068E+03  0.71850902844E+03  0.79909626278E+02 0.  0.
         25    2    1    2    0    0  0.11375460436E+03 -0.60198213470E+01 -0.12131327460E+04  0.12248727577E+04  0.12508343157E+03 0.  0.
         24    2    1    2    0    0 -0.80411697370E+02  0.12369821159E+02  0.15268769043E+03  0.19022970113E+03  0.79087008001E+02 0.  0.
        -13    1    5    5    0    0 -0.80138638742E+02 -0.24281381188E+01  0.15569594606E+03  0.17512659676E+03  0.00000000000E+00 0.  1.
         14    1    5    5    0    0 -0.27305862718E+00  0.14797959278E+02 -0.30082556248E+01  0.15103104373E+02  0.00000000000E+00 0. -1.
         13    1    3    3    0    0 -0.81262335159E+01 -0.41746638940E+01 -0.62671501621E+01  0.11078838429E+02  0.00000000000E+00 0. -1.
        -14    1    3    3    0    0 -0.25216673471E+02 -0.21753359183E+01 -0.70697727052E+03  0.70743019001E+03  0.00000000000E+00 0.  1.
          5    1    4    4  501    0  0.60097982797E+02  0.91577433921E+01 -0.10616724015E+04  0.10634196690E+04  0.41800000000E+01 0. -1.
         -5    1    4    4    0  501  0.53656621560E+02 -0.15177564739E+02 -0.15146034452E+03  0.16145308876E+03  0.41800000000E+01 0. -1.
</event>
<event>
11    1  0.8328696E-009  0.1914290E+03  0.7561462E-02  0.1060756E+00
         22   -1    0    0    0    0  0.00000000000E+00  0.00000000000E+00  0.53075187406E+03  0.53075187406E+03  0.00000000000E+00 0. -1.
         22   -1    0    0    0    0 -0.00000000000E+00 -0.00000000000E+00 -0.94677567414E+02  0.94677567414E+02  0.00000000000E+00 0. -1.
        -24    2    1    2    0    0  0.45798710123E+02  0.13249264543E+03  0.98268745017E+02  0.18947766666E+03  0.81198626671E+02 0.  0.
         25    2    1    2    0    0 -0.84864143309E+02 -0.13207399492E+03  0.24571571839E+03  0.31728147935E+03  0.12508341184E+03 0.  0.
         24    2    1    2    0    0  0.39065433186E+02 -0.41865050928E+00  0.92089843235E+02  0.11867029546E+03  0.63842121360E+02 0.  0.
        -13    1    5    5    0    0  0.45766911682E+02  0.22255549712E+02  0.57695550982E+02  0.76933063770E+02  0.00000000000E+00 0.  1.
         14    1    5    5    0    0 -0.67014784963E+01 -0.22674200221E+02  0.34394292253E+02  0.41737231692E+02  0.00000000000E+00 0. -1.
         13    1    3    3    0    0  0.29343824025E+02  0.11086167425E+03  0.33866551092E+02  0.11957555816E+03  0.00000000000E+00 0. -1.
        -14    1    3    3    0    0  0.16454886098E+02  0.21630971183E+02  0.64402193924E+02  0.69902108502E+02  0.00000000000E+00 0.  1.
          5    1    4    4  501    0 -0.59805555468E+02 -0.97817209794E+02  0.65542855626E+02  0.13212966858E+03  0.41800000000E+01 0.  1.
         -5    1    4    4    0  501 -0.25058587841E+02 -0.34256785130E+02  0.18017286277E+03  0.18515181076E+03  0.41800000000E+01 0.  1.
</event>
<event>
11    1  0.8328696E-009  0.1625034E+03  0.7561462E-02  0.1084746E+00
         22   -1    0    0    0    0  0.00000000000E+00  0.00000000000E+00  0.16089070757E+03  0.16089070757E+03  0.00000000000E+00 0.  1.
         22   -1    0    0    0    0 -0.00000000000E+00 -0.00000000000E+00 -0.17897425520E+04  0.17897425520E+04  0.00000000000E+00 0.  1.
         24    2    1    2    0    0  0.29894361325E+02  0.98709838057E+02 -0.16680665622E+04  0.16732269573E+04  0.81271703756E+02 0.  0.
         25    2    1    2    0    0 -0.66481487804E+02 -0.10923189815E+03 -0.24853600410E+01  0.17890012817E+03  0.12509069929E+03 0.  0.
        -24    2    1    2    0    0  0.36587126479E+02  0.10522060095E+02  0.41700077808E+02  0.98506174084E+02  0.80717025905E+02 0.  0.
        -13    1    3    3    0    0  0.57580207062E+02  0.57046603873E+02 -0.98240420369E+03  0.98574226585E+03  0.00000000000E+00 0.  1.
         14    1    3    3    0    0 -0.27685845737E+02  0.41663234185E+02 -0.68566235849E+03  0.68748469146E+03  0.00000000000E+00 0. -1.
         13    1    5    5    0    0 -0.12093343570E+02  0.16440128961E+02  0.44943288490E+02  0.49360165916E+02  0.00000000000E+00 0. -1.
        -14    1    5    5    0    0  0.48680470049E+02 -0.59180688657E+01 -0.32432106826E+01  0.49146008168E+02  0.00000000000E+00 0.  1.
          5    1    4    4  501    0 -0.25765459385E+02 -0.10312721226E+03 -0.48586655774E+02  0.11694963157E+03  0.41800000000E+01 0. -1.
         -5    1    4    4    0  501 -0.40716028420E+02 -0.61046858916E+01  0.46101295733E+02  0.61950496595E+02  0.41800000000E+01 0. -1.
</event>
<event>
11    1  0.8328696E-009  0.1681623E+03  0.7561462E-02  0.1079642E+00
         22   -1    0    0    0    0  0.00000000000E+00  0.00000000000E+00  0.23459335355E+04  0.23459335355E+04  0.00000000000E+00 0.  1.
         22   -1    0    0    0    0 -0.00000000000E+00 -0.00000000000E+00 -0.16444209380E+03  0.16444209380E+03  0.00000000000E+00 0.  1.
        -24    2    1    2    0    0 -0.44838766671E+02  0.10427824983E+03 -0.12360926120E+03  0.18463970128E+03  0.76994165036E+02 0.  0.
         25    2    1    2    0    0 -0.63797664813E+02 -0.10025958391E+03  0.11970290959E+04  0.12094004054E+04  0.12509419570E+03 0.  0.
         24    2    1    2    0    0  0.10863643148E+03 -0.40186659162E+01  0.11080716069E+04  0.11163355226E+04  0.81020300237E+02 0.  0.
        -11    1    5    5    0    0  0.85586827157E+02  0.27820384100E+02  0.90730396187E+03  0.91175630405E+03  0.00000000000E+00 0.  1.
         12    1    5    5    0    0  0.23049604327E+02 -0.31839050016E+02  0.20076764507E+03  0.20457921857E+03  0.00000000000E+00 0. -1.
         11    1    3    3    0    0 -0.90544798041E+01  0.49791067343E+01  0.99924722650E+01  0.14374442958E+02  0.00000000000E+00 0. -1.
        -12    1    3    3    0    0 -0.35784286867E+02  0.99299143097E+02 -0.13360173346E+03  0.17026525832E+03  0.00000000000E+00 0.  1.
          5    1    4    4  501    0 -0.11649598454E+02  0.11512987222E+02  0.57493901706E+03  0.57518745445E+03  0.41800000000E+01 0.  1.
         -5    1    4    4    0  501 -0.52148066358E+02 -0.11177257114E+03  0.62209007888E+03  0.63421295093E+03  0.41800000000E+01 0.  1.
</event>
<event>
11    1  0.8328696E-009  0.1436561E+03  0.7561462E-02  0.1103543E+00
         22   -1    0    0    0    0  0.00000000000E+00  0.00000000000E+00  0.13668387580E+03  0.13668387580E+03  0.00000000000E+00 0.  1.
         22   -1    0    0    0    0 -0.00000000000E+00 -0.00000000000E+00 -0.11453754701E+04  0.11453754701E+04  0.00000000000E+00 0.  1.
        -24    2    1    2    0    0 -0.32800320767E+02 -0.57217625026E+02 -0.58721189245E+03  0.59641297983E+03  0.80875943393E+02 0.  0.
         25    2    1    2    0    0  0.81452472714E+02  0.41945235112E+02 -0.52379204745E+03  0.54626036274E+03  0.12509343259E+03 0.  0.
         24    2    1    2    0    0 -0.48652151948E+02  0.15272389913E+02  0.10231234560E+03  0.13938600331E+03  0.79751890724E+02 0.  0.
        -13    1    5    5    0    0 -0.12009542369E+02 -0.20583626342E+02  0.79999560645E+02  0.83473615500E+02  0.00000000000E+00 0.  1.
         14    1    5    5    0    0 -0.36642609578E+02  0.35856016255E+02  0.22312784958E+02  0.55912387813E+02  0.00000000000E+00 0. -1.
         13    1    3    3    0    0  0.53477580867E+01  0.76530429428E+01 -0.78906430159E+01  0.12224149461E+02  0.00000000000E+00 0. -1.
        -14    1    3    3    0    0 -0.38148078853E+02 -0.64870667969E+02 -0.57932124943E+03  0.58418883037E+03  0.00000000000E+00 0.  1.
          5    1    4    4  501    0  0.10138611199E+03  0.23146438684E+02 -0.24629922436E+03  0.26738676417E+03  0.41800000000E+01 0.  1.
         -5    1    4    4    0  501 -0.19933639276E+02  0.18798796429E+02 -0.27749282308E+03  0.27887359858E+03  0.41800000000E+01 0.  1.
</event>
<event>
11    1  0.8328696E-009  0.2214271E+03  0.7561462E-02  0.1040327E+00
         22   -1    0    0    0    0  0.00000000000E+00  0.00000000000E+00  0.16592846055E+04  0.16592846055E+04  0.00000000000E+00 0.  1.
         22   -1    0    0    0    0 -0.00000000000E+00 -0.00000000000E+00 -0.15267910705E+03  0.15267910705E+03  0.00000000000E+00 0. -1.
         24    2    1    2    0    0 -0.73163305089E+02  0.10222759184E+03  0.15396686707E+03  0.21424251932E+03  0.79941923815E+02 0.  0.
         25    2    1    2    0    0  0.17514264927E+03 -0.24451095842E+03  0.11542479038E+03  0.34558830955E+03  0.12509133097E+03 0.  0.
        -24    2    1    2    0    0 -0.10197934418E+03  0.14228336658E+03  0.12372138410E+04  0.12521328837E+04  0.80587387208E+02 0.  0.
        -13    1    3    3    0    0 -0.64214442184E+02  0.43900011438E+02  0.12797710092E+03  0.14976262534E+03  0.00000000000E+00 0.  1.
         14    1    3    3    0    0 -0.89488629054E+01  0.58327580399E+02  0.25989766151E+02  0.64479893975E+02  0.00000000000E+00 0. -1.
         11    1    5    5    0    0 -0.78810465348E+02  0.55024270377E+02  0.47786871057E+03  0.48743949811E+03  0.00000000000E+00 0. -1.
        -12    1    5    5    0    0 -0.23168878830E+02  0.87259096203E+02  0.75934513042E+03  0.76469338555E+03  0.00000000000E+00 0.  1.
          5    1    4    4  501    0  0.55653695403E+02 -0.17106810701E+03  0.95952344159E+02  0.20392634895E+03  0.41800000000E+01 0. -1.
         -5    1    4    4    0  501  0.11948895386E+03 -0.73442851411E+02  0.19472446222E+02  0.14166196060E+03  0.41800000000E+01 0. -1.
</event>
<event>
11    1  0.8328696E-009  0.1500511E+03  0.7561462E-02  0.1096827E+00
         22   -1    0    0    0    0  0.00000000000E+00  0.00000000000E+00  0.56122739988E+03  0.56122739988E+03  0.00000000000E+00 0.  1.
         22   -1    0    0    0    0 -0.00000000000E+00 -0.00000000000E+00 -0.99770019505E+03  0.99770019505E+03  0.00000000000E+00 0.  1.
        -24    2    1    2    0    0  0.12800288264E+02  0.74998782687E+02 -0.67555640965E+03  0.68492698476E+03  0.83425697743E+02 0.  0.
         25    2    1    2    0    0 -0.32813572542E+02 -0.11276933332E+03 -0.29003847911E+03  0.33699300195E+03  0.12509320892E+03 0.  0.
         24    2    1    2    0    0  0.20013284278E+02  0.37770550632E+02  0.52912209360E+03  0.53700760823E+03  0.81116184064E+02 0.  0.
        -13    1    5    5    0    0  0.22987165128E+02  0.61343870456E+02  0.32728418590E+03  0.33377600055E+03  0.00000000000E+00 0.  1.
         14    1    5    5    0    0 -0.29738808503E+01 -0.23573319824E+02  0.20183790770E+03  0.20323160767E+03  0.00000000000E+00 0. -1.
         13    1    3    3    0    0 -0.20994802612E+02  0.11310237013E+02 -0.51898648878E+02  0.57115435334E+02  0.00000000000E+00 0. -1.
        -14    1    3    3    0    0  0.33795090875E+02  0.63688545674E+02 -0.62365776078E+03  0.62781154943E+03  0.00000000000E+00 0.  1.
          5    1    4    4  501    0 -0.52904350171E+02 -0.19395439903E+01 -0.55709536452E+02  0.76965297048E+02  0.41800000000E+01 0. -1.
         -5    1    4    4    0  501  0.20090777630E+02 -0.11082978933E+03 -0.23432894266E+03  0.26002770490E+03  0.41800000000E+01 0. -1.
</event>
<event>
11    1  0.8328696E-009  0.1486560E+03  0.7561462E-02  0.1098260E+00
         22   -1    0    0    0    0  0.00000000000E+00  0.00000000000E+00  0.50108174598E+03  0.50108174598E+03  0.00000000000E+00 0. -1.
         22   -1    0    0    0    0 -0.00000000000E+00 -0.00000000000E+00 -0.51887469476E+03  0.51887469476E+03  0.00000000000E+00 0. -1.
         24    2    1    2    0    0 -0.78312897776E+02  0.74738563627E+01 -0.41586400778E+03  0.43116054020E+03  0.82266457179E+02 0.  0.
         25    2    1    2    0    0  0.92679819882E+02 -0.26728140806E+02 -0.22681368707E+02  0.15958478148E+03  0.12509562530E+03 0.  0.
        -24    2    1    2    0    0 -0.14366922106E+02  0.19254284443E+02  0.42075242770E+03  0.42921111906E+03  0.81316931766E+02 0.  0.
        -13    1    3    3    0    0  0.60025992469E+00 -0.27358059498E+02 -0.89513118750E+02  0.93602468770E+02  0.00000000000E+00 0.  1.
         14    1    3    3    0    0 -0.78913157701E+02  0.34831915861E+02 -0.32635088903E+03  0.33755807143E+03  0.00000000000E+00 0. -1.
         13    1    5    5    0    0 -0.25825460470E+02  0.85031982490E+01  0.40818857449E+03  0.40909310814E+03  0.00000000000E+00 0. -1.
        -14    1    5    5    0    0  0.11458538364E+02  0.10751086194E+02  0.12563853213E+02  0.20118010919E+02  0.00000000000E+00 0.  1.
          5    1    4    4  501    0  0.21936926572E+02  0.24343520471E+00 -0.67777827665E+02  0.71362415396E+02  0.41800000000E+01 0. -1.
         -5    1    4    4    0  501  0.70742893310E+02 -0.26971576011E+02  0.45096458959E+02  0.88222366081E+02  0.41800000000E+01 0. -1.
</event>
<event>
11    1  0.8328696E-009  0.1637251E+03  0.7561462E-02  0.1083625E+00
         22   -1    0    0    0    0  0.00000000000E+00  0.00000000000E+00  0.79786313291E+03  0.79786313291E+03  0.00000000000E+00 0. -1.
         22   -1    0    0    0    0 -0.00000000000E+00 -0.00000000000E+00 -0.50556608200E+03  0.50556608200E+03  0.00000000000E+00 0.  1.
        -24    2    1    2    0    0 -0.11168292781E+02 -0.99933713935E+00 -0.37485174801E+03  0.38335642711E+03  0.79514701712E+02 0.  0.
         25    2    1    2    0    0  0.11624252231E+03 -0.17553440348E+01 -0.60007098621E+02  0.18100676263E+03  0.12508873254E+03 0.  0.
         24    2    1    2    0    0 -0.10507422953E+03  0.27546811742E+01  0.72715589754E+03  0.73906602515E+03  0.80091873700E+02 0.  0.
        -13    1    5    5    0    0 -0.78312996193E+02 -0.11703631315E+02  0.28297219137E+03  0.29384206889E+03  0.00000000000E+00 0.  1.
         14    1    5    5    0    0 -0.26761233341E+02  0.14458312489E+02  0.44418370616E+03  0.44522395626E+03  0.00000000000E+00 0. -1.
         13    1    3    3    0    0 -0.23670425466E+02 -0.56951813703E+00 -0.29722442014E+02  0.38000486206E+02  0.00000000000E+00 0. -1.
        -14    1    3    3    0    0  0.12502132685E+02 -0.42981900232E+00 -0.34512930599E+03  0.34535594091E+03  0.00000000000E+00 0.  1.
          5    1    4    4  501    0  0.96290302468E+02  0.54341658722E+02 -0.45126757814E+02  0.11949366047E+03  0.41800000000E+01 0. -1.
         -5    1    4    4    0  501  0.19952219846E+02 -0.56097002757E+02 -0.14880340808E+02  0.61513102163E+02  0.41800000000E+01 0. -1.
</event>
<event>
11    1  0.8328696E-009  0.1812763E+03  0.7561462E-02  0.1068615E+00
         22   -1    0    0    0    0  0.00000000000E+00  0.00000000000E+00  0.81101401067E+03  0.81101401067E+03  0.00000000000E+00 0.  1.
         22   -1    0    0    0    0 -0.00000000000E+00 -0.00000000000E+00 -0.66380075098E+03  0.66380075098E+03  0.00000000000E+00 0.  1.
         24    2    1    2    0    0  0.61598292248E+02  0.12502705108E+03 -0.55692204482E+03  0.57966957517E+03  0.80178172011E+02 0.  0.
         25    2    1    2    0    0 -0.37246659512E+02 -0.77716320396E+02 -0.29499118484E+02  0.15474173348E+03  0.12509063110E+03 0.  0.
        -24    2    1    2    0    0 -0.24351632736E+02 -0.47310730687E+02  0.73363442299E+03  0.74040345299E+03  0.84536970329E+02 0.  0.
        -13    1    3    3    0    0  0.67797476025E+02  0.11365008117E+03 -0.54844844372E+03  0.56418838532E+03  0.00000000000E+00 0.  1.
         14    1    3    3    0    0 -0.61991837770E+01  0.11376969908E+02 -0.84736010947E+01  0.15481189854E+02  0.00000000000E+00 0. -1.
         11    1    5    5    0    0 -0.16540003825E+02  0.62908066197E+01  0.31085897946E+02  0.35769806060E+02  0.00000000000E+00 0. -1.
        -12    1    5    5    0    0 -0.78116289111E+01 -0.53601537306E+02  0.70254852504E+03  0.70463364693E+03  0.00000000000E+00 0.  1.
          5    1    4    4  501    0  0.19853677433E+02  0.24987394761E+02 -0.17259254454E+02  0.36522495381E+02  0.41800000000E+01 0. -1.
         -5    1    4    4    0  501 -0.57100336945E+02 -0.10270371516E+03 -0.12239864030E+02  0.11821923810E+03  0.41800000000E+01 0. -1.
</event>
<event>
11    1  0.8328696E-009  0.1473671E+03  0.7561462E-02  0.1099600E+00
         22   -1    0    0    0    0  0.00000000000E+00  0.00000000000E+00  0.21580358693E+04  0.21580358693E+04  0.00000000000E+00 0.  1.
         22   -1    0    0    0    0 -0.00000000000E+00 -0.00000000000E+00 -0.16511541647E+03  0.16511541647E+03  0.00000000000E+00 0.  1.
         24    2    1    2    0    0  0.14767578570E+02 -0.13076906033E+02 -0.60970253515E+02  0.10319981658E+03  0.80893408144E+02 0.  0.
         25    2    1    2    0    0  0.61143267660E+02  0.31346253275E+02 -0.19066577722E+02  0.14400385595E+03  0.12510990915E+03 0.  0.
        -24    2    1    2    0    0 -0.75910846230E+02 -0.18269347242E+02  0.20729572841E+04  0.20759476132E+04  0.79437810605E+02 0.  0.
        -11    1    3    3    0    0  0.26491810570E+02 -0.43297744338E+02 -0.34868938096E+02  0.61582087785E+02  0.00000000000E+00 0.  1.
         12    1    3    3    0    0 -0.11724232000E+02  0.30220838304E+02 -0.26101315419E+02  0.41617728799E+02  0.00000000000E+00 0. -1.
         13    1    5    5    0    0  0.97043395148E+01 -0.18093648587E+02  0.71459841679E+03  0.71489331484E+03  0.00000000000E+00 0. -1.
        -14    1    5    5    0    0 -0.85615185744E+02 -0.17569865444E+00  0.13583588673E+04  0.13610542984E+04  0.00000000000E+00 0.  1.
          5    1    4    4  501    0  0.77393668721E+02 -0.14650281066E+02 -0.42636257859E+02  0.89664561437E+02  0.41800000000E+01 0. -1.
         -5    1    4    4    0  501 -0.16250401061E+02  0.45996534341E+02  0.23569680138E+02  0.54339294510E+02  0.41800000000E+01 0. -1.
</event>
<event>
11    1  0.8328696E-009  0.2658828E+03  0.7561462E-02  0.1015763E+00
         22   -1    0    0    0    0  0.00000000000E+00  0.00000000000E+00  0.38733622262E+03  0.38733622262E+03  0.00000000000E+00 0.  1.
         22   -1    0    0    0    0 -0.00000000000E+00 -0.00000000000E+00 -0.81165546901E+03  0.81165546901E+03  0.00000000000E+00 0. -1.
        -24    2    1    2    0    0  0.55896651980E+02  0.10127191269E+03 -0.43992681218E+03  0.46711792714E+03  0.10622203995E+03 0.  0.
         25    2    1    2    0    0 -0.60890896576E+02 -0.32138719458E+03 -0.20856275288E+03  0.40760786825E+03  0.12509325421E+03 0.  0.
         24    2    1    2    0    0  0.49942445963E+01  0.22011528188E+03  0.22417031868E+03  0.32426589624E+03  0.80127148284E+02 0.  0.
        -11    1    5    5    0    0 -0.17460973093E+02  0.12145217117E+03  0.16951369967E+03  0.20926158233E+03  0.00000000000E+00 0.  1.
         12    1    5    5    0    0  0.22455217689E+02  0.98663110711E+02  0.54656619004E+02  0.11500431391E+03  0.00000000000E+00 0. -1.
         13    1    3    3    0    0  0.61863926504E+02  0.18216131152E+02 -0.11665982547E+03  0.13329849105E+03  0.00000000000E+00 0. -1.
        -14    1    3    3    0    0 -0.59672745240E+01  0.83055781542E+02 -0.32326698671E+03  0.33381943609E+03  0.00000000000E+00 0.  1.
          5    1    4    4  501    0  0.12862571652E+02 -0.45107525958E+02  0.94135611618E+01  0.48023142143E+02  0.41800000000E+01 0. -1.
         -5    1    4    4    0  501 -0.73753468228E+02 -0.27627966862E+03 -0.21797631404E+03  0.35958472611E+03  0.41800000000E+01 0. -1.
</event>
<event>
11    1  0.8328696E-009  0.1471164E+03  0.7561462E-02  0.1099862E+00
         22   -1    0    0    0    0  0.00000000000E+00  0.00000000000E+00  0.26843224102E+04  0.26843224102E+04  0.00000000000E+00 0.  1.
         22   -1    0    0    0    0 -0.00000000000E+00 -0.00000000000E+00 -0.11908469974E+03  0.11908469974E+03  0.00000000000E+00 0. -1.
        -24    2    1    2    0    0  0.19244641741E+02 -0.36209654618E+02 -0.83186428772E+02  0.12343908545E+03  0.81459993623E+02 0.  0.
         25    2    1    2    0    0 -0.17329709108E+02  0.11036382472E+03  0.47550252526E+03  0.50421757235E+03  0.12510881709E+03 0.  0.
         24    2    1    2    0    0 -0.19149326334E+01 -0.74154170102E+02  0.21729216139E+04  0.21757504521E+04  0.82457150249E+02 0.  0.
        -13    1    5    5    0    0 -0.22543974472E+02 -0.79996488275E+02  0.13541440571E+04  0.13566922260E+04  0.00000000000E+00 0.  1.
         14    1    5    5    0    0  0.20629041839E+02  0.58423181729E+01  0.81877755689E+03  0.81905822608E+03  0.00000000000E+00 0. -1.
         13    1    3    3    0    0  0.21502354236E+01 -0.52518529111E+02 -0.84787799963E+02  0.99758660952E+02  0.00000000000E+00 0. -1.
        -14    1    3    3    0    0  0.17094406317E+02  0.16308874494E+02  0.16013711911E+01  0.23680424495E+02  0.00000000000E+00 0.  1.
          5    1    4    4  501    0 -0.15770918909E+02  0.80548635597E+01  0.39593527473E+00  0.18199776783E+02  0.41800000000E+01 0.  1.
         -5    1    4    4    0  501 -0.15587901982E+01  0.10230896116E+03  0.47510658998E+03  0.48601779556E+03  0.41800000000E+01 0.  1.
</event>
<event>
11    1  0.8328696E-009  0.1905345E+03  0.7561462E-02  0.1061427E+00
         22   -1    0    0    0    0  0.00000000000E+00  0.00000000000E+00  0.10131037385E+03  0.10131037385E+03  0.00000000000E+00 0. -1.
         22   -1    0    0    0    0 -0.00000000000E+00 -0.00000000000E+00 -0.60688952442E+03  0.60688952442E+03  0.00000000000E+00 0.  1.
         24    2    1    2    0    0  0.92445714838E+01 -0.23661398003E+02 -0.25778144260E+03  0.27116691305E+03  0.80217820506E+02 0.  0.
         25    2    1    2    0    0 -0.87666946315E+02  0.12777783938E+03 -0.92714234075E+02  0.21968809859E+03  0.12511699225E+03 0.  0.
        -24    2    1    2    0    0  0.78422374831E+02 -0.10411644138E+03 -0.15508347389E+03  0.21734488663E+03  0.78724923826E+02 0.  0.
        -11    1    3    3    0    0  0.31414062909E+02  0.18476918711E+02 -0.11782732258E+03  0.12333498214E+03  0.00000000000E+00 0.  1.
         12    1    3    3    0    0 -0.22169491425E+02 -0.42138316714E+02 -0.13995412002E+03  0.14783193091E+03  0.00000000000E+00 0. -1.
         13    1    5    5    0    0  0.56860874711E+02 -0.17838486526E+02 -0.39447354767E+02  0.71466526938E+02  0.00000000000E+00 0. -1.
        -14    1    5    5    0    0  0.21561500120E+02 -0.86277954850E+02 -0.11563611913E+03  0.14587835969E+03  0.00000000000E+00 0.  1.
          5    1    4    4  501    0 -0.52512839733E+02  0.11929893399E+02 -0.81850153447E+02  0.98065491957E+02  0.41800000000E+01 0.  1.
         -5    1    4    4    0  501 -0.35154106581E+02  0.11584794598E+03 -0.10864080628E+02  0.12162260664E+03  0.41800000000E+01 0.  1.
</event>
<event>
11    1  0.8328696E-009  0.2079588E+03  0.7561462E-02  0.1049034E+00
         22   -1    0    0    0    0  0.00000000000E+00  0.00000000000E+00  0.87956590458E+02  0.87956590458E+02  0.00000000000E+00 0. -1.
         22   -1    0    0    0    0 -0.00000000000E+00 -0.00000000000E+00 -0.15997930203E+04  0.15997930203E+04  0.00000000000E+00 0.  1.
        -24    2    1    2    0    0  0.44011628469E+02  0.69255882981E+02 -0.81664487572E+03  0.82470694853E+03  0.80618218466E+02 0.  0.
         25    2    1    2    0    0 -0.29507609201E+02 -0.22321087030E+03 -0.61773154321E+03  0.66927335199E+03  0.12506305840E+03 0.  0.
         24    2    1    2    0    0 -0.14504019268E+02  0.15395498732E+03 -0.77460010916E+02  0.19376931025E+03  0.87372693710E+02 0.  0.
        -11    1    5    5    0    0 -0.35865222577E+02  0.43001375093E+02 -0.55155991068E+02  0.78597810408E+02  0.00000000000E+00 0.  1.
         12    1    5    5    0    0  0.21361203309E+02  0.11095361223E+03 -0.22304019848E+02  0.11517149984E+03  0.00000000000E+00 0. -1.
         13    1    3    3    0    0  0.63398353082E+02  0.55701574334E+02 -0.73100134663E+03  0.73585663368E+03  0.00000000000E+00 0. -1.
        -14    1    3    3    0    0 -0.19386724613E+02  0.13554308647E+02 -0.85643529086E+02  0.88850314847E+02  0.00000000000E+00 0.  1.
          5    1    4    4  501    0 -0.21971236841E+02 -0.14621256948E+03 -0.22702615685E+03  0.27095977380E+03  0.41800000000E+01 0. -1.
         -5    1    4    4    0  501 -0.75363723593E+01 -0.76998300828E+02 -0.39070538636E+03  0.39831357819E+03  0.41800000000E+01 0. -1.
</event>
<event>
11    1  0.8328696E-009  0.1556193E+03  0.7561462E-02  0.1091271E+00
         22   -1    0    0    0    0  0.00000000000E+00  0.00000000000E+00  0.14730476113E+03  0.14730476113E+03  0.00000000000E+00 0. -1.
         22   -1    0    0    0    0 -0.00000000000E+00 -0.00000000000E+00 -0.52288601453E+03  0.52288601453E+03  0.00000000000E+00 0.  1.
         24    2    1    2    0    0  0.16146912819E+02  0.85708657563E+02 -0.33448190746E+03  0.35489746194E+03  0.80419930969E+02 0.  0.
         25    2    1    2    0    0 -0.11732501446E+02 -0.11706044065E+03 -0.10931102295E+03  0.20356107335E+03  0.12508961783E+03 0.  0.
        -24    2    1    2    0    0 -0.44144113729E+01  0.31351783084E+02  0.68211677006E+02  0.11173224037E+03  0.82636791613E+02 0.  0.
        -13    1    3    3    0    0  0.31115956722E+02  0.90593474806E+02 -0.31795514569E+03  0.33207055743E+03  0.00000000000E+00 0.  1.
         14    1    3    3    0    0 -0.14969043903E+02 -0.48848172430E+01 -0.16526761771E+02  0.22826904510E+02  0.00000000000E+00 0. -1.
         11    1    5    5    0    0 -0.24057316986E+02  0.53577026537E+02  0.42756289965E+02  0.72645389425E+02  0.00000000000E+00 0. -1.
        -12    1    5    5    0    0  0.19642905614E+02 -0.22225243453E+02  0.25455387041E+02  0.39086850946E+02  0.00000000000E+00 0.  1.
          5    1    4    4  501    0  0.52321353536E+02 -0.64293928837E+02 -0.80471374111E+02  0.11560427229E+03  0.41800000000E+01 0. -1.
         -5    1    4    4    0  501 -0.64053854982E+02 -0.52766511811E+02 -0.28839648842E+02  0.87956801056E+02  0.41800000000E+01 0. -1.
</event>
<event>
11    1  0.8328696E-009  0.1405699E+03  0.7561462E-02  0.1106924E+00
         22   -1    0    0    0    0  0.00000000000E+00  0.00000000000E+00  0.13151737597E+04  0.13151737597E+04  0.00000000000E+00 0.  1.
         22   -1    0    0    0    0 -0.00000000000E+00 -0.00000000000E+00 -0.10700125927E+04  0.10700125927E+04  0.00000000000E+00 0. -1.
        -24    2    1    2    0    0 -0.17863311674E+02  0.29859611103E+02 -0.10472652115E+04  0.10508860183E+04  0.79914366442E+02 0.  0.
         25    2    1    2    0    0 -0.48412803520E+02 -0.28510619137E+02  0.23762429224E+03  0.27435384377E+03  0.12509225547E+03 0.  0.
         24    2    1    2    0    0  0.66276115194E+02 -0.13489919666E+01  0.10548020862E+04  0.10599464904E+04  0.80528119783E+02 0.  0.
        -13    1    5    5    0    0  0.53131814287E+02  0.35001810796E+02  0.75208812812E+03  0.75477458152E+03  0.00000000000E+00 0.  1.
         14    1    5    5    0    0  0.13144300908E+02 -0.36350802762E+02  0.30271395812E+03  0.30517190884E+03  0.00000000000E+00 0. -1.
         13    1    3    3    0    0 -0.36948457434E+02  0.19461923455E+02 -0.96161497959E+03  0.96252133687E+03  0.00000000000E+00 0. -1.
        -14    1    3    3    0    0  0.19085145760E+02  0.10397687648E+02 -0.85650231928E+02  0.88364681442E+02  0.00000000000E+00 0.  1.
          5    1    4    4  501    0 -0.20689108360E+02 -0.39107123469E+02  0.11032866212E+02  0.45788675976E+02  0.41800000000E+01 0. -1.
         -5    1    4    4    0  501 -0.27723695160E+02  0.10596504332E+02  0.22659142603E+03  0.22856516779E+03  0.41800000000E+01 0. -1.
</event>
<event>
11    1  0.8328696E-009  0.2148663E+03  0.7561462E-02  0.1044482E+00
         22   -1    0    0    0    0  0.00000000000E+00  0.00000000000E+00  0.13799251547E+04  0.13799251547E+04  0.00000000000E+00 0.  1.
         22   -1    0    0    0    0 -0.00000000000E+00 -0.00000000000E+00 -0.11468059522E+04  0.11468059522E+04  0.00000000000E+00 0.  1.
         24    2    1    2    0    0 -0.75025419147E+01  0.15511414804E+02 -0.10296830682E+04  0.10329141319E+04  0.79796559010E+02 0.  0.
         25    2    1    2    0    0 -0.13488884502E+03 -0.11639202129E+03  0.13405240750E+01  0.21770401836E+03  0.12510451421E+03 0.  0.
        -24    2    1    2    0    0  0.14239138694E+03  0.10088060649E+03  0.12614617467E+04  0.12761129566E+04  0.82014242644E+02 0.  0.
        -11    1    3    3    0    0  0.10149062250E+02  0.37307257725E+02 -0.86470859850E+03  0.86557252456E+03  0.00000000000E+00 0.  1.
         12    1    3    3    0    0 -0.17651604165E+02 -0.21795842921E+02 -0.16497446966E+03  0.16734160731E+03  0.00000000000E+00 0. -1.
         13    1    5    5    0    0  0.22250146747E+02 -0.98346386552E+01  0.28908101629E+03  0.29010278028E+03  0.00000000000E+00 0. -1.
        -14    1    5    5    0    0  0.12014124019E+03  0.11071524514E+03  0.97238073036E+03  0.98601017636E+03  0.00000000000E+00 0.  1.
          5    1    4    4  501    0 -0.14034206666E+03 -0.12965149547E+03  0.21827104449E+02  0.19235202323E+03  0.41800000000E+01 0. -1.
         -5    1    4    4    0  501  0.54532216414E+01  0.13259474178E+02 -0.20486580374E+02  0.25351995131E+02  0.41800000000E+01 0. -1.
</event>
<event>
11    1  0.8328696E-009  0.1464304E+03  0.7561462E-02  0.1100583E+00
         22   -1    0    0    0    0  0.00000000000E+00  0.00000000000E+00  0.30747676569E+03  0.30747676569E+03  0.00000000000E+00 0. -1.
         22   -1    0    0    0    0 -0.00000000000E+00 -0.00000000000E+00 -0.39384458473E+03  0.39384458473E+03  0.00000000000E+00 0.  1.
         24    2    1    2    0    0 -0.60803603528E+02 -0.78405534841E+01 -0.13913648059E+03  0.17204552737E+03  0.80511805195E+02 0.  0.
         25    2    1    2    0    0  0.10664058784E+03 -0.50968359909E+02 -0.19400057735E+03  0.25933266742E+03  0.12508884720E+03 0.  0.
        -24    2    1    2    0    0 -0.45836984307E+02  0.58808913393E+02  0.24676923890E+03  0.26994315564E+03  0.80092025739E+02 0.  0.
        -13    1    3    3    0    0 -0.65116793463E+02 -0.61525207393E+01 -0.14813098711E+03  0.16192850164E+03  0.00000000000E+00 0.  1.
         14    1    3    3    0    0  0.43131899351E+01 -0.16880327447E+01  0.89945065209E+01  0.10117025725E+02  0.00000000000E+00 0. -1.
         11    1    5    5    0    0 -0.61219794849E+02  0.37429657718E+02  0.22371275967E+03  0.23493880351E+03  0.00000000000E+00 0. -1.
        -12    1    5    5    0    0  0.15382810542E+02  0.21379255675E+02  0.23056479226E+02  0.35004352125E+02  0.00000000000E+00 0.  1.
          5    1    4    4  501    0 -0.13305103712E+01  0.31172458505E+02 -0.15496417099E+02  0.35087088366E+02  0.41800000000E+01 0. -1.
         -5    1    4    4    0  501  0.10797109821E+03 -0.82140818414E+02 -0.17850416025E+03  0.22424557905E+03  0.41800000000E+01 0. -1.
</event>
<event>
11    1  0.8328696E-009  0.1474731E+03  0.7561462E-02  0.1099489E+00
         22   -1    0    0    0    0  0.00000000000E+00  0.00000000000E+00  0.47799851887E+03  0.47799851887E+03  0.00000000000E+00 0.  1.
         22   -1    0    0    0    0 -0.00000000000E+00 -0.00000000000E+00 -0.22091552774E+03  0.22091552774E+03  0.00000000000E+00 0. -1.
        -24    2    1    2    0    0  0.73910473315E+02  0.26126960544E+02 -0.15733377119E+03  0.19366642825E+03  0.81285876649E+02 0.  0.
         25    2    1    2    0    0 -0.47119129625E+02 -0.85306525139E+02  0.13593047173E+03  0.20885840477E+03  0.12508926609E+03 0.  0.
         24    2    1    2    0    0 -0.26791343690E+02  0.59179564595E+02  0.27848629058E+03  0.29638921358E+03  0.77922749718E+02 0.  0.
        -11    1    5    5    0    0 -0.16536543428E+02  0.55077642528E+02  0.27944704910E+03  0.28530274661E+03  0.00000000000E+00 0.  1.
         12    1    5    5    0    0 -0.10254800262E+02  0.41019220662E+01 -0.96075851203E+00  0.11086466974E+02  0.00000000000E+00 0. -1.
         11    1    3    3    0    0  0.54353124466E+02  0.43788320566E+02 -0.15131359202E+03  0.16663577734E+03  0.00000000000E+00 0. -1.
        -12    1    3    3    0    0  0.19557348849E+02 -0.17661360022E+02 -0.60201791658E+01  0.27030650917E+02  0.00000000000E+00 0.  1.
          5    1    4    4  501    0  0.23271164549E+02 -0.27123497139E+02  0.10712743026E+03  0.11300880457E+03  0.41800000000E+01 0.  1.
         -5    1    4    4    0  501 -0.70390294174E+02 -0.58183028000E+02  0.28803041474E+02  0.95849600205E+02  0.41800000000E+01 0.  1.
</event>
<event>
11    1  0.8328696E-009  0.1315950E+03  0.7561462E-02  0.1117325E+00
         22   -1    0    0    0    0  0.00000000000E+00  0.00000000000E+00  0.41729583849E+03  0.41729583849E+03  0.00000000000E+00 0.  1.
         22   -1    0    0    0    0 -0.00000000000E+00 -0.00000000000E+00 -0.12208655477E+03  0.12208655477E+03  0.00000000000E+00 0. -1.
         24    2    1    2    0    0 -0.36374018759E+02 -0.12319476662E+02 -0.48673201760E+02  0.10341756433E+03  0.82772418700E+02 0.  0.
         25    2    1    2    0    0  0.48547007567E+02  0.16079953525E+02  0.74249664775E+02  0.15419342874E+03  0.12508886401E+03 0.  0.
        -24    2    1    2    0    0 -0.12172988809E+02 -0.37604768636E+01  0.26963282070E+03  0.28177140018E+03  0.80814238359E+02 0.  0.
        -11    1    3    3    0    0 -0.16652666000E+02 -0.55783323669E+01  0.22907223304E+02  0.28864683549E+02  0.00000000000E+00 0.  1.
         12    1    3    3    0    0 -0.19721352759E+02 -0.67411442950E+01 -0.71580425064E+02  0.74552880785E+02  0.00000000000E+00 0. -1.
         13    1    5    5    0    0 -0.11245752710E+02  0.20760384012E+02  0.20021270233E+02  0.30956610927E+02  0.00000000000E+00 0. -1.
        -14    1    5    5    0    0 -0.92723609899E+00 -0.24520860875E+02  0.24961155046E+03  0.25081478926E+03  0.00000000000E+00 0.  1.
          5    1    4    4  501    0  0.58178445113E+02  0.58151364237E+02  0.74161026644E+02  0.11083159708E+03  0.41800000000E+01 0.  1.
         -5    1    4    4    0  501 -0.96314375458E+01 -0.42071410712E+02  0.88638131946E-01  0.43361831663E+02  0.41800000000E+01 0.  1.
</event>
<event>
11    1  0.8328696E-009  0.1330582E+03  0.7561462E-02  0.1115567E+00
         22   -1    0    0    0    0  0.00000000000E+00  0.00000000000E+00  0.32008622971E+03  0.32008622971E+03  0.00000000000E+00 0. -1.
         22   -1    0    0    0    0 -0.00000000000E+00 -0.00000000000E+00 -0.29588692651E+03  0.29588692651E+03  0.00000000000E+00 0.  1.
        -24    2    1    2    0    0 -0.41154715326E+02  0.16217687591E+02 -0.23426634627E+03  0.25194795354E+03  0.81488197385E+02 0.  0.
         25    2    1    2    0    0  0.62907156252E+02 -0.12063595913E+01  0.67969444214E+02  0.15565062251E+03  0.12509398599E+03 0.  0.
         24    2    1    2    0    0 -0.21752440926E+02 -0.15011327999E+02  0.19049620525E+03  0.20837458017E+03  0.80203820296E+02 0.  0.
        -13    1    5    5    0    0  0.30241052422E+02 -0.11411577967E+02  0.71742650553E+02  0.78687694538E+02  0.00000000000E+00 0.  1.
         14    1    5    5    0    0 -0.51993493348E+02 -0.35997500326E+01  0.11875355470E+03  0.12968688563E+03  0.00000000000E+00 0. -1.
         13    1    3    3    0    0 -0.15009621890E+02 -0.21849823567E+02 -0.21225466074E+02  0.33959151185E+02  0.00000000000E+00 0. -1.
        -14    1    3    3    0    0 -0.26145093437E+02  0.38067511158E+02 -0.21304088020E+03  0.21798880235E+03  0.00000000000E+00 0.  1.
          5    1    4    4  501    0 -0.16591651875E+02 -0.63473584581E+01  0.73454750344E+02  0.75687810243E+02  0.41800000000E+01 0.  1.
         -5    1    4    4    0  501  0.79498808126E+02  0.51409988668E+01 -0.54853061299E+01  0.79962812271E+02  0.41800000000E+01 0.  1.
</event>
<event>
11    1  0.8328696E-009  0.1534444E+03  0.7561462E-02  0.1093410E+00
         22   -1    0    0    0    0  0.00000000000E+00  0.00000000000E+00  0.19965442977E+03  0.19965442977E+03  0.00000000000E+00 0. -1.
         22   -1    0    0    0    0 -0.00000000000E+00 -0.00000000000E+00 -0.78335265567E+03  0.78335265567E+03  0.00000000000E+00 0. -1.
        -24    2    1    2    0    0 -0.38553047044E+01 -0.75829654678E+02 -0.58371959004E+03  0.59405292612E+03  0.80033238904E+02 0.  0.
         25    2    1    2    0    0 -0.79740412372E+02  0.34958795650E+02 -0.13616363410E+03  0.20437680314E+03  0.12509473072E+03 0.  0.
         24    2    1    2    0    0  0.83595717077E+02  0.40870859027E+02  0.13618499823E+03  0.18457735618E+03  0.82847906658E+02 0.  0.
        -13    1    5    5    0    0 -0.21276316609E+01  0.27186747112E+02  0.57076599080E+01  0.27860786361E+02  0.00000000000E+00 0.  1.
         14    1    5    5    0    0  0.85723348738E+02  0.13684111915E+02  0.13047733833E+03  0.15671656982E+03  0.00000000000E+00 0. -1.
         13    1    3    3    0    0 -0.15234244836E+02 -0.32320329586E+01 -0.31738452924E+03  0.31776637276E+03  0.00000000000E+00 0. -1.
        -14    1    3    3    0    0  0.11378940131E+02 -0.72597621719E+02 -0.26633506080E+03  0.27628655336E+03  0.00000000000E+00 0.  1.
          5    1    4    4  501    0 -0.54873841461E+02  0.30196217382E+02  0.30219060045E+01  0.62845479844E+02  0.41800000000E+01 0.  1.
         -5    1    4    4    0  501 -0.24866570911E+02  0.47625782678E+01 -0.13918554010E+03  0.14153132330E+03  0.41800000000E+01 0.  1.
</event>
<event>
11    1  0.1482054E-008  0.1821132E+03  0.7561462E-02  0.1067946E+00
         22   -1    0    0    0    0  0.00000000000E+00  0.00000000000E+00  0.74038109650E+03  0.74038109650E+03  0.00000000000E+00 0.  1.
         22   -1    0    0    0    0 -0.00000000000E+00 -0.00000000000E+00 -0.13690045206E+04  0.13690045206E+04  0.00000000000E+00 0. -1.
        -24    2    1    2    0    0  0.53371383766E+02  0.93712717871E+02 -0.10582935532E+04  0.10667233811E+04  0.79265055082E+02 0.  0.
         25    2    1    2    0    0 -0.18286688346E+03 -0.10987046073E+03 -0.24648243608E+03  0.34916223991E+03  0.12509541669E+03 0.  0.
         24    2    1    2    0    0  0.12949549969E+03  0.16157742863E+02  0.67615256513E+03  0.69349999613E+03  0.82035335150E+02 0.  0.
        -13    1    5    5    0    0  0.30673451491E+02  0.38537631791E+02  0.29628466519E+03  0.30035081574E+03  0.00000000000E+00 0.  1.
         14    1    5    5    0    0  0.98822048200E+02 -0.22379888928E+02  0.37986789994E+03  0.39314918039E+03  0.00000000000E+00 0. -1.
         13    1    3    3    0    0  0.28523568415E+02  0.82956699110E+02 -0.97924365832E+03  0.98316506765E+03  0.00000000000E+00 0. -1.
        -14    1    3    3    0    0  0.24847815351E+02  0.10756018761E+02 -0.79049894858E+02  0.83558313437E+02  0.00000000000E+00 0.  1.
          5    1    4    4  501    0 -0.78742315783E+01 -0.33613157001E+01  0.14503154698E+02  0.17352690350E+02  0.41800000000E+01 0.  1.
         -5    1    4    4    0  501 -0.17499265188E+03 -0.10650914503E+03 -0.26098559078E+03  0.33180954956E+03  0.41800000000E+01 0.  1.
</event>
<event>
11    1  0.8328696E-009  0.1991570E+03  0.7561462E-02  0.1055121E+00
         22   -1    0    0    0    0  0.00000000000E+00  0.00000000000E+00  0.14780524893E+03  0.14780524893E+03  0.00000000000E+00 0.  1.
         22   -1    0    0    0    0 -0.00000000000E+00 -0.00000000000E+00 -0.97708380398E+03  0.97708380398E+03  0.00000000000E+00 0. -1.
         24    2    1    2    0    0  0.30113157939E+02  0.15134594167E+03 -0.67146885832E+03  0.69358980854E+03  0.79899927879E+02 0.  0.
         25    2    1    2    0    0 -0.15117347909E+02 -0.15703616724E+03 -0.24068859497E+03  0.31379425284E+03  0.12508773457E+03 0.  0.
        -24    2    1    2    0    0 -0.14995810031E+02  0.56902255688E+01  0.82878898244E+02  0.11750499153E+03  0.81738964235E+02 0.  0.
        -13    1    3    3    0    0 -0.26679405785E+02  0.44892830132E+02 -0.17190910267E+03  0.17966606934E+03  0.00000000000E+00 0.  1.
         14    1    3    3    0    0  0.56792563724E+02  0.10645311154E+03 -0.49955975565E+03  0.51392373920E+03  0.00000000000E+00 0. -1.
         13    1    5    5    0    0 -0.39854089499E+02 -0.15515571689E+02  0.70710784101E+02  0.82638347048E+02  0.00000000000E+00 0. -1.
        -14    1    5    5    0    0  0.24858279469E+02  0.21205797258E+02  0.12168114143E+02  0.34866644480E+02  0.00000000000E+00 0.  1.
          5    1    4    4  501    0 -0.18430800656E+02 -0.44003982544E+02 -0.17821196659E+03  0.18453461011E+03  0.41800000000E+01 0.  1.
         -5    1    4    4    0  501  0.33134527470E+01 -0.11303218470E+03 -0.62476628379E+02  0.12925964273E+03  0.41800000000E+01 0.  1.
</event>
<event>
11    1  0.8328696E-009  0.1923807E+03  0.7561462E-02  0.1060046E+00
         22   -1    0    0    0    0  0.00000000000E+00  0.00000000000E+00  0.33022150310E+03  0.33022150310E+03  0.00000000000E+00 0.  1.
         22   -1    0    0    0    0 -0.00000000000E+00 -0.00000000000E+00 -0.24793030065E+03  0.24793030065E+03  0.00000000000E+00 0. -1.
         24    2    1    2    0    0 -0.14666812125E+03  0.10901029737E+02 -0.13714880277E+03  0.21612108918E+03  0.79171717464E+02 0.  0.
         25    2    1    2    0    0  0.13764725443E+03 -0.51460456381E+02  0.11935661796E+03  0.22691096111E+03  0.12509051442E+03 0.  0.
        -24    2    1    2    0    0  0.90208668205E+01  0.40559426644E+02  0.10008338727E+03  0.13511975346E+03  0.80710719485E+02 0.  0.
        -11    1    3    3    0    0 -0.12524548928E+03  0.34589593989E+01 -0.66346408800E+02  0.14177532559E+03  0.00000000000E+00 0.  1.
         12    1    3    3    0    0 -0.21422631969E+02  0.74420703383E+01 -0.70802393975E+02  0.74345763591E+02  0.00000000000E+00 0. -1.
         13    1    5    5    0    0 -0.49135440403E+01 -0.12340503491E+02 -0.68951616769E+01  0.14965767471E+02  0.00000000000E+00 0. -1.
        -14    1    5    5    0    0  0.13934410861E+02  0.52899930135E+02  0.10697854894E+03  0.12015398598E+03  0.00000000000E+00 0.  1.
          5    1    4    4  501    0  0.11916452690E+03 -0.90083883532E+02  0.99444450912E+02  0.17950476807E+03  0.41800000000E+01 0.  1.
         -5    1    4    4    0  501  0.18482727532E+02  0.38623427151E+02  0.19912167045E+02  0.47406193038E+02  0.41800000000E+01 0.  1.
</event>
<event>
11    1  0.8328696E-009  0.1505731E+03  0.7561462E-02  0.1096295E+00
         22   -1    0    0    0    0  0.00000000000E+00  0.00000000000E+00  0.83004634059E+02  0.83004634059E+02  0.00000000000E+00 0.  1.
         22   -1    0    0    0    0 -0.00000000000E+00 -0.00000000000E+00 -0.10923787920E+04  0.10923787920E+04  0.00000000000E+00 0.  1.
        -24    2    1    2    0    0  0.14777379164E+02 -0.45616218463E+02 -0.66621758038E+03  0.67272304985E+03  0.80070138502E+02 0.  0.
         25    2    1    2    0    0  0.66265474271E+02  0.12298186515E+02 -0.35561786667E+03  0.38295276559E+03  0.12508555117E+03 0.  0.
         24    2    1    2    0    0 -0.81042853435E+02  0.33318031948E+02  0.12461289089E+02  0.11970761062E+03  0.80601445209E+02 0.  0.
        -11    1    5    5    0    0 -0.30176297067E+02 -0.61317335842E+01  0.39332637050E+02  0.49952611531E+02  0.00000000000E+00 0.  1.
         12    1    5    5    0    0 -0.50866556368E+02  0.39449765532E+02 -0.26871347961E+02  0.69754999094E+02  0.00000000000E+00 0. -1.
         13    1    3    3    0    0 -0.13242474954E+02 -0.23586975337E+02 -0.64392205467E+02  0.69843143353E+02  0.00000000000E+00 0. -1.
        -14    1    3    3    0    0  0.28019854118E+02 -0.22029243125E+02 -0.60182537491E+03  0.60287990650E+03  0.00000000000E+00 0.  1.
          5    1    4    4  501    0 -0.17838446616E+01 -0.66611343148E+01  0.86787487661E+01  0.11846767166E+02  0.41800000000E+01 0. -1.
         -5    1    4    4    0  501  0.68049318933E+02  0.18959320829E+02 -0.36429661543E+03  0.37110599843E+03  0.41800000000E+01 0. -1.
</event>
<event>
11    1  0.8328696E-009  0.2008922E+03  0.7561462E-02  0.1053895E+00
         22   -1    0    0    0    0  0.00000000000E+00  0.00000000000E+00  0.30712515778E+03  0.30712515778E+03  0.00000000000E+00 0.  1.
         22   -1    0    0    0    0 -0.00000000000E+00 -0.00000000000E+00 -0.18137353776E+04  0.18137353776E+04  0.00000000000E+00 0.  1.
         24    2    1    2    0    0  0.14161779299E+03 -0.68442654818E+02 -0.16374951603E+04  0.16469684121E+04  0.79840805594E+02 0.  0.
         25    2    1    2    0    0 -0.12801805248E+03  0.92972457207E+02 -0.10179348933E+03  0.22592738140E+03  0.12509503443E+03 0.  0.
        -24    2    1    2    0    0 -0.13599740516E+02 -0.24529802389E+02  0.23267842979E+03  0.24796474187E+03  0.80997514628E+02 0.  0.
        -11    1    3    3    0    0  0.12346593644E+03 -0.31899416291E+02 -0.14172575931E+04  0.14229829568E+04  0.00000000000E+00 0.  1.
         12    1    3    3    0    0  0.18151856550E+02 -0.36543238527E+02 -0.22023756719E+03  0.22398545528E+03  0.00000000000E+00 0. -1.
         11    1    5    5    0    0 -0.54164695442E+01  0.28924655845E+02  0.56946787390E+02  0.64100783553E+02  0.00000000000E+00 0. -1.
        -12    1    5    5    0    0 -0.81832709714E+01 -0.53454458234E+02  0.17573164240E+03  0.18386395832E+03  0.00000000000E+00 0.  1.
          5    1    4    4  501    0  0.21328408110E+02  0.27431611199E+02 -0.35420725399E+02  0.49794522522E+02  0.41800000000E+01 0.  1.
         -5    1    4    4    0  501 -0.14934646059E+03  0.65540846008E+02 -0.66372763933E+02  0.17613285888E+03  0.41800000000E+01 0.  1.
</event>
<event>
11    1  0.8328696E-009  0.1380049E+03  0.7561462E-02  0.1109807E+00
         22   -1    0    0    0    0  0.00000000000E+00  0.00000000000E+00  0.86355573087E+02  0.86355573087E+02  0.00000000000E+00 0. -1.
         22   -1    0    0    0    0 -0.00000000000E+00 -0.00000000000E+00 -0.67181882913E+03  0.67181882913E+03  0.00000000000E+00 0.  1.
         24    2    1    2    0    0  0.14154332472E+02 -0.55524427131E+02 -0.47047127976E+03  0.48052502845E+03  0.79232384516E+02 0.  0.
         25    2    1    2    0    0  0.29836105481E+02  0.73004366120E+02 -0.10934592012E+03  0.18391334014E+03  0.12509098997E+03 0.  0.
        -24    2    1    2    0    0 -0.43990437953E+02 -0.17479938990E+02 -0.56460561658E+01  0.93736033626E+02  0.80708482524E+02 0.  0.
        -11    1    3    3    0    0  0.34851555223E+02 -0.25350115059E+02 -0.38692112992E+03  0.38931378092E+03  0.00000000000E+00 0.  1.
         12    1    3    3    0    0 -0.20697222751E+02 -0.30174312072E+02 -0.83550149837E+02  0.91211247532E+02  0.00000000000E+00 0. -1.
         11    1    5    5    0    0 -0.21291596022E+02 -0.30207524408E+02  0.31378077189E+02  0.48481030518E+02  0.00000000000E+00 0. -1.
        -12    1    5    5    0    0 -0.22698841931E+02  0.12727585419E+02 -0.37024133355E+02  0.45255003108E+02  0.00000000000E+00 0.  1.
          5    1    4    4  501    0 -0.19581096727E+02 -0.21635949176E+02  0.20607936210E+01  0.29550853052E+02  0.41800000000E+01 0.  1.
         -5    1    4    4    0  501  0.49417202208E+02  0.94640315296E+02 -0.11140671374E+03  0.15436248709E+03  0.41800000000E+01 0.  1.
</event>
<event>
11    1  0.8328696E-009  0.1300032E+03  0.7561462E-02  0.1119265E+00
         22   -1    0    0    0    0  0.00000000000E+00  0.00000000000E+00  0.44872580697E+03  0.44872580697E+03  0.00000000000E+00 0. -1.
         22   -1    0    0    0    0 -0.00000000000E+00 -0.00000000000E+00 -0.15856466687E+04  0.15856466687E+04  0.00000000000E+00 0. -1.
         24    2    1    2    0    0  0.11890738854E+02  0.29540018757E+02 -0.15172017622E+04  0.15195095605E+04  0.77421669005E+02 0.  0.
         25    2    1    2    0    0  0.23745766831E+02 -0.34236239814E+02  0.78360008796E+01  0.13207584992E+03  0.12508655268E+03 0.  0.
        -24    2    1    2    0    0 -0.35636505685E+02  0.46962210569E+01  0.37244489967E+03  0.38278706518E+03  0.80738583997E+02 0.  0.
        -11    1    3    3    0    0  0.16976565452E+02 -0.21905199496E+02 -0.32203348208E+03  0.32322376943E+03  0.00000000000E+00 0.  1.
         12    1    3    3    0    0 -0.50858265979E+01  0.51445218254E+02 -0.11951682802E+04  0.11962857911E+04  0.00000000000E+00 0. -1.
         11    1    5    5    0    0 -0.14788367355E+02  0.37644015458E+02  0.27286577590E+03  0.27584687666E+03  0.00000000000E+00 0. -1.
        -12    1    5    5    0    0 -0.20848138330E+02 -0.32947794401E+02  0.99579123775E+02  0.10694018851E+03  0.00000000000E+00 0.  1.
          5    1    4    4  501    0 -0.19277890272E+02 -0.64679089620E+02  0.30958717101E+02  0.74370264568E+02  0.41800000000E+01 0. -1.
         -5    1    4    4    0  501  0.43023657103E+02  0.30442849806E+02 -0.23122716221E+02  0.57705585348E+02  0.41800000000E+01 0. -1.
</event>
<event>
11    1  0.8328696E-009  0.1435011E+03  0.7561462E-02  0.1103711E+00
         22   -1    0    0    0    0  0.00000000000E+00  0.00000000000E+00  0.26883655449E+04  0.26883655449E+04  0.00000000000E+00 0. -1.
         22   -1    0    0    0    0 -0.00000000000E+00 -0.00000000000E+00 -0.15887498649E+03  0.15887498649E+03  0.00000000000E+00 0. -1.
         24    2    1    2    0    0 -0.31478134916E+02 -0.62644832128E+02 -0.13469474493E+03  0.17156791357E+03  0.79860044359E+02 0.  0.
         25    2    1    2    0    0  0.35619709364E+02  0.76562478056E+02  0.12397638712E+04  0.12489167514E+04  0.12509204155E+03 0.  0.
        -24    2    1    2    0    0 -0.41415744481E+01 -0.13917645928E+02  0.14244214321E+04  0.14267558664E+04  0.80280960035E+02 0.  0.
        -11    1    3    3    0    0  0.13717544903E+02  0.71932142688E+01 -0.29642852535E+01  0.15770236420E+02  0.00000000000E+00 0.  1.
         12    1    3    3    0    0 -0.45195679820E+02 -0.69838046397E+02 -0.13173045968E+03  0.15579767715E+03  0.00000000000E+00 0. -1.
         13    1    5    5    0    0 -0.40305040940E+00  0.13337860219E+02  0.12583836587E+04  0.12584544066E+04  0.00000000000E+00 0. -1.
        -14    1    5    5    0    0 -0.37385240387E+01 -0.27255506147E+02  0.16603777339E+03  0.16830145979E+03  0.00000000000E+00 0.  1.
          5    1    4    4  501    0  0.72668421418E+02  0.26025829379E+02  0.90629965672E+03  0.90959033825E+03  0.41800000000E+01 0.  1.
         -5    1    4    4    0  501 -0.37048712054E+02  0.50536648678E+02  0.33346421449E+03  0.33932641317E+03  0.41800000000E+01 0.  1.
</event>
<event>
11    1  0.8328696E-009  0.1404909E+03  0.7561462E-02  0.1107011E+00
         22   -1    0    0    0    0  0.00000000000E+00  0.00000000000E+00  0.16526915321E+04  0.16526915321E+04  0.00000000000E+00 0. -1.
         22   -1    0    0    0    0 -0.00000000000E+00 -0.00000000000E+00 -0.21104283848E+03  0.21104283848E+03  0.00000000000E+00 0. -1.
        -24    2    1    2    0    0 -0.17014903978E+02 -0.18119887335E+01 -0.18914253137E+03  0.20626761687E+03  0.80490013871E+02 0.  0.
         25    2    1    2    0    0  0.52519551851E+02  0.52594235053E+02  0.46689204413E+03  0.48904658066E+03  0.12511562771E+03 0.  0.
         24    2    1    2    0    0 -0.35504647873E+02 -0.50782246320E+02  0.11638991809E+04  0.11684201731E+04  0.81883948405E+02 0.  0.
        -13    1    5    5    0    0 -0.52477299746E+02 -0.34065283283E+02  0.47417349154E+03  0.47828319080E+03  0.00000000000E+00 0.  1.
         14    1    5    5    0    0  0.16972651873E+02 -0.16716963037E+02  0.68972568934E+03  0.69013698228E+03  0.00000000000E+00 0. -1.
         11    1    3    3    0    0  0.59716376773E+01 -0.26557128504E+02 -0.15799731845E+03  0.16032496427E+03  0.00000000000E+00 0. -1.
        -12    1    3    3    0    0 -0.22986541655E+02  0.24745139770E+02 -0.31145212922E+02  0.45942652595E+02  0.00000000000E+00 0.  1.
          5    1    4    4  501    0 -0.57110658385E+01  0.53310711150E+02  0.38347258041E+03  0.38722518064E+03  0.41800000000E+01 0. -1.
         -5    1    4    4    0  501  0.58230617690E+02 -0.71647609633E+00  0.83419463716E+02  0.10182140002E+03  0.41800000000E+01 0. -1.
</event>
<event>
11    1  0.8328696E-009  0.2116387E+03  0.7561462E-02  0.1046585E+00
         22   -1    0    0    0    0  0.00000000000E+00  0.00000000000E+00  0.37127434180E+03  0.37127434180E+03  0.00000000000E+00 0. -1.
         22   -1    0    0    0    0 -0.00000000000E+00 -0.00000000000E+00 -0.10955943427E+04  0.10955943427E+04  0.00000000000E+00 0.  1.
         24    2    1    2    0    0 -0.35181234463E+02  0.15870062768E+03 -0.83151298452E+03  0.85413659135E+03  0.10822136931E+03 0.  0.
         25    2    1    2    0    0  0.18284640173E+03 -0.20395877464E+03 -0.12165180363E+03  0.32477380049E+03  0.12508745652E+03 0.  0.
        -24    2    1    2    0    0 -0.14766516727E+03  0.45258146962E+02  0.22884478725E+03  0.28795829267E+03  0.81833612741E+02 0.  0.
        -13    1    3    3    0    0 -0.45540298161E+02  0.59556840955E+02 -0.55820376799E+03  0.56321610653E+03  0.00000000000E+00 0.  1.
         14    1    3    3    0    0  0.10359063697E+02  0.99143786720E+02 -0.27330921653E+03  0.29092048482E+03  0.00000000000E+00 0. -1.
         13    1    5    5    0    0 -0.55314022793E+02  0.58127319405E+02  0.12346821091E+03  0.14725089298E+03  0.00000000000E+00 0. -1.
        -14    1    5    5    0    0 -0.92351144478E+02 -0.12869172443E+02  0.10537657634E+03  0.14070739969E+03  0.00000000000E+00 0.  1.
          5    1    4    4  501    0  0.12443067303E+03 -0.12391579852E+03 -0.13910875729E+03  0.22406882039E+03  0.41800000000E+01 0.  1.
         -5    1    4    4    0  501  0.58415728701E+02 -0.80042976121E+02  0.17456953665E+02  0.10070498010E+03  0.41800000000E+01 0.  1.
</event>
<event>
11    1  0.8328696E-009  0.1637591E+03  0.7561462E-02  0.1083594E+00
         22   -1    0    0    0    0  0.00000000000E+00  0.00000000000E+00  0.20807556498E+03  0.20807556498E+03  0.00000000000E+00 0.  1.
         22   -1    0    0    0    0 -0.00000000000E+00 -0.00000000000E+00 -0.23617478487E+03  0.23617478487E+03  0.00000000000E+00 0.  1.
        -24    2    1    2    0    0 -0.36927345612E+02 -0.99479992434E+02 -0.31901241397E+01  0.13635588908E+03  0.85573674962E+02 0.  0.
         25    2    1    2    0    0  0.11331657295E+03  0.48925633443E+02 -0.52964017371E+02  0.18354162181E+03  0.12509187219E+03 0.  0.
         24    2    1    2    0    0 -0.76389227339E+02  0.50554358991E+02  0.28054921619E+02  0.12435283896E+03  0.79281099039E+02 0.  0.
        -11    1    5    5    0    0 -0.78807794907E+02  0.27117295005E+02 -0.53048710349E+01  0.83511423669E+02  0.00000000000E+00 0.  1.
         12    1    5    5    0    0  0.24185675684E+01  0.23437063986E+02  0.33359792654E+02  0.40841415295E+02  0.00000000000E+00 0. -1.
         13    1    3    3    0    0  0.11998843818E+01  0.12645669505E+02 -0.12161700650E+02  0.17585779553E+02  0.00000000000E+00 0. -1.
        -14    1    3    3    0    0 -0.38127229994E+02 -0.11212566194E+03  0.89715765106E+01  0.11877010953E+03  0.00000000000E+00 0.  1.
          5    1    4    4  501    0 -0.12462822863E+02 -0.25962241516E+02 -0.11980156532E+02  0.31469929914E+02  0.41800000000E+01 0.  1.
         -5    1    4    4    0  501  0.12577939581E+03  0.74887874959E+02 -0.40983860839E+02  0.15207169190E+03  0.41800000000E+01 0.  1.
</event>
<event>
11    1  0.8328696E-009  0.1255108E+03  0.7561462E-02  0.1124911E+00
         22   -1    0    0    0    0  0.00000000000E+00  0.00000000000E+00  0.24027479033E+03  0.24027479033E+03  0.00000000000E+00 0. -1.
         22   -1    0    0    0    0 -0.00000000000E+00 -0.00000000000E+00 -0.20917907697E+04  0.20917907697E+04  0.00000000000E+00 0.  1.
        -24    2    1    2    0    0 -0.16300066891E+02 -0.14075224459E+02 -0.20167135765E+04  0.20183735306E+04  0.78957299408E+02 0.  0.
         25    2    1    2    0    0  0.38309886564E+01  0.15210132820E+02  0.32233077853E+01  0.12610868189E+03  0.12508791037E+03 0.  0.
         24    2    1    2    0    0  0.12469078235E+02 -0.11349083613E+01  0.16197428935E+03  0.18758334756E+03  0.93782066209E+02 0.  0.
        -11    1    5    5    0    0  0.69290195448E+01  0.29509047222E+02  0.92137383869E+01  0.31681037780E+02  0.00000000000E+00 0.  1.
         12    1    5    5    0    0  0.55400586899E+01 -0.30643955583E+02  0.15276055096E+03  0.15590230978E+03  0.00000000000E+00 0. -1.
         13    1    3    3    0    0  0.62560476550E+01  0.28469266755E+02 -0.46482195610E+03  0.46573499778E+03  0.00000000000E+00 0. -1.
        -14    1    3    3    0    0 -0.22556114546E+02 -0.42544491214E+02 -0.15518916204E+04  0.15526385328E+04  0.00000000000E+00 0.  1.
          5    1    4    4  501    0 -0.57877968384E+02  0.21088888891E+02  0.13325501197E+02  0.63163611685E+02  0.41800000000E+01 0.  1.
         -5    1    4    4    0  501  0.61708957041E+02 -0.58787560711E+01 -0.10102193412E+02  0.62945070210E+02  0.41800000000E+01 0.  1.
</event>
<event>
11    1  0.8328696E-009  0.1437407E+03  0.7561462E-02  0.1103452E+00
         22   -1    0    0    0    0  0.00000000000E+00  0.00000000000E+00  0.31358123030E+03  0.31358123030E+03  0.00000000000E+00 0.  1.
         22   -1    0    0    0    0 -0.00000000000E+00 -0.00000000000E+00 -0.14179244052E+04  0.14179244052E+04  0.00000000000E+00 0.  1.
         24    2    1    2    0    0 -0.19026024582E+02  0.70273231128E+02 -0.12102907727E+04  0.12151625177E+04  0.80720959556E+02 0.  0.
         25    2    1    2    0    0  0.24749096338E+02 -0.47095315354E+02 -0.17842785474E+03  0.22430914039E+03  0.12509038579E+03 0.  0.
        -24    2    1    2    0    0 -0.57230717553E+01 -0.23177915774E+02  0.28437545250E+03  0.29203397746E+03  0.62003844034E+02 0.  0.
        -13    1    3    3    0    0 -0.46703536563E+02  0.37042959552E+02 -0.49703231361E+03  0.50059416892E+03  0.00000000000E+00 0.  1.
         14    1    3    3    0    0  0.27677511981E+02  0.33230271576E+02 -0.71325845909E+03  0.71456834878E+03  0.00000000000E+00 0. -1.
         13    1    5    5    0    0 -0.11405223392E+02  0.18429603704E+02  0.60763548226E+02  0.64513085544E+02  0.00000000000E+00 0. -1.
        -14    1    5    5    0    0  0.56821516366E+01 -0.41607519478E+02  0.22361190427E+03  0.22752089191E+03  0.00000000000E+00 0.  1.
          5    1    4    4  501    0  0.45704747503E+02  0.28344624399E+02 -0.48415832576E+02  0.72483839031E+02  0.41800000000E+01 0. -1.
         -5    1    4    4    0  501 -0.20955651165E+02 -0.75439939753E+02 -0.13001202216E+03  0.15182530136E+03  0.41800000000E+01 0. -1.
</event>
<event>
11    1  0.8328696E-009  0.1458341E+03  0.7561462E-02  0.1101213E+00
         22   -1    0    0    0    0  0.00000000000E+00  0.00000000000E+00  0.88745556199E+02  0.88745556199E+02  0.00000000000E+00 0.  1.
         22   -1    0    0    0    0 -0.00000000000E+00 -0.00000000000E+00 -0.17670345365E+04  0.17670345365E+04  0.00000000000E+00 0.  1.
        -24    2    1    2    0    0  0.73056586002E+02 -0.10763719066E+02 -0.14744697532E+04  0.14785634787E+04  0.81460326852E+02 0.  0.
         25    2    1    2    0    0 -0.86402459483E+02  0.82738078428E+01 -0.25042123692E+03  0.29307267594E+03  0.12508779548E+03 0.  0.
         24    2    1    2    0    0  0.13345873481E+02  0.24899112227E+01  0.46602009914E+02  0.84143938032E+02  0.68732401258E+02 0.  0.
        -13    1    5    5    0    0  0.36738455747E+02 -0.90160893890E+01  0.43877103409E+02  0.57932755865E+02  0.00000000000E+00 0.  1.
         14    1    5    5    0    0 -0.23392582266E+02  0.11506000612E+02  0.27249065056E+01  0.26211182167E+02  0.00000000000E+00 0. -1.
         13    1    3    3    0    0 -0.15216091387E+02  0.15357637109E+00 -0.93303768713E+02  0.94536481207E+02  0.00000000000E+00 0. -1.
        -14    1    3    3    0    0  0.88272677389E+02 -0.10917295437E+02 -0.13811659845E+04  0.13840269975E+04  0.00000000000E+00 0.  1.
          5    1    4    4  501    0 -0.29367739323E+01 -0.49769278359E+02 -0.71965675563E+02  0.87647798425E+02  0.41800000000E+01 0.  1.
         -5    1    4    4    0  501 -0.83465685551E+02  0.58043086202E+02 -0.17845556136E+03  0.20542487751E+03  0.41800000000E+01 0.  1.
</event>
<event>
11    1  0.8328696E-009  0.1417699E+03  0.7561462E-02  0.1105598E+00
         22   -1    0    0    0    0  0.00000000000E+00  0.00000000000E+00  0.10577181694E+04  0.10577181694E+04  0.00000000000E+00 0.  1.
         22   -1    0    0    0    0 -0.00000000000E+00 -0.00000000000E+00 -0.31168889153E+03  0.31168889153E+03  0.00000000000E+00 0. -1.
        -24    2    1    2    0    0  0.48594667558E+02  0.28481893068E+02 -0.25808369790E+03  0.27612758587E+03  0.80415101844E+02 0.  0.
         25    2    1    2    0    0 -0.10268437091E+03 -0.60581253887E+02  0.13806271247E+03  0.22118622421E+03  0.12509142598E+03 0.  0.
         24    2    1    2    0    0  0.54089703353E+02  0.32099360819E+02  0.86605026330E+03  0.87209325085E+03  0.80916714186E+02 0.  0.
        -11    1    5    5    0    0  0.73860407057E+01  0.25088301196E+02  0.66717468371E+03  0.66768707868E+03  0.00000000000E+00 0.  1.
         12    1    5    5    0    0  0.46703662647E+02  0.70110596231E+01  0.19887557960E+03  0.20440617217E+03  0.00000000000E+00 0. -1.
         13    1    3    3    0    0  0.21114619694E+02 -0.14538628650E+02 -0.18623101828E+03  0.18798720983E+03  0.00000000000E+00 0. -1.
        -14    1    3    3    0    0  0.27480047864E+02  0.43020521719E+02 -0.71852679621E+02  0.88140376039E+02  0.00000000000E+00 0.  1.
          5    1    4    4  501    0 -0.33285566580E+02 -0.22529323935E+02 -0.19457627024E+02  0.44850541011E+02  0.41800000000E+01 0.  1.
         -5    1    4    4    0  501 -0.69398804330E+02 -0.38051929952E+02  0.15752033950E+03  0.17633568320E+03  0.41800000000E+01 0.  1.
</event>
<event>
11    1  0.8328696E-009  0.2623034E+03  0.7561462E-02  0.1017542E+00
         22   -1    0    0    0    0  0.00000000000E+00  0.00000000000E+00  0.11633900294E+04  0.11633900294E+04  0.00000000000E+00 0. -1.
         22   -1    0    0    0    0 -0.00000000000E+00 -0.00000000000E+00 -0.13596293969E+03  0.13596293969E+03  0.00000000000E+00 0. -1.
         24    2    1    2    0    0 -0.44987272779E+02 -0.21364121781E+03  0.58985613546E+02  0.23988008053E+03  0.79979533467E+02 0.  0.
         25    2    1    2    0    0  0.71882351582E+02  0.28428664774E+03  0.73035742632E+03  0.79690357718E+03  0.12508945039E+03 0.  0.
        -24    2    1    2    0    0 -0.26895078804E+02 -0.70645429932E+02  0.23808404981E+03  0.26256931135E+03  0.80898123903E+02 0.  0.
        -11    1    3    3    0    0 -0.51815032721E+01 -0.79144874612E+02 -0.15878718766E+02  0.80888150326E+02  0.00000000000E+00 0.  1.
         12    1    3    3    0    0 -0.39805769506E+02 -0.13449634319E+03  0.74864332312E+02  0.15899193021E+03  0.00000000000E+00 0. -1.
         11    1    5    5    0    0  0.21891284696E+02 -0.16185609807E+02  0.12482767915E+03  0.12776209059E+03  0.00000000000E+00 0. -1.
        -12    1    5    5    0    0 -0.48786363499E+02 -0.54459820125E+02  0.11325637066E+03  0.13480722075E+03  0.00000000000E+00 0.  1.
          5    1    4    4  501    0 -0.27663610625E+02  0.15157932150E+02  0.73339478920E+02  0.79944917463E+02  0.41800000000E+01 0.  1.
         -5    1    4    4    0  501  0.99545962207E+02  0.26912871559E+03  0.65701794740E+03  0.71695865972E+03  0.41800000000E+01 0.  1.
</event>
<event>
11    1  0.8328696E-009  0.1440638E+03  0.7561462E-02  0.1103104E+00
         22   -1    0    0    0    0  0.00000000000E+00  0.00000000000E+00  0.53606078763E+02  0.53606078763E+02  0.00000000000E+00 0. -1.
         22   -1    0    0    0    0 -0.00000000000E+00 -0.00000000000E+00 -0.70488036281E+03  0.70488036281E+03  0.00000000000E+00 0. -1.
        -24    2    1    2    0    0 -0.90628028163E+01  0.24826332766E+01 -0.36295632851E+03  0.37177536898E+03  0.79945798595E+02 0.  0.
         25    2    1    2    0    0  0.27163589274E+02 -0.70017316580E+02 -0.20794205420E+03  0.25402320904E+03  0.12509039779E+03 0.  0.
         24    2    1    2    0    0 -0.18100786458E+02  0.67534683304E+02 -0.80375901332E+02  0.13268786355E+03  0.79102539147E+02 0.  0.
        -13    1    5    5    0    0 -0.13580018972E+02 -0.11965004064E+02 -0.38902264614E+02  0.42906461397E+02  0.00000000000E+00 0.  1.
         14    1    5    5    0    0 -0.45207674857E+01  0.79499687367E+02 -0.41473636719E+02  0.89781402154E+02  0.00000000000E+00 0. -1.
         11    1    3    3    0    0  0.13271595691E+02  0.30352613025E+02 -0.27277669861E+03  0.27478090122E+03  0.00000000000E+00 0. -1.
        -12    1    3    3    0    0 -0.22334398507E+02 -0.27869979748E+02 -0.90179629902E+02  0.96994467765E+02  0.00000000000E+00 0.  1.
          5    1    4    4  501    0 -0.34635090997E+02 -0.45332264500E+02 -0.16519802275E+03  0.17482123113E+03  0.41800000000E+01 0. -1.
         -5    1    4    4    0  501  0.61798680271E+02 -0.24685052080E+02 -0.42744031449E+02  0.79201977905E+02  0.41800000000E+01 0. -1.
</event>
<event>
11    1  0.8328696E-009  0.1520089E+03  0.7561462E-02  0.1094844E+00
         22   -1    0    0    0    0  0.00000000000E+00  0.00000000000E+00  0.79835568842E+03  0.79835568842E+03  0.00000000000E+00 0.  1.
         22   -1    0    0    0    0 -0.00000000000E+00 -0.00000000000E+00 -0.72896615208E+03  0.72896615208E+03  0.00000000000E+00 0. -1.
        -24    2    1    2    0    0  0.89479157498E+02 -0.18432943741E+02 -0.64734644093E+03  0.65864071967E+03  0.80024308681E+02 0.  0.
         25    2    1    2    0    0 -0.25556027566E+02  0.35265031069E+02 -0.11186490434E+02  0.13292593053E+03  0.12508969773E+03 0.  0.
         24    2    1    2    0    0 -0.63923129932E+02 -0.16832087328E+02  0.72792246770E+03  0.73575519029E+03  0.84232388955E+02 0.  0.
        -13    1    5    5    0    0 -0.19211746841E+01 -0.27964975309E+02  0.44603261884E+03  0.44691255053E+03  0.00000000000E+00 0.  1.
         14    1    5    5    0    0 -0.62001955247E+02  0.11132887981E+02  0.28188984886E+03  0.28884263976E+03  0.00000000000E+00 0. -1.
         11    1    3    3    0    0  0.92644325108E+02 -0.23674106237E+01 -0.61904695801E+03  0.62594545435E+03  0.00000000000E+00 0. -1.
        -12    1    3    3    0    0 -0.31651676103E+01 -0.16065533117E+02 -0.28299482922E+02  0.32695265315E+02  0.00000000000E+00 0.  1.
          5    1    4    4  501    0 -0.63311180241E+02  0.57504188293E+02  0.56085223878E+01  0.85813548686E+02  0.41800000000E+01 0. -1.
         -5    1    4    4    0  501  0.37755152675E+02 -0.22239157224E+02 -0.16795012822E+02  0.47112381846E+02  0.41800000000E+01 0. -1.
</event>
<event>
11    1  0.8328696E-009  0.1279747E+03  0.7561462E-02  0.1121783E+00
         22   -1    0    0    0    0  0.00000000000E+00  0.00000000000E+00  0.17574489820E+04  0.17574489820E+04  0.00000000000E+00 0. -1.
         22   -1    0    0    0    0 -0.00000000000E+00 -0.00000000000E+00 -0.15651710243E+04  0.15651710243E+04  0.00000000000E+00 0.  1.
         24    2    1    2    0    0  0.11626939107E+02 -0.14985135946E+02 -0.72395988731E+03  0.72860470191E+03  0.79919667118E+02 0.  0.
         25    2    1    2    0    0 -0.95219844237E+01  0.46936295394E+02 -0.83257892057E+03  0.84328544625E+03  0.12509596663E+03 0.  0.
        -24    2    1    2    0    0 -0.21049546838E+01 -0.31951159448E+02  0.17488167656E+04  0.17507298582E+04  0.75297074419E+02 0.  0.
        -13    1    3    3    0    0 -0.13836085962E+02 -0.54497902679E+01 -0.64355794091E+03  0.64372972651E+03  0.00000000000E+00 0.  1.
         14    1    3    3    0    0  0.25463025070E+02 -0.95353456780E+01 -0.80401946403E+02  0.84874975395E+02  0.00000000000E+00 0. -1.
         11    1    5    5    0    0  0.36566392367E+02 -0.16708335947E+02  0.82838797638E+03  0.82936295369E+03  0.00000000000E+00 0. -1.
        -12    1    5    5    0    0 -0.38671347051E+02 -0.15242823501E+02  0.92042878921E+03  0.92136690453E+03  0.00000000000E+00 0.  1.
          5    1    4    4  501    0 -0.42818450076E+02  0.48497459935E+02 -0.76573569069E+03  0.76847514187E+03  0.41800000000E+01 0. -1.
         -5    1    4    4    0  501  0.33296465652E+02 -0.15611645413E+01 -0.66843229881E+02  0.74810304374E+02  0.41800000000E+01 0. -1.
</event>
<event>
11    1  0.8328696E-009  0.1603173E+03  0.7561462E-02  0.1086779E+00
         22   -1    0    0    0    0  0.00000000000E+00  0.00000000000E+00  0.25560619389E+03  0.25560619389E+03  0.00000000000E+00 0.  1.
         22   -1    0    0    0    0 -0.00000000000E+00 -0.00000000000E+00 -0.12158062166E+04  0.12158062166E+04  0.00000000000E+00 0.  1.
        -24    2    1    2    0    0  0.16758115154E+02  0.53401621132E+02 -0.10959897595E+04  0.11010015215E+04  0.88759392682E+02 0.  0.
         25    2    1    2    0    0 -0.44036672049E+02 -0.13842972200E+03  0.31187384975E+01  0.19172544229E+03  0.12508757842E+03 0.  0.
         24    2    1    2    0    0  0.27278556896E+02  0.85028100867E+02  0.13267099824E+03  0.17868544677E+03  0.79705693091E+02 0.  0.
        -13    1    5    5    0    0  0.16501243229E+02  0.96756315877E+02  0.90117997579E+02  0.13324912449E+03  0.00000000000E+00 0.  1.
         14    1    5    5    0    0  0.10777313667E+02 -0.11728215010E+02  0.42553000659E+02  0.45436322279E+02  0.00000000000E+00 0. -1.
         11    1    3    3    0    0  0.14868750345E+02  0.73322886107E+02 -0.60562209881E+03  0.61022573850E+03  0.00000000000E+00 0. -1.
        -12    1    3    3    0    0  0.18893648080E+01 -0.19921264976E+02 -0.49036766069E+03  0.49077578296E+03  0.00000000000E+00 0.  1.
          5    1    4    4  501    0 -0.87568989545E+01 -0.90195651397E+01  0.48332602891E+02  0.50115354302E+02  0.41800000000E+01 0. -1.
         -5    1    4    4    0  501 -0.35279773095E+02 -0.12941015686E+03 -0.45213864394E+02  0.14161008799E+03  0.41800000000E+01 0. -1.
</event>
<event>
11    1  0.8328696E-009  0.1265138E+03  0.7561462E-02  0.1123628E+00
         22   -1    0    0    0    0  0.00000000000E+00  0.00000000000E+00  0.90562981953E+03  0.90562981953E+03  0.00000000000E+00 0.  1.
         22   -1    0    0    0    0 -0.00000000000E+00 -0.00000000000E+00 -0.11835150792E+04  0.11835150792E+04  0.00000000000E+00 0.  1.
         24    2    1    2    0    0 -0.24513768259E+01 -0.18717224546E+02 -0.11621071651E+04  0.11650830718E+04  0.81050337359E+02 0.  0.
         25    2    1    2    0    0  0.16736971893E+02  0.27422847825E+02  0.23643016964E+03  0.26940382051E+03  0.12508818720E+03 0.  0.
        -24    2    1    2    0    0 -0.14285595067E+02 -0.87056232794E+01  0.64779173584E+03  0.65465800642E+03  0.93075809125E+02 0.  0.
        -13    1    3    3    0    0 -0.11704796067E+02 -0.35902368212E+02 -0.10810414125E+04  0.10817007525E+04  0.00000000000E+00 0.  1.
         14    1    3    3    0    0  0.92534192413E+01  0.17185143666E+02 -0.81065752596E+02  0.83382319315E+02  0.00000000000E+00 0. -1.
         13    1    5    5    0    0 -0.24386302761E+02  0.17488607413E+02  0.69708455787E+02  0.75893425011E+02  0.00000000000E+00 0. -1.
        -14    1    5    5    0    0  0.10100707694E+02 -0.26194230692E+02  0.57808328005E+03  0.57876458141E+03  0.00000000000E+00 0.  1.
          5    1    4    4  501    0  0.64896957765E+02  0.36081658069E+02  0.17902442746E+03  0.19385747136E+03  0.41800000000E+01 0.  1.
         -5    1    4    4    0  501 -0.48159985871E+02 -0.86588102443E+01  0.57405742179E+02  0.75546349145E+02  0.41800000000E+01 0.  1.
</event>
<event>
11    1  0.8328696E-009  0.1888445E+03  0.7561462E-02  0.1062705E+00
         22   -1    0    0    0    0  0.00000000000E+00  0.00000000000E+00  0.13692017694E+04  0.13692017694E+04  0.00000000000E+00 0.  1.
         22   -1    0    0    0    0 -0.00000000000E+00 -0.00000000000E+00 -0.15223781757E+03  0.15223781757E+03  0.00000000000E+00 0.  1.
         24    2    1    2    0    0 -0.21267595600E+02 -0.11790602702E+03 -0.68242597604E+02  0.15850899056E+03  0.78191470951E+02 0.  0.
         25    2    1    2    0    0  0.56898172039E+02  0.23089023552E+03  0.54444212729E+03  0.60713090055E+03  0.12507196964E+03 0.  0.
        -24    2    1    2    0    0 -0.35630576439E+02 -0.11298420850E+03  0.74076442211E+03  0.75579969583E+03  0.92012400301E+02 0.  0.
        -11    1    3    3    0    0  0.14015637582E+02 -0.10380336161E+03 -0.45289251027E+02  0.11411701116E+03  0.00000000000E+00 0.  1.
         12    1    3    3    0    0 -0.35283233182E+02 -0.14102665411E+02 -0.22953346578E+02  0.44391979395E+02  0.00000000000E+00 0. -1.
         13    1    5    5    0    0 -0.38572936006E+01 -0.27460447681E+02  0.45456455301E+03  0.45540958241E+03  0.00000000000E+00 0. -1.
        -14    1    5    5    0    0 -0.31773282838E+02 -0.85523760823E+02  0.28619986910E+03  0.30039011342E+03  0.00000000000E+00 0.  1.
          5    1    4    4  501    0  0.13129244929E+02 -0.34397538634E+01  0.16658017755E+01  0.14298820742E+02  0.41800000000E+01 0. -1.
         -5    1    4    4    0  501  0.43768927110E+02  0.23432998939E+03  0.54277632552E+03  0.59283207981E+03  0.41800000000E+01 0. -1.
</event>
<event>
11    1  0.8328696E-009  0.1441946E+03  0.7561462E-02  0.1102963E+00
         22   -1    0    0    0    0  0.00000000000E+00  0.00000000000E+00  0.64872010605E+03  0.64872010605E+03  0.00000000000E+00 0.  1.
         22   -1    0    0    0    0 -0.00000000000E+00 -0.00000000000E+00 -0.44732534707E+03  0.44732534707E+03  0.00000000000E+00 0. -1.
         24    2    1    2    0    0  0.63378786573E+01 -0.12239638015E+02 -0.18503332773E+03  0.20207903390E+03  0.80053895149E+02 0.  0.
         25    2    1    2    0    0  0.55424127081E+01  0.82745573900E+02 -0.22600408526E+03  0.27129946203E+03  0.12509197898E+03 0.  0.
        -24    2    1    2    0    0 -0.11880291365E+02 -0.70505935885E+02  0.61243217196E+03  0.62266695718E+03  0.86768346727E+02 0.  0.
        -11    1    3    3    0    0  0.37155262536E+02 -0.24326061693E+02 -0.74878261841E+02  0.87057595349E+02  0.00000000000E+00 0.  1.
         12    1    3    3    0    0 -0.30817383879E+02  0.12086423678E+02 -0.11015506589E+03  0.11502143856E+03  0.00000000000E+00 0. -1.
         11    1    5    5    0    0  0.31019604175E+02 -0.24749944398E+01  0.13791602375E+03  0.14138306493E+03  0.00000000000E+00 0. -1.
        -12    1    5    5    0    0 -0.42899895541E+02 -0.68030941445E+02  0.47451614821E+03  0.48128389226E+03  0.00000000000E+00 0.  1.
          5    1    4    4  501    0 -0.48468807814E+02  0.81356674047E+02 -0.12754997062E+03  0.15891696306E+03  0.41800000000E+01 0.  1.
         -5    1    4    4    0  501  0.54011220522E+02  0.13888998530E+01 -0.98454114635E+02  0.11238249896E+03  0.41800000000E+01 0.  1.
</event>
<event>
11    1  0.8328696E-009  0.2190387E+03  0.7561462E-02  0.1041821E+00
         22   -1    0    0    0    0  0.00000000000E+00  0.00000000000E+00  0.31640649757E+03  0.31640649757E+03  0.00000000000E+00 0.  1.
         22   -1    0    0    0    0 -0.00000000000E+00 -0.00000000000E+00 -0.10110739610E+04  0.10110739610E+04  0.00000000000E+00 0.  1.
         24    2    1    2    0    0  0.19001292828E+02  0.18071823926E+03 -0.83964626880E+03  0.86290185644E+03  0.81077900790E+02 0.  0.
         25    2    1    2    0    0  0.48554406421E+02 -0.17125300382E+03 -0.67319253176E+02  0.22772455976E+03  0.12506586892E+03 0.  0.
        -24    2    1    2    0    0 -0.67555699249E+02 -0.94652354330E+01  0.21229805852E+03  0.23685404239E+03  0.79849912732E+02 0.  0.
        -11    1    3    3    0    0  0.46274706697E+02  0.15398733407E+03 -0.67663034427E+03  0.69547255181E+03  0.00000000000E+00 0.  1.
         12    1    3    3    0    0 -0.27273413870E+02  0.26730905186E+02 -0.16301592453E+03  0.16742930462E+03  0.00000000000E+00 0. -1.
         11    1    5    5    0    0 -0.23112938840E+02  0.17201662132E+02  0.14262466622E+02  0.32148453711E+02  0.00000000000E+00 0. -1.
        -12    1    5    5    0    0 -0.44442760409E+02 -0.26666897565E+02  0.19803559190E+03  0.20470558868E+03  0.00000000000E+00 0.  1.
          5    1    4    4  501    0 -0.41429962798E+01 -0.37764208491E+02 -0.74753347880E+02  0.83957342028E+02  0.41800000000E+01 0.  1.
         -5    1    4    4    0  501  0.52697402701E+02 -0.13348879533E+03  0.74340947047E+01  0.14376721773E+03  0.41800000000E+01 0.  1.
</event>
<event>
11    1  0.8328696E-009  0.1332189E+03  0.7561462E-02  0.1115376E+00
         22   -1    0    0    0    0  0.00000000000E+00  0.00000000000E+00  0.25684805423E+04  0.25684805423E+04  0.00000000000E+00 0.  1.
         22   -1    0    0    0    0 -0.00000000000E+00 -0.00000000000E+00 -0.70238328609E+03  0.70238328609E+03  0.00000000000E+00 0.  1.
         24    2    1    2    0    0 -0.45809018596E+01 -0.21411669276E+02 -0.68431912309E+03  0.68933981765E+03  0.80107912987E+02 0.  0.
         25    2    1    2    0    0 -0.39369895159E+02  0.33994709574E+02  0.29909742631E+03  0.32834787882E+03  0.12508968853E+03 0.  0.
        -24    2    1    2    0    0  0.43950797018E+02 -0.12583040299E+02  0.22513189529E+04  0.22531761319E+04  0.79218987138E+02 0.  0.
        -13    1    3    3    0    0  0.19999659103E+02 -0.30347656523E+02 -0.59900605562E+03  0.60010767475E+03  0.00000000000E+00 0.  1.
         14    1    3    3    0    0 -0.24580560963E+02  0.89359872469E+01 -0.85313067472E+02  0.89232142902E+02  0.00000000000E+00 0. -1.
         11    1    5    5    0    0  0.32046136161E+02 -0.14686403894E+02  0.34067661984E+03  0.34249555415E+03  0.00000000000E+00 0. -1.
        -12    1    5    5    0    0  0.11904660857E+02  0.21033635954E+01  0.19106423331E+04  0.19106805777E+04  0.00000000000E+00 0.  1.
          5    1    4    4  501    0  0.14461479873E+02  0.68595970606E+02  0.17723525196E+03  0.19064193799E+03  0.41800000000E+01 0. -1.
         -5    1    4    4    0  501 -0.53831375032E+02 -0.34601261032E+02  0.12186217435E+03  0.13770594083E+03  0.41800000000E+01 0. -1.
</event>
<event>
11    1  0.8328696E-009  0.1436500E+03  0.7561462E-02  0.1103550E+00
         22   -1    0    0    0    0  0.00000000000E+00  0.00000000000E+00  0.11921542221E+04  0.11921542221E+04  0.00000000000E+00 0. -1.
         22   -1    0    0    0    0 -0.00000000000E+00 -0.00000000000E+00 -0.22209686456E+03  0.22209686456E+03  0.00000000000E+00 0. -1.
         24    2    1    2    0    0 -0.59965374664E+02  0.35201284408E+02 -0.17730008850E+03  0.20676997414E+03  0.80520334340E+02 0.  0.
         25    2    1    2    0    0  0.89044343495E+02 -0.18084198262E+02  0.18436645243E+03  0.24061269030E+03  0.12509014595E+03 0.  0.
        -24    2    1    2    0    0 -0.29078968831E+02 -0.17117086146E+02  0.96299099358E+03  0.96686842220E+03  0.79651183725E+02 0.  0.
        -13    1    3    3    0    0 -0.17007544992E+02  0.21114508706E+02 -0.36804976237E+01  0.27361014735E+02  0.00000000000E+00 0.  1.
         14    1    3    3    0    0 -0.42957829672E+02  0.14086775701E+02 -0.17361959087E+03  0.17940895941E+03  0.00000000000E+00 0. -1.
         11    1    5    5    0    0 -0.23689513736E+01 -0.45782769856E+02  0.60669073026E+03  0.60842034494E+03  0.00000000000E+00 0. -1.
        -12    1    5    5    0    0 -0.26710017457E+02  0.28665683710E+02  0.35630026332E+03  0.35844807726E+03  0.00000000000E+00 0.  1.
          5    1    4    4  501    0  0.61729354280E+02 -0.47207458900E+02  0.18474155393E+03  0.20046438962E+03  0.41800000000E+01 0.  1.
         -5    1    4    4    0  501  0.27314989215E+02  0.29123260638E+02 -0.37510149989E+00  0.40148300676E+02  0.41800000000E+01 0.  1.
</event>
<event>
11    1  0.8328696E-009  0.1598284E+03  0.7561462E-02  0.1087239E+00
         22   -1    0    0    0    0  0.00000000000E+00  0.00000000000E+00  0.72967488944E+03  0.72967488944E+03  0.00000000000E+00 0. -1.
         22   -1    0    0    0    0 -0.00000000000E+00 -0.00000000000E+00 -0.41238902842E+04  0.41238902842E+04  0.00000000000E+00 0. -1.
         24    2    1    2    0    0 -0.16896083213E+02 -0.87111622770E+02 -0.40564967589E+04  0.40582576651E+04  0.80096245372E+02 0.  0.
         25    2    1    2    0    0  0.11368450123E+03  0.64167182306E+02  0.75875735617E+02  0.19607724620E+03  0.12509023190E+03 0.  0.
        -24    2    1    2    0    0 -0.96788418015E+02  0.22944440464E+02  0.58640562849E+03  0.59923026243E+03  0.72875929346E+02 0.  0.
        -13    1    3    3    0    0 -0.38020611547E+02 -0.31227423816E+02 -0.10333464750E+04  0.10345171127E+04  0.00000000000E+00 0.  1.
         14    1    3    3    0    0  0.21124528334E+02 -0.55884198954E+02 -0.30231502839E+04  0.30237405524E+04  0.00000000000E+00 0. -1.
         11    1    5    5    0    0 -0.10126209950E+03  0.12625764124E+02  0.41153000146E+03  0.42399335468E+03  0.00000000000E+00 0. -1.
        -12    1    5    5    0    0  0.44736814841E+01  0.10318676340E+02  0.17487562703E+03  0.17523690775E+03  0.00000000000E+00 0.  1.
          5    1    4    4  501    0  0.11343752280E+03  0.80537818183E+02  0.23639812707E+02  0.14117621925E+03  0.41800000000E+01 0.  1.
         -5    1    4    4    0  501  0.24697842511E+00 -0.16370635877E+02  0.52235922911E+02  0.54901026946E+02  0.41800000000E+01 0.  1.
</event>
<event>
11    1  0.8328696E-009  0.1356660E+03  0.7561462E-02  0.1112497E+00
         22   -1    0    0    0    0  0.00000000000E+00  0.00000000000E+00  0.50791111923E+03  0.50791111923E+03  0.00000000000E+00 0.  1.
         22   -1    0    0    0    0 -0.00000000000E+00 -0.00000000000E+00 -0.70713597042E+03  0.70713597042E+03  0.00000000000E+00 0. -1.
         24    2    1    2    0    0  0.11602572151E+02  0.82815905496E+01 -0.61202130348E+03  0.61748344093E+03  0.80700182738E+02 0.  0.
         25    2    1    2    0    0  0.24543351119E+02  0.31025681777E+02 -0.37762758698E+02  0.13648742567E+03  0.12505127911E+03 0.  0.
        -24    2    1    2    0    0 -0.36145923270E+02 -0.39307272327E+02  0.45055921099E+03  0.46107622305E+03  0.82073695113E+02 0.  0.
        -13    1    3    3    0    0 -0.13457208968E+02 -0.25473764954E+02 -0.11018171719E+03  0.11388599552E+03  0.00000000000E+00 0.  1.
         14    1    3    3    0    0  0.25059781119E+02  0.33755355503E+02 -0.50183958629E+03  0.50359744541E+03  0.00000000000E+00 0. -1.
         13    1    5    5    0    0 -0.22525670897E+02  0.24119938871E+02  0.15828426374E+03  0.16168823535E+03  0.00000000000E+00 0. -1.
        -14    1    5    5    0    0 -0.13620252373E+02 -0.63427211197E+02  0.29227494725E+03  0.29938798771E+03  0.00000000000E+00 0.  1.
          5    1    4    4  501    0 -0.50396840056E+02  0.22280026830E+02 -0.11153744679E+02  0.56374812670E+02  0.41800000000E+01 0. -1.
         -5    1    4    4    0  501  0.74940191176E+02  0.87456549470E+01 -0.26609014020E+02  0.80112612996E+02  0.41800000000E+01 0. -1.
</event>
<event>
11    1  0.8328696E-009  0.1537576E+03  0.7561462E-02  0.1093100E+00
         22   -1    0    0    0    0  0.00000000000E+00  0.00000000000E+00  0.28891783541E+04  0.28891783541E+04  0.00000000000E+00 0. -1.
         22   -1    0    0    0    0 -0.00000000000E+00 -0.00000000000E+00 -0.12842456352E+03  0.12842456352E+03  0.00000000000E+00 0.  1.
         24    2    1    2    0    0  0.18498363905E+02  0.39719537830E+02 -0.89347985771E+02  0.12887478972E+03  0.81889057336E+02 0.  0.
         25    2    1    2    0    0  0.63420796225E+02 -0.75578407958E+02  0.33703196629E+03  0.37279023955E+03  0.12509086002E+03 0.  0.
        -24    2    1    2    0    0 -0.81919160130E+02  0.35858870129E+02  0.25130698100E+04  0.25159378883E+04  0.80168450409E+02 0.  0.
        -13    1    3    3    0    0 -0.16450562366E+02  0.19397830043E+01 -0.73028381384E+02  0.74883431064E+02  0.00000000000E+00 0.  1.
         14    1    3    3    0    0  0.34948926271E+02  0.37779754825E+02 -0.16319604387E+02  0.53991358656E+02  0.00000000000E+00 0. -1.
         11    1    5    5    0    0 -0.87790828327E+02  0.47836411442E+02  0.24004041453E+04  0.24024852992E+04  0.00000000000E+00 0. -1.
        -12    1    5    5    0    0  0.58716681975E+01 -0.11977541314E+02  0.11266566471E+03  0.11345258916E+03  0.00000000000E+00 0.  1.
          5    1    4    4  501    0 -0.24371165004E+02 -0.55363282293E+02  0.79908268373E+02  0.10030877561E+03  0.41800000000E+01 0. -1.
         -5    1    4    4    0  501  0.87791961229E+02 -0.20215125665E+02  0.25712369792E+03  0.27248146394E+03  0.41800000000E+01 0. -1.
</event>
<event>
11    1  0.8328696E-009  0.1387188E+03  0.7561462E-02  0.1108998E+00
         22   -1    0    0    0    0  0.00000000000E+00  0.00000000000E+00  0.28757658116E+03  0.28757658116E+03  0.00000000000E+00 0. -1.
         22   -1    0    0    0    0 -0.00000000000E+00 -0.00000000000E+00 -0.40697884221E+03  0.40697884221E+03  0.00000000000E+00 0.  1.
        -24    2    1    2    0    0 -0.76183781199E+02 -0.28156092913E+02 -0.33948959453E+03  0.35828174702E+03  0.80721071433E+02 0.  0.
         25    2    1    2    0    0 -0.13246394051E+02  0.11061720200E+02  0.77311880565E+02  0.14806695314E+03  0.12509543208E+03 0.  0.
         24    2    1    2    0    0  0.89430175250E+02  0.17094372713E+02  0.14277545291E+03  0.18820672321E+03  0.82139922581E+02 0.  0.
        -13    1    5    5    0    0  0.10804189903E+02  0.39094153376E+02  0.40220660877E+02  0.57120792265E+02  0.00000000000E+00 0.  1.
         14    1    5    5    0    0  0.78625985346E+02 -0.21999780662E+02  0.10255479204E+03  0.13108593094E+03  0.00000000000E+00 0. -1.
         11    1    3    3    0    0  0.13824530248E+02 -0.17366407461E+02 -0.94108771153E+02  0.96691108964E+02  0.00000000000E+00 0. -1.
        -12    1    3    3    0    0 -0.90008311447E+02 -0.10789685453E+02 -0.24538082337E+03  0.26159063806E+03  0.00000000000E+00 0.  1.
          5    1    4    4  501    0 -0.68810843243E+02  0.62306491705E+01  0.52518815059E+02  0.86887579504E+02  0.41800000000E+01 0.  1.
         -5    1    4    4    0  501  0.55564449192E+02  0.48310710294E+01  0.24793065505E+02  0.61179373635E+02  0.41800000000E+01 0.  1.
</event>
<event>
11    1  0.1008045E-008  0.1563204E+03  0.7561462E-02  0.1090590E+00
         22   -1    0    0    0    0  0.00000000000E+00  0.00000000000E+00  0.15793991248E+04  0.15793991248E+04  0.00000000000E+00 0. -1.
         22   -1    0    0    0    0 -0.00000000000E+00 -0.00000000000E+00 -0.45116394712E+03  0.45116394712E+03  0.00000000000E+00 0.  1.
        -24    2    1    2    0    0 -0.84170201569E+02 -0.25469089702E+01 -0.36475662410E+03  0.38270010101E+03  0.79503854703E+02 0.  0.
         25    2    1    2    0    0  0.25703658836E+02 -0.73002473330E+02 -0.25198647633E+01  0.14711857636E+03  0.12508991407E+03 0.  0.
         24    2    1    2    0    0  0.58466542733E+02  0.75549382300E+02  0.14955116666E+04  0.15007443946E+04  0.80947805683E+02 0.  0.
        -13    1    5    5    0    0  0.34358261635E+02 -0.75173839160E+01  0.28815529797E+03  0.29029377698E+03  0.00000000000E+00 0.  1.
         14    1    5    5    0    0  0.24108281099E+02  0.83066766216E+02  0.12073563686E+04  0.12104506176E+04  0.00000000000E+00 0. -1.
         13    1    3    3    0    0  0.14281238883E+02 -0.65111082862E+00 -0.23370298472E+02  0.27396141700E+02  0.00000000000E+00 0. -1.
        -14    1    3    3    0    0 -0.98451440452E+02 -0.18957981415E+01 -0.34138632563E+03  0.35530395931E+03  0.00000000000E+00 0.  1.
          5    1    4    4  501    0  0.52018763019E+02 -0.11060808775E+02 -0.42958932137E+02  0.68492594104E+02  0.41800000000E+01 0. -1.
         -5    1    4    4    0  501 -0.26315104182E+02 -0.61941664555E+02  0.40439067374E+02  0.78625982258E+02  0.41800000000E+01 0. -1.
</event>
<event>
11    1  0.8328696E-009  0.1958391E+03  0.7561462E-02  0.1057506E+00
         22   -1    0    0    0    0  0.00000000000E+00  0.00000000000E+00  0.42082632342E+03  0.42082632342E+03  0.00000000000E+00 0.  1.
         22   -1    0    0    0    0 -0.00000000000E+00 -0.00000000000E+00 -0.24330855773E+03  0.24330855773E+03  0.00000000000E+00 0. -1.
        -24    2    1    2    0    0  0.33448268758E+01  0.30159339493E+02 -0.13926277418E+03  0.16277595861E+03  0.78620091588E+02 0.  0.
         25    2    1    2    0    0 -0.12078186687E+03 -0.11119015046E+03  0.13257654615E+03  0.24530732205E+03  0.12509049819E+03 0.  0.
         24    2    1    2    0    0  0.11743704000E+03  0.81030810964E+02  0.18420399373E+03  0.25605160049E+03  0.10617843529E+03 0.  0.
        -11    1    5    5    0    0  0.11950364201E+03  0.26326007791E+02  0.13776041106E+03  0.18426098338E+03  0.00000000000E+00 0.  1.
         12    1    5    5    0    0 -0.20666020175E+01  0.54704803173E+02  0.46443582666E+02  0.71790617110E+02  0.00000000000E+00 0. -1.
         11    1    3    3    0    0  0.13694052215E+02  0.44229734241E+02 -0.37660931085E+02  0.59683684431E+02  0.00000000000E+00 0. -1.
        -12    1    3    3    0    0 -0.10349225339E+02 -0.14070394748E+02 -0.10160184310E+03  0.10309227418E+03  0.00000000000E+00 0.  1.
          5    1    4    4  501    0 -0.23138229163E+02 -0.51571904061E+02 -0.14906197152E+02  0.58606365276E+02  0.41800000000E+01 0.  1.
         -5    1    4    4    0  501 -0.97643637710E+02 -0.59618246396E+02  0.14748274330E+03  0.18670095677E+03  0.41800000000E+01 0.  1.
</event>
<event>
11    1  0.8328696E-009  0.1441038E+03  0.7561462E-02  0.1103060E+00
         22   -1    0    0    0    0  0.00000000000E+00  0.00000000000E+00  0.77210175077E+03  0.77210175077E+03  0.00000000000E+00 0.  1.
         22   -1    0    0    0    0 -0.00000000000E+00 -0.00000000000E+00 -0.11660251610E+03  0.11660251610E+03  0.00000000000E+00 0. -1.
        -24    2    1    2    0    0  0.61620656315E+02 -0.26811420228E+02 -0.56759800028E+02  0.11612841506E+03  0.75816728663E+02 0.  0.
         25    2    1    2    0    0 -0.12046546570E+03  0.14433184424E+02  0.28610373819E+03  0.33499733485E+03  0.12509044774E+03 0.  0.
         24    2    1    2    0    0  0.58844809385E+02  0.12378235803E+02  0.42615529651E+03  0.43757851695E+03  0.79061301784E+02 0.  0.
        -13    1    5    5    0    0  0.59429596744E+02 -0.14731060640E+02  0.37209625694E+03  0.37710012669E+03  0.00000000000E+00 0.  1.
         14    1    5    5    0    0 -0.58478735874E+00  0.27109296444E+02  0.54059039572E+02  0.60478390267E+02  0.00000000000E+00 0. -1.
         11    1    3    3    0    0  0.45945206952E+02 -0.33034106936E+02  0.34084860158E+00  0.56589137126E+02  0.00000000000E+00 0. -1.
        -12    1    3    3    0    0  0.15675449363E+02  0.62226867079E+01 -0.57100648630E+02  0.59539277931E+02  0.00000000000E+00 0.  1.
          5    1    4    4  501    0 -0.69663581301E+02  0.67883912216E+02  0.19289638179E+03  0.21607342873E+03  0.41800000000E+01 0.  1.
         -5    1    4    4    0  501 -0.50801884400E+02 -0.53450727792E+02  0.93207356398E+02  0.11892390612E+03  0.41800000000E+01 0.  1.
</event>
<event>
11    1  0.8328696E-009  0.2124018E+03  0.7561462E-02  0.1046084E+00
         22   -1    0    0    0    0  0.00000000000E+00  0.00000000000E+00  0.89593373523E+03  0.89593373523E+03  0.00000000000E+00 0.  1.
         22   -1    0    0    0    0 -0.00000000000E+00 -0.00000000000E+00 -0.65022412399E+03  0.65022412399E+03  0.00000000000E+00 0. -1.
         24    2    1    2    0    0  0.26029869090E+02  0.19020519428E+02 -0.59009883289E+03  0.59642867876E+03  0.80443781761E+02 0.  0.
         25    2    1    2    0    0 -0.12010501108E+03  0.12484352976E+03  0.22911140401E+03  0.31328900261E+03  0.12508734189E+03 0.  0.
        -24    2    1    2    0    0  0.94075141989E+02 -0.14386404919E+03  0.60669704012E+03  0.63644017785E+03  0.86184711534E+02 0.  0.
        -11    1    3    3    0    0 -0.26607051445E+01 -0.18127130097E+02 -0.36466818948E+02  0.40810551106E+02  0.00000000000E+00 0.  1.
         12    1    3    3    0    0  0.28690574235E+02  0.37147649524E+02 -0.55363201394E+03  0.55561812765E+03  0.00000000000E+00 0. -1.
         11    1    5    5    0    0  0.92197087538E+02 -0.77645029289E+02  0.31401336130E+03  0.33635315459E+03  0.00000000000E+00 0. -1.
        -12    1    5    5    0    0  0.18780544516E+01 -0.66219019899E+02  0.29268367882E+03  0.30008702327E+03  0.00000000000E+00 0.  1.
          5    1    4    4  501    0 -0.43453317217E+02  0.55739654090E+02  0.10590327116E+02  0.71587200278E+02  0.41800000000E+01 0.  1.
         -5    1    4    4    0  501 -0.76651693863E+02  0.69103875671E+02  0.21852107690E+03  0.24170180234E+03  0.41800000000E+01 0.  1.
</event>
<event>
11    1  0.8328696E-009  0.1302911E+03  0.7561462E-02  0.1118912E+00
         22   -1    0    0    0    0  0.00000000000E+00  0.00000000000E+00  0.15029395008E+03  0.15029395008E+03  0.00000000000E+00 0.  1.
         22   -1    0    0    0    0 -0.00000000000E+00 -0.00000000000E+00 -0.18334153980E+04  0.18334153980E+04  0.00000000000E+00 0. -1.
         24    2    1    2    0    0  0.29230757003E+02 -0.23078791722E+02 -0.17064626327E+04  0.17087580745E+04  0.80326662427E+02 0.  0.
         25    2    1    2    0    0 -0.18429786971E+02 -0.55166739595E+01 -0.72275753596E+02  0.14574240058E+03  0.12508785725E+03 0.  0.
        -24    2    1    2    0    0 -0.10800970032E+02  0.28595465682E+02  0.95616938354E+02  0.12920887299E+03  0.81350921008E+02 0.  0.
        -13    1    3    3    0    0 -0.25907145511E+02 -0.43575385113E+01 -0.32137358770E+03  0.32244557867E+03  0.00000000000E+00 0.  1.
         14    1    3    3    0    0  0.55137902514E+02 -0.18721253211E+02 -0.13850890450E+04  0.13863124958E+04  0.00000000000E+00 0. -1.
         11    1    5    5    0    0 -0.11149163671E+02 -0.92593141560E+01 -0.96033620464E+01  0.17385721492E+02  0.00000000000E+00 0. -1.
        -12    1    5    5    0    0  0.34819363909E+00  0.37854779838E+02  0.10522030040E+03  0.11182315150E+03  0.00000000000E+00 0.  1.
          5    1    4    4  501    0 -0.50434057647E+02 -0.49858387053E+02 -0.33299385409E+02  0.78458743291E+02  0.41800000000E+01 0. -1.
         -5    1    4    4    0  501  0.32004270676E+02  0.44341713094E+02 -0.38976368187E+02  0.67283657292E+02  0.41800000000E+01 0. -1.
</event>
<event>
11    1  0.8328696E-009  0.1614150E+03  0.7561462E-02  0.1085754E+00
         22   -1    0    0    0    0  0.00000000000E+00  0.00000000000E+00  0.22622850755E+04  0.22622850755E+04  0.00000000000E+00 0.  1.
         22   -1    0    0    0    0 -0.00000000000E+00 -0.00000000000E+00 -0.13026131818E+04  0.13026131818E+04  0.00000000000E+00 0. -1.
         24    2    1    2    0    0 -0.38366522890E+02  0.47773386384E+02 -0.12482110563E+04  0.12522859272E+04  0.80217927645E+02 0.  0.
         25    2    1    2    0    0  0.74672007691E+02 -0.14068888174E+03  0.15330892150E+03  0.25401271898E+03  0.12509822467E+03 0.  0.
        -24    2    1    2    0    0 -0.36305484801E+02  0.92915495351E+02  0.20545740285E+04  0.20585996111E+04  0.81280642702E+02 0.  0.
        -11    1    3    3    0    0 -0.16257307336E+02  0.22149918895E+02 -0.10380898941E+03  0.10738354264E+03  0.00000000000E+00 0.  1.
         12    1    3    3    0    0 -0.22109215554E+02  0.25623467488E+02 -0.11444020669E+04  0.11449023846E+04  0.00000000000E+00 0. -1.
         11    1    5    5    0    0 -0.61868271715E+01 -0.10439212972E+02  0.65508344155E+02  0.66622797538E+02  0.00000000000E+00 0. -1.
        -12    1    5    5    0    0 -0.30118657629E+02  0.10335470832E+03  0.19890656843E+04  0.19919768136E+04  0.00000000000E+00 0.  1.
          5    1    4    4  501    0  0.19213256025E+02 -0.12886862128E+03  0.57227744740E+02  0.14236838808E+03  0.41800000000E+01 0. -1.
         -5    1    4    4    0  501  0.55458751666E+02 -0.11820260457E+02  0.96081176764E+02  0.11164433090E+03  0.41800000000E+01 0. -1.
</event>
<event>
11    1  0.8328696E-009  0.1328211E+03  0.7561462E-02  0.1115851E+00
         22   -1    0    0    0    0  0.00000000000E+00  0.00000000000E+00  0.57088574067E+03  0.57088574067E+03  0.00000000000E+00 0. -1.
         22   -1    0    0    0    0 -0.00000000000E+00 -0.00000000000E+00 -0.52827441973E+03  0.52827441973E+03  0.00000000000E+00 0. -1.
        -24    2    1    2    0    0  0.23350064626E+02 -0.33030196354E+02 -0.34365726194E+03  0.35564872761E+03  0.82155245589E+02 0.  0.
         25    2    1    2    0    0 -0.28126412358E+02  0.59354238157E+02 -0.14689227238E+03  0.20379744293E+03  0.12506813104E+03 0.  0.
         24    2    1    2    0    0  0.47763477322E+01 -0.26324041803E+02  0.53316085526E+03  0.53971398985E+03  0.79466499739E+02 0.  0.
        -11    1    5    5    0    0 -0.12713047735E+02  0.10207042458E+02  0.24412634849E+02  0.29356124382E+02  0.00000000000E+00 0.  1.
         12    1    5    5    0    0  0.17489395467E+02 -0.36531084261E+02  0.50874822041E+03  0.51035786547E+03  0.00000000000E+00 0. -1.
         11    1    3    3    0    0  0.36237099996E+02 -0.51752670959E+02 -0.29827936537E+03  0.30489677954E+03  0.00000000000E+00 0. -1.
        -12    1    3    3    0    0 -0.12887035370E+02  0.18722474606E+02 -0.45377896569E+02  0.50751948071E+02  0.00000000000E+00 0.  1.
          5    1    4    4  501    0  0.29170800823E+02  0.75750634934E+02 -0.90512267772E+02  0.12165129400E+03  0.41800000000E+01 0.  1.
         -5    1    4    4    0  501 -0.57297213181E+02 -0.16396396778E+02 -0.56380004611E+02  0.82146148939E+02  0.41800000000E+01 0.  1.
</event>
<event>
11    1  0.8328696E-009  0.2578811E+03  0.7561462E-02  0.1019783E+00
         22   -1    0    0    0    0  0.00000000000E+00  0.00000000000E+00  0.25101472287E+04  0.25101472287E+04  0.00000000000E+00 0.  1.
         22   -1    0    0    0    0 -0.00000000000E+00 -0.00000000000E+00 -0.22187345764E+03  0.22187345764E+03  0.00000000000E+00 0. -1.
         24    2    1    2    0    0 -0.11137528465E+03 -0.20073840476E+03 -0.13390637143E+03  0.27817522314E+03  0.82159462511E+02 0.  0.
         25    2    1    2    0    0  0.82256561253E+02  0.15902633427E+03  0.81333315755E+03  0.84214866556E+03  0.12509209762E+03 0.  0.
        -24    2    1    2    0    0  0.29118723393E+02  0.41712070498E+02  0.16088469850E+04  0.16116967977E+04  0.81179736858E+02 0.  0.
        -13    1    3    3    0    0  0.44193144677E+01  0.28233610443E+01 -0.14253048415E+02  0.15187201752E+02  0.00000000000E+00 0.  1.
         14    1    3    3    0    0 -0.11579459911E+03 -0.20356176581E+03 -0.11965332301E+03  0.26298802138E+03  0.00000000000E+00 0. -1.
         11    1    5    5    0    0  0.10914919307E+02  0.66253708579E+01  0.33451539099E+02  0.35805536871E+02  0.00000000000E+00 0. -1.
        -12    1    5    5    0    0  0.18203804085E+02  0.35086699640E+02  0.15753954459E+04  0.15758912608E+04  0.00000000000E+00 0.  1.
          5    1    4    4  501    0  0.90484921640E+02  0.10667812808E+03  0.36899390203E+03  0.39464124998E+03  0.41800000000E+01 0. -1.
         -5    1    4    4    0  501 -0.82283603870E+01  0.52348206189E+02  0.44433925552E+03  0.44750741558E+03  0.41800000000E+01 0. -1.
</event>
<event>
11    1  0.8328696E-009  0.1558567E+03  0.7561462E-02  0.1091040E+00
         22   -1    0    0    0    0  0.00000000000E+00  0.00000000000E+00  0.11230052875E+04  0.11230052875E+04  0.00000000000E+00 0. -1.
         22   -1    0    0    0    0 -0.00000000000E+00 -0.00000000000E+00 -0.13975341171E+04  0.13975341171E+04  0.00000000000E+00 0. -1.
        -24    2    1    2    0    0 -0.36982324041E+02 -0.26737009754E+02 -0.13568112850E+04  0.13598488640E+04  0.78546228199E+02 0.  0.
         25    2    1    2    0    0 -0.37212840842E+02  0.84689760738E+02  0.13659484524E+03  0.20703710609E+03  0.12509620480E+03 0.  0.
         24    2    1    2    0    0  0.74195164883E+02 -0.57952750983E+02  0.94568761010E+03  0.95365343445E+03  0.79160427600E+02 0.  0.
        -13    1    5    5    0    0  0.90835237508E+01 -0.32184037449E+02  0.10836113182E+03  0.11340395743E+03  0.00000000000E+00 0.  1.
         14    1    5    5    0    0  0.65111641133E+02 -0.25768713534E+02  0.83732647828E+03  0.84024947702E+03  0.00000000000E+00 0. -1.
         11    1    3    3    0    0 -0.50664037295E+02 -0.26057883041E+02 -0.13054373687E+04  0.13066799843E+04  0.00000000000E+00 0. -1.
        -12    1    3    3    0    0  0.13681713254E+02 -0.67912671382E+00 -0.51373916330E+02  0.53168879711E+02  0.00000000000E+00 0.  1.
          5    1    4    4  501    0 -0.57404411759E+02  0.96947209536E+01  0.11055362646E+03  0.12501532237E+03  0.41800000000E+01 0.  1.
         -5    1    4    4    0  501  0.20191570917E+02  0.74995039784E+02  0.26041218771E+02  0.82021783713E+02  0.41800000000E+01 0.  1.
</event>
<event>
11    1  0.8328696E-009  0.3736869E+03  0.7561462E-02  0.9730754E-01
         22   -1    0    0    0    0  0.00000000000E+00  0.00000000000E+00  0.10177650598E+04  0.10177650598E+04  0.00000000000E+00 0.  1.
         22   -1    0    0    0    0 -0.00000000000E+00 -0.00000000000E+00 -0.21032763732E+03  0.21032763732E+03  0.00000000000E+00 0.  1.
         24    2    1    2    0    0 -0.13101676936E+02  0.34715315690E+03  0.12609838434E+03  0.37838728622E+03  0.81173687583E+02 0.  0.
         25    2    1    2    0    0 -0.41146663619E+02 -0.36173090057E+03  0.41755250090E+03  0.56792592420E+03  0.12508985574E+03 0.  0.
        -24    2    1    2    0    0  0.54248340555E+02  0.14577743669E+02  0.26378653722E+03  0.28177948668E+03  0.81614636134E+02 0.  0.
        -11    1    3    3    0    0 -0.16840019903E+02  0.32645895730E+03  0.13730499308E+03  0.35455845526E+03  0.00000000000E+00 0.  1.
         12    1    3    3    0    0  0.37383429675E+01  0.20694199605E+02 -0.11206608747E+02  0.23828830963E+02  0.00000000000E+00 0. -1.
         13    1    5    5    0    0  0.42921828217E+02 -0.29175392627E+02  0.11265421343E+03  0.12403410288E+03  0.00000000000E+00 0. -1.
        -14    1    5    5    0    0  0.11326512338E+02  0.43753136295E+02  0.15113232379E+03  0.15774538381E+03  0.00000000000E+00 0.  1.
          5    1    4    4  501    0 -0.79785002853E+02 -0.19376275563E+03  0.19380073488E+03  0.28545726368E+03  0.41800000000E+01 0.  1.
         -5    1    4    4    0  501  0.38638339234E+02 -0.16796814494E+03  0.22375176602E+03  0.28246866051E+03  0.41800000000E+01 0.  1.
</event>
<event>
11    1  0.8328696E-009  0.1509829E+03  0.7561462E-02  0.1095879E+00
         22   -1    0    0    0    0  0.00000000000E+00  0.00000000000E+00  0.19531472139E+03  0.19531472139E+03  0.00000000000E+00 0.  1.
         22   -1    0    0    0    0 -0.00000000000E+00 -0.00000000000E+00 -0.62189578542E+03  0.62189578542E+03  0.00000000000E+00 0.  1.
         24    2    1    2    0    0 -0.34968583818E+01 -0.26483793813E+02 -0.32859045496E+03  0.33851238942E+03  0.76846153785E+02 0.  0.
         25    2    1    2    0    0 -0.80591626542E+02  0.14109089178E+02 -0.24703251858E+03  0.28874834096E+03  0.12512578674E+03 0.  0.
        -24    2    1    2    0    0  0.84088484924E+02  0.12374704634E+02  0.14904190951E+03  0.18994977643E+03  0.81507178594E+02 0.  0.
        -13    1    3    3    0    0  0.31992848708E+02 -0.15740698272E+02 -0.23753942243E+03  0.24020051865E+03  0.00000000000E+00 0.  1.
         14    1    3    3    0    0 -0.35489707090E+02 -0.10743095541E+02 -0.91051032522E+02  0.98311870771E+02  0.00000000000E+00 0. -1.
         13    1    5    5    0    0  0.25980180833E+02 -0.32531281931E+02  0.35420418726E+02  0.54661322367E+02  0.00000000000E+00 0. -1.
        -14    1    5    5    0    0  0.58108304092E+02  0.44905986565E+02  0.11362149078E+03  0.13528845406E+03  0.00000000000E+00 0.  1.
          5    1    4    4  501    0 -0.97203214872E+02  0.50104429400E+02 -0.17429599978E+03  0.20580448675E+03  0.41800000000E+01 0.  1.
         -5    1    4    4    0  501  0.16611588329E+02 -0.35995340222E+02 -0.72736518802E+02  0.82943854214E+02  0.41800000000E+01 0.  1.
</event>
<event>
11    1  0.8328696E-009  0.1416346E+03  0.7561462E-02  0.1105747E+00
         22   -1    0    0    0    0  0.00000000000E+00  0.00000000000E+00  0.33982060765E+03  0.33982060765E+03  0.00000000000E+00 0.  1.
         22   -1    0    0    0    0 -0.00000000000E+00 -0.00000000000E+00 -0.72974139640E+03  0.72974139640E+03  0.00000000000E+00 0.  1.
         24    2    1    2    0    0 -0.94694100703E+01 -0.65708073901E+02 -0.65678677732E+03  0.66321789632E+03  0.63889642582E+02 0.  0.
         25    2    1    2    0    0  0.33416888265E+02  0.62838697902E+02  0.17593868074E+02  0.14499766121E+03  0.12509751072E+03 0.  0.
        -24    2    1    2    0    0 -0.23947478195E+02  0.28693759999E+01  0.24927212050E+03  0.26134644652E+03  0.74723891891E+02 0.  0.
        -11    1    3    3    0    0  0.26840022091E+02 -0.37619474029E+02 -0.33601450417E+03  0.33917747364E+03  0.00000000000E+00 0.  1.
         12    1    3    3    0    0 -0.36309432162E+02 -0.28088599872E+02 -0.32077227316E+03  0.32404042268E+03  0.00000000000E+00 0. -1.
         11    1    5    5    0    0 -0.18182472341E+02  0.33558313132E+02  0.73468035742E+02  0.82790790287E+02  0.00000000000E+00 0. -1.
        -12    1    5    5    0    0 -0.57650058537E+01 -0.30688937132E+02  0.17580408475E+03  0.17855565623E+03  0.00000000000E+00 0.  1.
          5    1    4    4  501    0  0.12459024717E+02 -0.38031125500E+02  0.10817887038E+02  0.41666447936E+02  0.41800000000E+01 0. -1.
         -5    1    4    4    0  501  0.20957863548E+02  0.10086982340E+03  0.67759810362E+01  0.10333121327E+03  0.41800000000E+01 0. -1.
</event>
<event>
11    1  0.8328696E-009  0.1544667E+03  0.7561462E-02  0.1092400E+00
         22   -1    0    0    0    0  0.00000000000E+00  0.00000000000E+00  0.11710294002E+04  0.11710294002E+04  0.00000000000E+00 0.  1.
         22   -1    0    0    0    0 -0.00000000000E+00 -0.00000000000E+00 -0.69106449348E+03  0.69106449348E+03  0.00000000000E+00 0. -1.
         24    2    1    2    0    0  0.14697110537E+01 -0.49558730264E+02 -0.50805318595E+03  0.51687388855E+03  0.81131677597E+02 0.  0.
         25    2    1    2    0    0 -0.64365220955E+02  0.11385124303E+03 -0.12855215058E+03  0.22198661270E+03  0.12508962224E+03 0.  0.
        -24    2    1    2    0    0  0.62895509901E+02 -0.64292512766E+02  0.11165702433E+04  0.11232333924E+04  0.82672688243E+02 0.  0.
        -13    1    3    3    0    0 -0.24515311150E+02  0.93333120277E+01 -0.85123483920E+02  0.89073670121E+02  0.00000000000E+00 0.  1.
         14    1    3    3    0    0  0.25985022204E+02 -0.58892042292E+02 -0.42292970203E+03  0.42780021842E+03  0.00000000000E+00 0. -1.
         11    1    5    5    0    0  0.49829310613E+01  0.19139644756E+02  0.13865648696E+03  0.14005990496E+03  0.00000000000E+00 0. -1.
        -12    1    5    5    0    0  0.57912578840E+02 -0.83432157522E+02  0.97791375631E+03  0.98317348747E+03  0.00000000000E+00 0.  1.
          5    1    4    4  501    0 -0.95395424861E+02  0.91967935498E+02 -0.64555257871E+02  0.14745589837E+03  0.41800000000E+01 0. -1.
         -5    1    4    4    0  501  0.31030203906E+02  0.21883307532E+02 -0.63996892709E+02  0.74530714336E+02  0.41800000000E+01 0. -1.
</event>
<event>
11    1  0.8328696E-009  0.1267960E+03  0.7561462E-02  0.1123270E+00
         22   -1    0    0    0    0  0.00000000000E+00  0.00000000000E+00  0.14574219458E+03  0.14574219458E+03  0.00000000000E+00 0.  1.
         22   -1    0    0    0    0 -0.00000000000E+00 -0.00000000000E+00 -0.85727675889E+03  0.85727675889E+03  0.00000000000E+00 0.  1.
         24    2    1    2    0    0  0.30596961926E+01 -0.22144950778E+02 -0.68037803337E+03  0.68550957252E+03  0.80680512751E+02 0.  0.
         25    2    1    2    0    0 -0.91980032058E+01  0.53870506832E+00 -0.13487553934E+03  0.18418327410E+03  0.12508866408E+03 0.  0.
        -24    2    1    2    0    0  0.61383070132E+01  0.21606245710E+02  0.10371900840E+03  0.13332610685E+03  0.80707554778E+02 0.  0.
        -11    1    3    3    0    0 -0.31105681067E+02 -0.33725051231E+02 -0.44874156734E+03  0.45108085388E+03  0.00000000000E+00 0.  1.
         12    1    3    3    0    0  0.34165377260E+02  0.11580100452E+02 -0.23163646603E+03  0.23442871864E+03  0.00000000000E+00 0. -1.
         13    1    5    5    0    0  0.26651456180E+01  0.49094407368E+02  0.38437789259E+02  0.62408552933E+02  0.00000000000E+00 0. -1.
        -14    1    5    5    0    0  0.34731613952E+01 -0.27488161658E+02  0.65281219143E+02  0.70917553922E+02  0.00000000000E+00 0.  1.
          5    1    4    4  501    0  0.13234333588E+02  0.59119708231E+02 -0.50621712558E+02  0.79058950595E+02  0.41800000000E+01 0.  1.
         -5    1    4    4    0  501 -0.22432336794E+02 -0.58581003163E+02 -0.84253826781E+02  0.10512432351E+03  0.41800000000E+01 0.  1.
</event>
<event>
11    1  0.8328696E-009  0.1739132E+03  0.7561462E-02  0.1074676E+00
         22   -1    0    0    0    0  0.00000000000E+00  0.00000000000E+00  0.12188065710E+03  0.12188065710E+03  0.00000000000E+00 0.  1.
         22   -1    0    0    0    0 -0.00000000000E+00 -0.00000000000E+00 -0.87928252568E+03  0.87928252568E+03  0.00000000000E+00 0. -1.
        -24    2    1    2    0    0  0.32887048421E+02  0.60937695977E+02 -0.62484085088E+03  0.63385791315E+03  0.80961746458E+02 0.  0.
         25    2    1    2    0    0  0.59798390150E+02 -0.13025334696E+03 -0.11946290569E+03  0.22464506027E+03  0.12510889419E+03 0.  0.
         24    2    1    2    0    0 -0.92685438571E+02  0.69315650987E+02 -0.13098112013E+02  0.14266020936E+03  0.82371868994E+02 0.  0.
        -11    1    5    5    0    0 -0.89416825307E+02  0.60735682382E+02  0.18579734509E+02  0.10967861367E+03  0.00000000000E+00 0.  1.
         12    1    5    5    0    0 -0.32686132636E+01  0.85799686054E+01 -0.31677846522E+02  0.32981595689E+02  0.00000000000E+00 0. -1.
         11    1    3    3    0    0  0.65821335649E+01  0.71699480451E+02 -0.33633199404E+03  0.34395254061E+03  0.00000000000E+00 0. -1.
        -12    1    3    3    0    0  0.26304914856E+02 -0.10761784474E+02 -0.28850885684E+03  0.28990537254E+03  0.00000000000E+00 0.  1.
          5    1    4    4  501    0 -0.21784816960E+02 -0.90076412812E+02 -0.89242151976E+02  0.12872440516E+03  0.41800000000E+01 0.  1.
         -5    1    4    4    0  501  0.81583207110E+02 -0.40176934152E+02 -0.30220753715E+02  0.95920655103E+02  0.41800000000E+01 0.  1.
</event>
<event>
11    1  0.8328696E-009  0.2344891E+03  0.7561462E-02  0.1032503E+00
         22   -1    0    0    0    0  0.00000000000E+00  0.00000000000E+00  0.39714304947E+03  0.39714304947E+03  0.00000000000E+00 0.  1.
         22   -1    0    0    0    0 -0.00000000000E+00 -0.00000000000E+00 -0.17624732119E+04  0.17624732119E+04  0.00000000000E+00 0. -1.
        -24    2    1    2    0    0 -0.16250666507E+03  0.48727041947E+01 -0.77837056605E+03  0.79999591791E+03  0.87752898122E+02 0.  0.
         25    2    1    2    0    0  0.28702469982E+03  0.97137312265E+02 -0.92217315563E+03  0.97870806513E+03  0.12508921631E+03 0.  0.
         24    2    1    2    0    0 -0.12451803475E+03 -0.10201001646E+03  0.33521355926E+03  0.38091227833E+03  0.82554521621E+02 0.  0.
        -11    1    5    5    0    0 -0.96201927760E+02 -0.11238501663E+03  0.24965408112E+03  0.29019366479E+03  0.00000000000E+00 0.  1.
         12    1    5    5    0    0 -0.28316106986E+02  0.10375000167E+02  0.85559478136E+02  0.90718613538E+02  0.00000000000E+00 0. -1.
         13    1    3    3    0    0 -0.39466776628E+02 -0.11450521715E+02 -0.39272245834E+03  0.39486664861E+03  0.00000000000E+00 0. -1.
        -14    1    3    3    0    0 -0.12303988844E+03  0.16323225910E+02 -0.38564810772E+03  0.40512926929E+03  0.00000000000E+00 0.  1.
          5    1    4    4  501    0  0.31682038653E+02 -0.21070397284E+02 -0.20027482578E+03  0.20389995453E+03  0.41800000000E+01 0. -1.
         -5    1    4    4    0  501  0.25534266116E+03  0.11820770955E+03 -0.72189832985E+03  0.77480811060E+03  0.41800000000E+01 0. -1.
</event>
<event>
11    1  0.8328696E-009  0.1378743E+03  0.7561462E-02  0.1109956E+00
         22   -1    0    0    0    0  0.00000000000E+00  0.00000000000E+00  0.21647153991E+04  0.21647153991E+04  0.00000000000E+00 0.  1.
         22   -1    0    0    0    0 -0.00000000000E+00 -0.00000000000E+00 -0.30327859868E+02  0.30327859868E+02  0.00000000000E+00 0. -1.
         24    2    1    2    0    0  0.18169389266E+02 -0.49128031963E+02  0.97201226099E+02  0.13684029279E+03  0.80830051006E+02 0.  0.
         25    2    1    2    0    0  0.36461055587E+02  0.14880612750E+02  0.47949865958E+03  0.49710856993E+03  0.12508846688E+03 0.  0.
        -24    2    1    2    0    0 -0.54630444853E+02  0.34247419213E+02  0.15576876535E+04  0.15610943962E+04  0.80420872518E+02 0.  0.
        -11    1    3    3    0    0  0.30869503539E+02  0.18079610842E-01  0.45606933497E+01  0.31204590999E+02  0.00000000000E+00 0.  1.
         12    1    3    3    0    0 -0.12700114273E+02 -0.49146111573E+02  0.92640532749E+02  0.10563570179E+03  0.00000000000E+00 0. -1.
         11    1    5    5    0    0 -0.35625716092E+02  0.60773396541E+02  0.10648620006E+04  0.10671896166E+04  0.00000000000E+00 0. -1.
        -12    1    5    5    0    0 -0.19004728761E+02 -0.26525977328E+02  0.49282565288E+03  0.49390477962E+03  0.00000000000E+00 0.  1.
          5    1    4    4  501    0  0.78179466399E+02  0.12231191002E+02  0.39347367345E+03  0.40137343597E+03  0.41800000000E+01 0. -1.
         -5    1    4    4    0  501 -0.41718410812E+02  0.26494217484E+01  0.86024986126E+02  0.95735133960E+02  0.41800000000E+01 0. -1.
</event>
<event>
11    1  0.8328696E-009  0.1409015E+03  0.7561462E-02  0.1106556E+00
         22   -1    0    0    0    0  0.00000000000E+00  0.00000000000E+00  0.78040659406E+03  0.78040659406E+03  0.00000000000E+00 0.  1.
         22   -1    0    0    0    0 -0.00000000000E+00 -0.00000000000E+00 -0.10496864304E+03  0.10496864304E+03  0.00000000000E+00 0. -1.
        -24    2    1    2    0    0 -0.42617919337E+02 -0.48525163440E+02 -0.51802552776E+02  0.11553904062E+03  0.80590240705E+02 0.  0.
         25    2    1    2    0    0  0.47620782926E+02  0.47578714472E+02  0.26119569035E+03  0.29732535999E+03  0.12509079903E+03 0.  0.
         24    2    1    2    0    0 -0.50028635894E+01  0.94644896801E+00  0.46604481345E+03  0.47251083649E+03  0.77735436192E+02 0.  0.
        -13    1    5    5    0    0  0.12904124463E+01  0.17832747283E+02  0.44249986611E+03  0.44286093026E+03  0.00000000000E+00 0.  1.
         14    1    5    5    0    0 -0.62932760357E+01 -0.16886298315E+02  0.23544947344E+02  0.29649906230E+02  0.00000000000E+00 0. -1.
         11    1    3    3    0    0 -0.47795301113E+02 -0.41273887558E+02 -0.70608929934E+02  0.94728800209E+02  0.00000000000E+00 0. -1.
        -12    1    3    3    0    0  0.51773817768E+01 -0.72512758815E+01  0.18806377158E+02  0.20810240407E+02  0.00000000000E+00 0.  1.
          5    1    4    4  501    0  0.76301652867E+02  0.53368920996E+01  0.87795350654E+02  0.11651575277E+03  0.41800000000E+01 0. -1.
         -5    1    4    4    0  501 -0.28680869940E+02  0.42241822372E+02  0.17340033969E+03  0.18080960722E+03  0.41800000000E+01 0. -1.
</event>
<event>
11    1  0.8328696E-009  0.1668415E+03  0.7561462E-02  0.1080813E+00
         22   -1    0    0    0    0  0.00000000000E+00  0.00000000000E+00  0.85800864676E+03  0.85800864676E+03  0.00000000000E+00 0. -1.
         22   -1    0    0    0    0 -0.00000000000E+00 -0.00000000000E+00 -0.62034693876E+03  0.62034693876E+03  0.00000000000E+00 0.  1.
        -24    2    1    2    0    0  0.77426110401E+00 -0.63951363258E+02 -0.56749889506E+03  0.57664875711E+03  0.79864991284E+02 0.  0.
         25    2    1    2    0    0  0.74571553403E+02 -0.26082286171E+02  0.91189037403E+02  0.17379337822E+03  0.12508994980E+03 0.  0.
         24    2    1    2    0    0 -0.75345814507E+02  0.90033649429E+02  0.71397156566E+03  0.72791345020E+03  0.79495563521E+02 0.  0.
        -13    1    5    5    0    0 -0.24523014796E+02  0.77883990887E+02  0.54390552507E+03  0.55000046772E+03  0.00000000000E+00 0.  1.
         14    1    5    5    0    0 -0.50822799711E+02  0.12149658542E+02  0.17006604059E+03  0.17791298248E+03  0.00000000000E+00 0. -1.
         13    1    3    3    0    0  0.25304160932E+02  0.18318093507E+01 -0.26009411687E+03  0.26132853980E+03  0.00000000000E+00 0. -1.
        -14    1    3    3    0    0 -0.24529899828E+02 -0.65783172608E+02 -0.30740477819E+03  0.31532021730E+03  0.00000000000E+00 0.  1.
          5    1    4    4  501    0 -0.79836622202E+01  0.20431885891E+02  0.74132135599E+02  0.77422520961E+02  0.41800000000E+01 0. -1.
         -5    1    4    4    0  501  0.82555215623E+02 -0.46514172063E+02  0.17056901804E+02  0.96370857257E+02  0.41800000000E+01 0. -1.
</event>
<event>
11    1  0.8328696E-009  0.1368941E+03  0.7561462E-02  0.1111077E+00
         22   -1    0    0    0    0  0.00000000000E+00  0.00000000000E+00  0.95004892320E+03  0.95004892320E+03  0.00000000000E+00 0.  1.
         22   -1    0    0    0    0 -0.00000000000E+00 -0.00000000000E+00 -0.55405240670E+02  0.55405240670E+02  0.00000000000E+00 0. -1.
         24    2    1    2    0    0  0.19501044832E+02  0.18189504904E+02  0.93293523250E+01  0.84519044626E+02  0.79657286243E+02 0.  0.
         25    2    1    2    0    0 -0.66530131362E+02 -0.34486159388E+02  0.37736191843E+03  0.40455698704E+03  0.12509510266E+03 0.  0.
        -24    2    1    2    0    0  0.47029086530E+02  0.16296654484E+02  0.50795241177E+03  0.51637813220E+03  0.78443654093E+02 0.  0.
        -13    1    3    3    0    0  0.57921713015E+01 -0.83788273264E+01 -0.31959118958E+02  0.33543095867E+02  0.00000000000E+00 0.  1.
         14    1    3    3    0    0  0.13708873530E+02  0.26568332231E+02  0.41288471283E+02  0.50975948759E+02  0.00000000000E+00 0. -1.
         11    1    5    5    0    0  0.86807029751E+00  0.35166425755E+02  0.31980885138E+03  0.32173767648E+03  0.00000000000E+00 0. -1.
        -12    1    5    5    0    0  0.46161016233E+02 -0.18869771272E+02  0.18814356039E+03  0.19464045572E+03  0.00000000000E+00 0.  1.
          5    1    4    4  501    0 -0.61223154620E+02  0.19483318506E+01  0.62821049477E+02  0.87840920510E+02  0.41800000000E+01 0.  1.
         -5    1    4    4    0  501 -0.53069767421E+01 -0.36434491238E+02  0.31454086896E+03  0.31671606653E+03  0.41800000000E+01 0.  1.
</event>
<event>
11    1  0.8328696E-009  0.1518071E+03  0.7561462E-02  0.1095047E+00
         22   -1    0    0    0    0  0.00000000000E+00  0.00000000000E+00  0.18843107297E+03  0.18843107297E+03  0.00000000000E+00 0.  1.
         22   -1    0    0    0    0 -0.00000000000E+00 -0.00000000000E+00 -0.11365347780E+04  0.11365347780E+04  0.00000000000E+00 0. -1.
         24    2    1    2    0    0  0.26234565756E+02 -0.35161441140E+02 -0.67984549724E+03  0.68570166928E+03  0.77924962314E+02 0.  0.
         25    2    1    2    0    0 -0.90379533754E+02 -0.22365870641E+02 -0.41970880093E+03  0.44774082860E+03  0.12509068602E+03 0.  0.
        -24    2    1    2    0    0  0.64144967999E+02  0.57527311782E+02  0.15145059318E+03  0.19152335306E+03  0.79498075903E+02 0.  0.
        -13    1    3    3    0    0 -0.14688384704E+02  0.11761393713E+02 -0.63775462386E+02  0.66493523217E+02  0.00000000000E+00 0.  1.
         14    1    3    3    0    0  0.40922950460E+02 -0.46922834853E+02 -0.61607003485E+03  0.61920814606E+03  0.00000000000E+00 0. -1.
         13    1    5    5    0    0  0.71682054372E+02  0.14796677749E+02  0.85123305824E+02  0.11226413401E+03  0.00000000000E+00 0. -1.
        -14    1    5    5    0    0 -0.75370863732E+01  0.42730634032E+02  0.66327287355E+02  0.79259219045E+02  0.00000000000E+00 0.  1.
          5    1    4    4  501    0 -0.10753932728E+03  0.16490722288E+02 -0.34413047990E+03  0.36094308475E+03  0.41800000000E+01 0.  1.
         -5    1    4    4    0  501  0.17159793526E+02 -0.38856592930E+02 -0.75578321027E+02  0.86797743848E+02  0.41800000000E+01 0.  1.
</event>
<event>
11    1  0.8328696E-009  0.1299585E+03  0.7561462E-02  0.1119320E+00
         22   -1    0    0    0    0  0.00000000000E+00  0.00000000000E+00  0.98027434561E+02  0.98027434561E+02  0.00000000000E+00 0.  1.
         22   -1    0    0    0    0 -0.00000000000E+00 -0.00000000000E+00 -0.14191507613E+04  0.14191507613E+04  0.00000000000E+00 0.  1.
         24    2    1    2    0    0 -0.85096634793E+00 -0.25691683411E+02 -0.12787764465E+04  0.12813540038E+04  0.77059043445E+02 0.  0.
         25    2    1    2    0    0 -0.34294199836E+02  0.14060583633E+02 -0.60563156230E+02  0.14383436725E+03  0.12508651868E+03 0.  0.
        -24    2    1    2    0    0  0.35145166184E+02  0.11631099778E+02  0.18216275984E+02  0.91989824819E+02  0.82218185163E+02 0.  0.
        -13    1    3    3    0    0  0.26706784952E+02 -0.41515456102E+02 -0.80741391497E+03  0.80892151383E+03  0.00000000000E+00 0.  1.
         14    1    3    3    0    0 -0.27557751300E+02  0.15823772691E+02 -0.47136253154E+03  0.47243248997E+03  0.00000000000E+00 0. -1.
         13    1    5    5    0    0  0.45986259390E+02 -0.99444601262E+01 -0.16363921910E+02  0.49813715784E+02  0.00000000000E+00 0. -1.
        -14    1    5    5    0    0 -0.10841093206E+02  0.21575559904E+02  0.34580197893E+02  0.42176109036E+02  0.00000000000E+00 0.  1.
          5    1    4    4  501    0  0.19523247248E+02 -0.43875651372E+02 -0.38330150715E+02  0.61586547396E+02  0.41800000000E+01 0.  1.
         -5    1    4    4    0  501 -0.53817447084E+02  0.57936235006E+02 -0.22233005515E+02  0.82247819858E+02  0.41800000000E+01 0.  1.
</event>
<event>
11    1  0.8328696E-009  0.1305799E+03  0.7561462E-02  0.1118558E+00
         22   -1    0    0    0    0  0.00000000000E+00  0.00000000000E+00  0.16038222380E+04  0.16038222380E+04  0.00000000000E+00 0. -1.
         22   -1    0    0    0    0 -0.00000000000E+00 -0.00000000000E+00 -0.66262682705E+02  0.66262682705E+02  0.00000000000E+00 0.  1.
         24    2    1    2    0    0  0.16101362188E+02 -0.12372495623E+02 -0.40047320082E+00  0.81829694564E+02  0.79269199702E+02 0.  0.
         25    2    1    2    0    0 -0.25261623766E+02 -0.24295074671E+02  0.15401910644E+03  0.20150894243E+03  0.12512221403E+03 0.  0.
        -24    2    1    2    0    0  0.91602615774E+01  0.36667570294E+02  0.13839409220E+04  0.13867462837E+04  0.79651481693E+02 0.  0.
        -11    1    3    3    0    0  0.37194207455E+02 -0.22973538841E+02 -0.22783890067E+02  0.49298054745E+02  0.00000000000E+00 0.  1.
         12    1    3    3    0    0 -0.21092845267E+02  0.10601043217E+02  0.22383416866E+02  0.32531639819E+02  0.00000000000E+00 0. -1.
         13    1    5    5    0    0  0.37058103461E+01  0.59101387484E+02  0.11834122766E+04  0.11848929586E+04  0.00000000000E+00 0. -1.
        -14    1    5    5    0    0  0.54544512313E+01 -0.22433817190E+02  0.20052864544E+03  0.20185332505E+03  0.00000000000E+00 0.  1.
          5    1    4    4  501    0 -0.45099868141E+02 -0.55149199152E+02  0.14772182339E+03  0.16405682485E+03  0.41800000000E+01 0.  1.
         -5    1    4    4    0  501  0.19838244376E+02  0.30854124481E+02  0.62972830446E+01  0.37452117579E+02  0.41800000000E+01 0.  1.
</event>
<event>
11    1  0.8328696E-009  0.1737767E+03  0.7561462E-02  0.1074791E+00
         22   -1    0    0    0    0  0.00000000000E+00  0.00000000000E+00  0.11768795495E+03  0.11768795495E+03  0.00000000000E+00 0.  1.
         22   -1    0    0    0    0 -0.00000000000E+00 -0.00000000000E+00 -0.24616961106E+04  0.24616961106E+04  0.00000000000E+00 0. -1.
         24    2    1    2    0    0  0.37820468302E+02 -0.11260357617E+03 -0.21103290804E+04  0.21151030494E+04  0.77859674418E+02 0.  0.
         25    2    1    2    0    0 -0.13858432391E+03  0.11065446029E+03 -0.25398533652E+03  0.33408201225E+03  0.12510881394E+03 0.  0.
        -24    2    1    2    0    0  0.10076385561E+03  0.19491158818E+01  0.20306261283E+02  0.13019900387E+03  0.79889190202E+02 0.  0.
        -13    1    3    3    0    0 -0.12330628684E+01  0.33110893656E+01 -0.44847228182E+01  0.57093340750E+01  0.00000000000E+00 0.  1.
         14    1    3    3    0    0  0.39053531171E+02 -0.11591466554E+03 -0.21058443576E+04  0.21093937153E+04  0.00000000000E+00 0. -1.
         13    1    5    5    0    0  0.11620367118E+02  0.79685454252E+01 -0.25994938006E+02  0.29568013970E+02  0.00000000000E+00 0. -1.
        -14    1    5    5    0    0  0.89143488491E+02 -0.60194295435E+01  0.46301199289E+02  0.10063098990E+03  0.00000000000E+00 0.  1.
          5    1    4    4  501    0  0.20189478090E+02  0.34798455880E+02 -0.38433865262E+02  0.55795895513E+02  0.41800000000E+01 0.  1.
         -5    1    4    4    0  501 -0.15877380200E+03  0.75856004411E+02 -0.21555147126E+03  0.27828611674E+03  0.41800000000E+01 0.  1.
</event>
<event>
11    1  0.8328696E-009  0.1481193E+03  0.7561462E-02  0.1098816E+00
         22   -1    0    0    0    0  0.00000000000E+00  0.00000000000E+00  0.43435401012E+02  0.43435401012E+02  0.00000000000E+00 0. -1.
         22   -1    0    0    0    0 -0.00000000000E+00 -0.00000000000E+00 -0.28329473570E+04  0.28329473570E+04  0.00000000000E+00 0. -1.
        -24    2    1    2    0    0  0.82017844634E+02 -0.15824128696E+02 -0.23204805088E+04  0.23233351192E+04  0.79239855358E+02 0.  0.
         25    2    1    2    0    0 -0.51404062696E+02 -0.11694332104E+02 -0.43165449948E+03  0.45249534658E+03  0.12508915499E+03 0.  0.
         24    2    1    2    0    0 -0.30613781938E+02  0.27518460800E+02 -0.37376947703E+02  0.10055229218E+03  0.83781011656E+02 0.  0.
        -13    1    5    5    0    0  0.13921009916E+02  0.42491221127E+02 -0.27648661304E+02  0.52571350200E+02  0.00000000000E+00 0.  1.
         14    1    5    5    0    0 -0.44534791853E+02 -0.14972760327E+02 -0.97282863990E+01  0.47980941982E+02  0.00000000000E+00 0. -1.
         11    1    3    3    0    0  0.87495263350E+02 -0.18156031391E+02 -0.23052679025E+04  0.23069991688E+04  0.00000000000E+00 0. -1.
        -12    1    3    3    0    0 -0.54774187164E+01  0.23319026958E+01 -0.15212606284E+02  0.16335950414E+02  0.00000000000E+00 0.  1.
          5    1    4    4  501    0  0.11745700505E+02 -0.93944883273E+00 -0.34199574619E+03  0.34222420554E+03  0.41800000000E+01 0. -1.
         -5    1    4    4    0  501 -0.63149763200E+02 -0.10754883272E+02 -0.89658753287E+02  0.11027114105E+03  0.41800000000E+01 0. -1.
</event>
<event>
11    1  0.8328696E-009  0.1321421E+03  0.7561462E-02  0.1116665E+00
         22   -1    0    0    0    0  0.00000000000E+00  0.00000000000E+00  0.30174325592E+03  0.30174325592E+03  0.00000000000E+00 0.  1.
         22   -1    0    0    0    0 -0.00000000000E+00 -0.00000000000E+00 -0.14225932799E+04  0.14225932799E+04  0.00000000000E+00 0.  1.
         24    2    1    2    0    0 -0.39911183924E+02  0.17046292233E+02 -0.13131772991E+04  0.13162735100E+04  0.79106608062E+02 0.  0.
         25    2    1    2    0    0  0.13816979475E+02 -0.21617716816E+02 -0.60437501339E+02  0.14127675018E+03  0.12509274148E+03 0.  0.
        -24    2    1    2    0    0  0.26094204449E+02  0.45714245829E+01  0.25276477645E+03  0.26678627570E+03  0.81136177241E+02 0.  0.
        -11    1    3    3    0    0 -0.44604875469E+02  0.10506252717E+01 -0.12539885613E+04  0.12547820570E+04  0.00000000000E+00 0.  1.
         12    1    3    3    0    0  0.46936915448E+01  0.15995666962E+02 -0.59188737811E+02  0.61491452947E+02  0.00000000000E+00 0. -1.
         11    1    5    5    0    0 -0.27368190492E+02 -0.91025404483E+01  0.65706282395E+02  0.71757854201E+02  0.00000000000E+00 0. -1.
        -12    1    5    5    0    0  0.53462394941E+02  0.13673965031E+02  0.18705849406E+03  0.19502842150E+03  0.00000000000E+00 0.  1.
          5    1    4    4  501    0  0.90072021582E+01  0.13048796296E+01 -0.97075940300E+02  0.97591203429E+02  0.41800000000E+01 0. -1.
         -5    1    4    4    0  501  0.48097773166E+01 -0.22922596446E+02  0.36638438962E+02  0.43685546754E+02  0.41800000000E+01 0. -1.
</event>
<event>
11    1  0.8328696E-009  0.1386654E+03  0.7561462E-02  0.1109058E+00
         22   -1    0    0    0    0  0.00000000000E+00  0.00000000000E+00  0.43742628105E+03  0.43742628105E+03  0.00000000000E+00 0.  1.
         22   -1    0    0    0    0 -0.00000000000E+00 -0.00000000000E+00 -0.52685283767E+03  0.52685283767E+03  0.00000000000E+00 0.  1.
        -24    2    1    2    0    0 -0.18714262479E+02  0.14204001076E+02 -0.46919159185E+03  0.47610672708E+03  0.77362060702E+02 0.  0.
         25    2    1    2    0    0 -0.98874497149E+01  0.41695934648E+02  0.47186946178E+02  0.14039263696E+03  0.12508865653E+03 0.  0.
         24    2    1    2    0    0  0.28601712194E+02 -0.55899935724E+02  0.33257808906E+03  0.34777975469E+03  0.79998198041E+02 0.  0.
        -11    1    5    5    0    0 -0.27704506174E+02 -0.11632112873E+02  0.94679729133E+02  0.99333261403E+02  0.00000000000E+00 0.  1.
         12    1    5    5    0    0  0.56306218368E+02 -0.44267822851E+02  0.23789835993E+03  0.24844649328E+03  0.00000000000E+00 0. -1.
         13    1    3    3    0    0  0.96291843028E+00 -0.21266084730E+02 -0.42916982321E+02  0.47906585593E+02  0.00000000000E+00 0. -1.
        -14    1    3    3    0    0 -0.19677180910E+02  0.35470085806E+02 -0.42627460953E+03  0.42820014148E+03  0.00000000000E+00 0.  1.
          5    1    4    4  501    0 -0.61345996259E+02  0.77568782258E+01  0.48338321530E+02  0.78597494522E+02  0.41800000000E+01 0.  1.
         -5    1    4    4    0  501  0.51458546544E+02  0.33939056422E+02 -0.11513753512E+01  0.61795142434E+02  0.41800000000E+01 0.  1.
</event>
<event>
11    1  0.8328696E-009  0.1508389E+03  0.7561462E-02  0.1096025E+00
         22   -1    0    0    0    0  0.00000000000E+00  0.00000000000E+00  0.12190204839E+04  0.12190204839E+04  0.00000000000E+00 0.  1.
         22   -1    0    0    0    0 -0.00000000000E+00 -0.00000000000E+00 -0.87551388041E+03  0.87551388041E+03  0.00000000000E+00 0.  1.
        -24    2    1    2    0    0 -0.38092457040E+02  0.47492168980E+02 -0.73814249562E+03  0.74473646937E+03  0.77919981927E+02 0.  0.
         25    2    1    2    0    0  0.87835404934E+02  0.20979989183E+02 -0.85743414113E+02  0.17650677088E+03  0.12508992284E+03 0.  0.
         24    2    1    2    0    0 -0.49742947893E+02 -0.68472158163E+02  0.11673925132E+04  0.11732911241E+04  0.81510640989E+02 0.  0.
        -13    1    5    5    0    0 -0.13716310875E+02 -0.32502292528E+02  0.92193795809E+03  0.92261266779E+03  0.00000000000E+00 0.  1.
         14    1    5    5    0    0 -0.36026637018E+02 -0.35969865635E+02  0.24545455515E+03  0.25067845630E+03  0.00000000000E+00 0. -1.
         13    1    3    3    0    0 -0.65260682945E+01  0.57466691019E+02 -0.31238464642E+03  0.31769352757E+03  0.00000000000E+00 0. -1.
        -14    1    3    3    0    0 -0.31566388746E+02 -0.99745220384E+01 -0.42575784920E+03  0.42704294180E+03  0.00000000000E+00 0.  1.
          5    1    4    4  501    0 -0.21459459564E+02 -0.26960859616E+02 -0.22606612400E+02  0.41423757438E+02  0.41800000000E+01 0. -1.
         -5    1    4    4    0  501  0.10929486450E+03  0.47940848800E+02 -0.63136801713E+02  0.13508301344E+03  0.41800000000E+01 0. -1.
</event>
<event>
11    1  0.8328696E-009  0.9142677E+03  0.7561462E-02  0.8765126E-01
         22   -1    0    0    0    0  0.00000000000E+00  0.00000000000E+00  0.11795661969E+04  0.11795661969E+04  0.00000000000E+00 0.  1.
         22   -1    0    0    0    0 -0.00000000000E+00 -0.00000000000E+00 -0.17715951799E+03  0.17715951799E+03  0.00000000000E+00 0.  1.
         24    2    1    2    0    0  0.13220992024E+03 -0.16844262533E+02  0.72248813533E+02  0.17161606731E+03  0.80430039863E+02 0.  0.
         25    2    1    2    0    0 -0.41550704615E+03  0.18652511208E+02  0.47927252028E+03  0.64679446926E+03  0.12508763005E+03 0.  0.
        -24    2    1    2    0    0  0.28329712591E+03 -0.18082486740E+01  0.45088534513E+03  0.53831517836E+03  0.78899337682E+02 0.  0.
        -13    1    3    3    0    0  0.12338014672E+03 -0.33011541292E+02  0.80981445678E+02  0.15122968295E+03  0.00000000000E+00 0.  1.
         14    1    3    3    0    0  0.88297735196E+01  0.16167278759E+02 -0.87326321450E+01  0.20386384355E+02  0.00000000000E+00 0. -1.
         11    1    5    5    0    0  0.73900167912E+02  0.22625807336E+02  0.17327709181E+03  0.18973168560E+03  0.00000000000E+00 0. -1.
        -12    1    5    5    0    0  0.20939695800E+03 -0.24434056010E+02  0.27760825332E+03  0.34858349276E+03  0.00000000000E+00 0.  1.
          5    1    4    4  501    0 -0.39988745099E+03  0.43574797034E+02  0.46133295412E+03  0.61209011048E+03  0.41800000000E+01 0. -1.
         -5    1    4    4    0  501 -0.15619595150E+02 -0.24922285826E+02  0.17939566167E+02  0.34704358771E+02  0.41800000000E+01 0. -1.
</event>
<event>
11    1  0.8328696E-009  0.1902388E+03  0.7561462E-02  0.1061649E+00
         22   -1    0    0    0    0  0.00000000000E+00  0.00000000000E+00  0.21011808841E+04  0.21011808841E+04  0.00000000000E+00 0. -1.
         22   -1    0    0    0    0 -0.00000000000E+00 -0.00000000000E+00 -0.26956928002E+02  0.26956928002E+02  0.00000000000E+00 0.  1.
         24    2    1    2    0    0 -0.30084132780E+02  0.15386489390E+03  0.59658123664E+03  0.62211846802E+03  0.80887302572E+02 0.  0.
         25    2    1    2    0    0 -0.36287826367E+02 -0.12851108009E+03  0.84423349821E+03  0.86383438561E+03  0.12509093578E+03 0.  0.
        -24    2    1    2    0    0  0.66371959147E+02 -0.25353813810E+02  0.63340922124E+03  0.64218495847E+03  0.78397872990E+02 0.  0.
        -13    1    3    3    0    0 -0.56140877335E+02  0.78515439742E+02  0.31325518607E+03  0.32778847446E+03  0.00000000000E+00 0.  1.
         14    1    3    3    0    0  0.26056744556E+02  0.75349454161E+02  0.28332605057E+03  0.29432999356E+03  0.00000000000E+00 0. -1.
         13    1    5    5    0    0  0.18234597407E+02 -0.46079769793E+02  0.22281858524E+03  0.22826293535E+03  0.00000000000E+00 0. -1.
        -14    1    5    5    0    0  0.48137361739E+02  0.20725955983E+02  0.41059063600E+03  0.41392202312E+03  0.00000000000E+00 0.  1.
          5    1    4    4  501    0  0.41341843595E+02 -0.83139455545E+02  0.43457185508E+03  0.44440014258E+03  0.41800000000E+01 0.  1.
         -5    1    4    4    0  501 -0.77629669963E+02 -0.45371624549E+02  0.40966164313E+03  0.41943424303E+03  0.41800000000E+01 0.  1.
</event>
<event>
11    1  0.8328696E-009  0.1710117E+03  0.7561462E-02  0.1077155E+00
         22   -1    0    0    0    0  0.00000000000E+00  0.00000000000E+00  0.17125500936E+04  0.17125500936E+04  0.00000000000E+00 0. -1.
         22   -1    0    0    0    0 -0.00000000000E+00 -0.00000000000E+00 -0.29674660407E+03  0.29674660407E+03  0.00000000000E+00 0.  1.
        -24    2    1    2    0    0  0.11529108823E+03  0.28756572949E+02 -0.25265084701E+03  0.29065287164E+03  0.80793971201E+02 0.  0.
         25    2    1    2    0    0 -0.91848189190E+02  0.11530429633E+02  0.23337781254E+03  0.28050266092E+03  0.12508996256E+03 0.  0.
         24    2    1    2    0    0 -0.23442899043E+02 -0.40287002581E+02  0.14350765240E+04  0.14381411651E+04  0.81441813217E+02 0.  0.
        -13    1    5    5    0    0 -0.15738197133E+02  0.17678095464E+02  0.16173449650E+03  0.16345719093E+03  0.00000000000E+00 0.  1.
         14    1    5    5    0    0 -0.77047019097E+01 -0.57965098045E+02  0.12733420275E+04  0.12746839742E+04  0.00000000000E+00 0. -1.
         11    1    3    3    0    0  0.16713789677E+02  0.41071106252E+02 -0.78996592379E+02  0.90590552165E+02  0.00000000000E+00 0. -1.
        -12    1    3    3    0    0  0.98577298556E+02 -0.12314533303E+02 -0.17365425463E+03  0.20006231947E+03  0.00000000000E+00 0.  1.
          5    1    4    4  501    0 -0.19568027528E+02 -0.42900127090E+02  0.25546793548E+02  0.53790702415E+02  0.41800000000E+01 0. -1.
         -5    1    4    4    0  501 -0.72280161661E+02  0.54430556723E+02  0.20783101899E+03  0.22671195850E+03  0.41800000000E+01 0. -1.
</event>
<event>
11    1  0.8328696E-009  0.1402531E+03  0.7561462E-02  0.1107276E+00
         22   -1    0    0    0    0  0.00000000000E+00  0.00000000000E+00  0.86696311050E+03  0.86696311050E+03  0.00000000000E+00 0.  1.
         22   -1    0    0    0    0 -0.00000000000E+00 -0.00000000000E+00 -0.98917977474E+02  0.98917977474E+02  0.00000000000E+00 0.  1.
        -24    2    1    2    0    0 -0.62028587603E+01  0.59458356800E+01 -0.60296291775E+02  0.10112842470E+03  0.80730954797E+02 0.  0.
         25    2    1    2    0    0 -0.28489586845E+02 -0.58391426269E+02  0.38807678672E+03  0.41288318429E+03  0.12509083202E+03 0.  0.
         24    2    1    2    0    0  0.34692445605E+02  0.52445590589E+02  0.44026463808E+03  0.45186947898E+03  0.79993554353E+02 0.  0.
        -13    1    5    5    0    0  0.26569788608E+02  0.31205484492E+02  0.41813474736E+03  0.42013855200E+03  0.00000000000E+00 0.  1.
         14    1    5    5    0    0  0.81226569974E+01  0.21240106098E+02  0.22129890720E+02  0.31730926980E+02  0.00000000000E+00 0. -1.
         11    1    3    3    0    0  0.59434836659E+01 -0.34766957928E+02 -0.42065749513E+02  0.54896207918E+02  0.00000000000E+00 0. -1.
        -12    1    3    3    0    0 -0.12146342426E+02  0.40712793608E+02 -0.18230542262E+02  0.46232216786E+02  0.00000000000E+00 0.  1.
          5    1    4    4  501    0  0.25773845870E+02 -0.70372882845E+02  0.14247016837E+03  0.16103370780E+03  0.41800000000E+01 0.  1.
         -5    1    4    4    0  501 -0.54263432715E+02  0.11981456576E+02  0.24560661835E+03  0.25184947649E+03  0.41800000000E+01 0.  1.
</event>
<event>
11    1  0.8328696E-009  0.1304467E+03  0.7561462E-02  0.1118721E+00
         22   -1    0    0    0    0  0.00000000000E+00  0.00000000000E+00  0.42853231691E+03  0.42853231691E+03  0.00000000000E+00 0. -1.
         22   -1    0    0    0    0 -0.00000000000E+00 -0.00000000000E+00 -0.78589935119E+03  0.78589935119E+03  0.00000000000E+00 0.  1.
         24    2    1    2    0    0  0.58391014135E+01  0.39605947605E+01 -0.64382741772E+03  0.64857733401E+03  0.78032255974E+02 0.  0.
         25    2    1    2    0    0 -0.20900076353E+02 -0.37551303187E+02 -0.10250468911E+03  0.16733236882E+03  0.12508395902E+03 0.  0.
        -24    2    1    2    0    0  0.15060974939E+02  0.33590708427E+02  0.38896507255E+03  0.39852196526E+03  0.78554188155E+02 0.  0.
        -13    1    3    3    0    0  0.35017097451E+02 -0.60605184650E+01 -0.16631811140E+03  0.17007245861E+03  0.00000000000E+00 0.  1.
         14    1    3    3    0    0 -0.29177996038E+02  0.10021113225E+02 -0.47750930632E+03  0.47850487541E+03  0.00000000000E+00 0. -1.
         13    1    5    5    0    0  0.19063962549E+02  0.54622330208E+02  0.19563292613E+03  0.20400802781E+03  0.00000000000E+00 0. -1.
        -14    1    5    5    0    0 -0.40029876094E+01 -0.21031621781E+02  0.19333214642E+03  0.19451393745E+03  0.00000000000E+00 0.  1.
          5    1    4    4  501    0  0.18074299195E+02  0.25907597941E+02  0.90624460475E+01  0.33128299848E+02  0.41800000000E+01 0.  1.
         -5    1    4    4    0  501 -0.38974375548E+02 -0.63458901128E+02 -0.11156713516E+03  0.13420406897E+03  0.41800000000E+01 0.  1.
</event>
<event>
11    1  0.8328696E-009  0.1818100E+03  0.7561462E-02  0.1068188E+00
         22   -1    0    0    0    0  0.00000000000E+00  0.00000000000E+00  0.17561599217E+03  0.17561599217E+03  0.00000000000E+00 0. -1.
         22   -1    0    0    0    0 -0.00000000000E+00 -0.00000000000E+00 -0.88444001297E+03  0.88444001297E+03  0.00000000000E+00 0.  1.
        -24    2    1    2    0    0 -0.12891135862E+02 -0.39903809083E+02 -0.52206191019E+03  0.52981694311E+03  0.79992873258E+02 0.  0.
         25    2    1    2    0    0 -0.89524228443E+01 -0.95048084696E+02 -0.29767953353E+03  0.33671283925E+03  0.12509255433E+03 0.  0.
         24    2    1    2    0    0  0.21843558706E+02  0.13495189378E+03  0.11091742292E+03  0.19352622278E+03  0.80377667952E+02 0.  0.
        -11    1    5    5    0    0 -0.79490408303E+01 -0.80591847302E+01  0.14909462302E+02  0.18719769624E+02  0.00000000000E+00 0.  1.
         12    1    5    5    0    0  0.29792599537E+02  0.14301107851E+03  0.96007960617E+02  0.17480645316E+03  0.00000000000E+00 0. -1.
         13    1    3    3    0    0 -0.44366163042E+01  0.23733131121E+02 -0.98394624426E+02  0.10131360813E+03  0.00000000000E+00 0. -1.
        -14    1    3    3    0    0 -0.84545195577E+01 -0.63636940205E+02 -0.42366728576E+03  0.42850333498E+03  0.00000000000E+00 0.  1.
          5    1    4    4  501    0  0.36452205156E+02 -0.19016395205E+02 -0.20236202699E+03  0.20653873466E+03  0.41800000000E+01 0. -1.
         -5    1    4    4    0  501 -0.45404628000E+02 -0.76031689491E+02 -0.95317506542E+02  0.13017410458E+03  0.41800000000E+01 0. -1.
</event>
<event>
11    1  0.8328696E-009  0.1557327E+03  0.7561462E-02  0.1091161E+00
         22   -1    0    0    0    0  0.00000000000E+00  0.00000000000E+00  0.14476362459E+03  0.14476362459E+03  0.00000000000E+00 0. -1.
         22   -1    0    0    0    0 -0.00000000000E+00 -0.00000000000E+00 -0.10105359856E+04  0.10105359856E+04  0.00000000000E+00 0. -1.
         24    2    1    2    0    0 -0.47574535474E+02 -0.34413879412E+02 -0.77732125749E+03  0.78370240551E+03  0.80706081157E+02 0.  0.
         25    2    1    2    0    0  0.10462510745E+03  0.95968639400E+02 -0.14884021390E+03  0.24074361063E+03  0.12509070280E+03 0.  0.
        -24    2    1    2    0    0 -0.57050571974E+02 -0.61554759989E+02  0.60389110350E+02  0.13085359408E+03  0.80200138370E+02 0.  0.
        -11    1    3    3    0    0 -0.44510967319E+02 -0.29220707576E+02 -0.22011185774E+03  0.22646038479E+03  0.00000000000E+00 0.  1.
         12    1    3    3    0    0 -0.30635681547E+01 -0.51931718357E+01 -0.55720939975E+03  0.55724202072E+03  0.00000000000E+00 0. -1.
         13    1    5    5    0    0 -0.24030237456E+02 -0.38867661619E+02  0.75320642971E+02  0.88098505604E+02  0.00000000000E+00 0. -1.
        -14    1    5    5    0    0 -0.33020334518E+02 -0.22687098369E+02 -0.14931532621E+02  0.42755088475E+02  0.00000000000E+00 0.  1.
          5    1    4    4  501    0  0.10194779091E+03  0.33285766944E+02 -0.39024733192E+02  0.11420024760E+03  0.41800000000E+01 0.  1.
         -5    1    4    4    0  501  0.26773165419E+01  0.62682872457E+02 -0.10981548071E+03  0.12654336303E+03  0.41800000000E+01 0.  1.
</event>
<event>
11    1  0.8328696E-009  0.1472259E+03  0.7561462E-02  0.1099747E+00
         22   -1    0    0    0    0  0.00000000000E+00  0.00000000000E+00  0.50506919325E+03  0.50506919325E+03  0.00000000000E+00 0. -1.
         22   -1    0    0    0    0 -0.00000000000E+00 -0.00000000000E+00 -0.34780777268E+03  0.34780777268E+03  0.00000000000E+00 0. -1.
        -24    2    1    2    0    0 -0.82516011155E+02 -0.59671597399E+01 -0.24358925490E+03  0.27164481506E+03  0.87239219130E+02 0.  0.
         25    2    1    2    0    0  0.55187354036E+02 -0.49637427110E+02 -0.21353759321E+02  0.14701322825E+03  0.12508952006E+03 0.  0.
         24    2    1    2    0    0  0.27328657120E+02  0.55604586850E+02  0.42220443480E+03  0.43421892261E+03  0.80316638413E+02 0.  0.
        -13    1    5    5    0    0  0.29303531315E+02  0.61459514481E+02  0.18828524361E+03  0.20021813561E+03  0.00000000000E+00 0.  1.
         14    1    5    5    0    0 -0.19748741951E+01 -0.58549276313E+01  0.23391919119E+03  0.23400078700E+03  0.00000000000E+00 0. -1.
         13    1    3    3    0    0 -0.44390973369E+02 -0.33290634043E+02 -0.20020543118E+03  0.20775235139E+03  0.00000000000E+00 0. -1.
        -14    1    3    3    0    0 -0.38125037786E+02  0.27323474303E+02 -0.43383823723E+02  0.63892463679E+02  0.00000000000E+00 0.  1.
          5    1    4    4  501    0  0.21195104192E+02  0.42192078696E+02 -0.52543541301E+01  0.47691556734E+02  0.41800000000E+01 0. -1.
         -5    1    4    4    0  501  0.33992249844E+02 -0.91829505806E+02 -0.16099405191E+02  0.99321671520E+02  0.41800000000E+01 0. -1.
</event>
<event>
11    1  0.8328696E-009  0.9589819E+03  0.7561462E-02  0.8719037E-01
         22   -1    0    0    0    0  0.00000000000E+00  0.00000000000E+00  0.25883819035E+04  0.25883819035E+04  0.00000000000E+00 0. -1.
         22   -1    0    0    0    0 -0.00000000000E+00 -0.00000000000E+00 -0.26010354654E+04  0.26010354654E+04  0.00000000000E+00 0.  1.
        -24    2    1    2    0    0  0.89164228670E+03 -0.32390964413E+03 -0.23429702267E+04  0.25288192830E+04  0.73986877571E+02 0.  0.
         25    2    1    2    0    0 -0.10109256209E+04  0.12360193307E+03  0.17234611490E+04  0.20057938392E+04  0.12507015812E+03 0.  0.
         24    2    1    2    0    0  0.11928333422E+03  0.20030771106E+03  0.60685551573E+03  0.65480424666E+03  0.78379152410E+02 0.  0.
        -13    1    5    5    0    0  0.57787620329E+02  0.64175137342E+02  0.13863322908E+03  0.16333104274E+03  0.00000000000E+00 0.  1.
         14    1    5    5    0    0  0.61495713887E+02  0.13613257372E+03  0.46822228665E+03  0.49147320392E+03  0.00000000000E+00 0. -1.
         13    1    3    3    0    0  0.73353196936E+03 -0.25768656122E+03 -0.18430361197E+04  0.20003133886E+04  0.00000000000E+00 0. -1.
        -14    1    3    3    0    0  0.15811031733E+03 -0.66223082909E+02 -0.49993410699E+03  0.52850589447E+03  0.00000000000E+00 0.  1.
          5    1    4    4  501    0 -0.30907098210E+03 -0.18836599967E+02  0.49981448530E+03  0.58797251771E+03  0.41800000000E+01 0. -1.
         -5    1    4    4    0  501 -0.70185463882E+03  0.14243853304E+03  0.12236466637E+04  0.14178213215E+04  0.41800000000E+01 0. -1.
</event>
<event>
11    1  0.8328696E-009  0.1430326E+03  0.7561462E-02  0.1104218E+00
         22   -1    0    0    0    0  0.00000000000E+00  0.00000000000E+00  0.29149994454E+03  0.29149994454E+03  0.00000000000E+00 0.  1.
         22   -1    0    0    0    0 -0.00000000000E+00 -0.00000000000E+00 -0.77466043606E+03  0.77466043606E+03  0.00000000000E+00 0. -1.
         24    2    1    2    0    0  0.53054194448E+02 -0.98609153414E+01 -0.69714580794E+03  0.70382720262E+03  0.80302356219E+02 0.  0.
         25    2    1    2    0    0 -0.10765925829E+03  0.33682352057E+02  0.56948732141E+02  0.17781120703E+03  0.12509456631E+03 0.  0.
        -24    2    1    2    0    0  0.54605063838E+02 -0.23821436716E+02  0.15703658427E+03  0.18452197095E+03  0.76411354646E+02 0.  0.
        -13    1    3    3    0    0  0.56329747020E+02  0.23865259350E+02 -0.38239636471E+03  0.38725904863E+03  0.00000000000E+00 0.  1.
         14    1    3    3    0    0 -0.32755525722E+01 -0.33726174691E+02 -0.31474944324E+03  0.31656815399E+03  0.00000000000E+00 0. -1.
         13    1    5    5    0    0  0.53665729716E+02  0.14712170619E+02  0.11327965343E+03  0.12620910582E+03  0.00000000000E+00 0. -1.
        -14    1    5    5    0    0  0.93933412135E+00 -0.38533607335E+02  0.43756930838E+02  0.58312865126E+02  0.00000000000E+00 0.  1.
          5    1    4    4  501    0 -0.21847065807E+02 -0.45994893898E+02  0.21096345046E+02  0.55275245122E+02  0.41800000000E+01 0.  1.
         -5    1    4    4    0  501 -0.85812192478E+02  0.79677245955E+02  0.35852387095E+02  0.12253596191E+03  0.41800000000E+01 0.  1.
</event>
<event>
11    1  0.8725101E-009  0.1983652E+03  0.7561462E-02  0.1055686E+00
         22   -1    0    0    0    0  0.00000000000E+00  0.00000000000E+00  0.57523284773E+03  0.57523284773E+03  0.00000000000E+00 0. -1.
         22   -1    0    0    0    0 -0.00000000000E+00 -0.00000000000E+00 -0.12854641756E+04  0.12854641756E+04  0.00000000000E+00 0.  1.
         24    2    1    2    0    0 -0.40658239459E+02 -0.33103982409E+02 -0.10707206030E+04  0.10751426331E+04  0.82098147089E+02 0.  0.
         25    2    1    2    0    0  0.18806160582E+03  0.64699328333E+02 -0.12831438027E+03  0.26770439973E+03  0.12509154560E+03 0.  0.
        -24    2    1    2    0    0 -0.14740336636E+03 -0.31595345924E+02  0.48880365536E+03  0.51784999053E+03  0.80706758695E+02 0.  0.
        -13    1    3    3    0    0 -0.30216264009E+02 -0.48301053680E+02 -0.10118335331E+04  0.10134362896E+04  0.00000000000E+00 0.  1.
         14    1    3    3    0    0 -0.10441975450E+02  0.15197071271E+02 -0.58887069900E+02  0.61706343499E+02  0.00000000000E+00 0. -1.
         11    1    5    5    0    0 -0.13673100293E+03 -0.50743932384E+02  0.45269177238E+03  0.47560504057E+03  0.00000000000E+00 0. -1.
        -12    1    5    5    0    0 -0.10672363433E+02  0.19148586460E+02  0.36111882983E+02  0.42244949962E+02  0.00000000000E+00 0.  1.
          5    1    4    4  501    0  0.11768215444E+03 -0.84708243644E+01 -0.11572102344E+03  0.16531688361E+03  0.41800000000E+01 0.  1.
         -5    1    4    4    0  501  0.70379451377E+02  0.73170152697E+02 -0.12593356831E+02  0.10238751612E+03  0.41800000000E+01 0.  1.
</event>
<event>
11    1  0.8328696E-009  0.2025992E+03  0.7561462E-02  0.1052701E+00
         22   -1    0    0    0    0  0.00000000000E+00  0.00000000000E+00  0.95330722732E+03  0.95330722732E+03  0.00000000000E+00 0. -1.
         22   -1    0    0    0    0 -0.00000000000E+00 -0.00000000000E+00 -0.22403807915E+03  0.22403807915E+03  0.00000000000E+00 0.  1.
        -24    2    1    2    0    0  0.86981306140E+02 -0.54247128834E+02 -0.54640558815E+02  0.14407562837E+03  0.85227327881E+02 0.  0.
         25    2    1    2    0    0 -0.23317143085E+03  0.58678489229E+01  0.38046189303E+02  0.26739000332E+03  0.12508618445E+03 0.  0.
         24    2    1    2    0    0  0.14619012471E+03  0.48379279911E+02  0.74586351768E+03  0.76587967478E+03  0.80914658470E+02 0.  0.
        -13    1    5    5    0    0  0.90729372275E+01  0.28303415889E+02  0.71623894862E+02  0.77546011219E+02  0.00000000000E+00 0.  1.
         14    1    5    5    0    0  0.13711718748E+03  0.20075864023E+02  0.67423962282E+03  0.68833366356E+03  0.00000000000E+00 0. -1.
         13    1    3    3    0    0  0.75604950777E+02  0.21140187802E+01 -0.34740235355E+02  0.83231373952E+02  0.00000000000E+00 0. -1.
        -14    1    3    3    0    0  0.11376355363E+02 -0.56361147614E+02 -0.19900323460E+02  0.60844254417E+02  0.00000000000E+00 0.  1.
          5    1    4    4  501    0 -0.22027244485E+03  0.34427931495E+02  0.70239152399E+01  0.22309648185E+03  0.41800000000E+01 0.  1.
         -5    1    4    4    0  501 -0.12898985998E+02 -0.28560082572E+02  0.31022274063E+02  0.44293521472E+02  0.41800000000E+01 0.  1.
</event>
<event>
11    1  0.8328696E-009  0.1614983E+03  0.7561462E-02  0.1085676E+00
         22   -1    0    0    0    0  0.00000000000E+00  0.00000000000E+00  0.56452769291E+03  0.56452769291E+03  0.00000000000E+00 0. -1.
         22   -1    0    0    0    0 -0.00000000000E+00 -0.00000000000E+00 -0.43493565569E+03  0.43493565569E+03  0.00000000000E+00 0. -1.
        -24    2    1    2    0    0  0.83484775763E+00 -0.13266588891E+02 -0.37795911418E+03  0.38379102312E+03  0.65312771212E+02 0.  0.
         25    2    1    2    0    0  0.47145315239E+02 -0.79547941135E+02  0.94875921828E+02  0.18220721741E+03  0.12508986308E+03 0.  0.
         24    2    1    2    0    0 -0.47980162997E+02  0.92814530027E+02  0.41267522957E+03  0.43346510808E+03  0.81697746562E+02 0.  0.
        -11    1    5    5    0    0 -0.57086506392E+02  0.44764133696E+02  0.15430789726E+03  0.17050989424E+03  0.00000000000E+00 0.  1.
         12    1    5    5    0    0  0.91063433954E+01  0.48050396331E+02  0.25836733231E+03  0.26295521383E+03  0.00000000000E+00 0. -1.
         13    1    3    3    0    0 -0.21225850920E+02 -0.27518625671E+02 -0.28760388378E+03  0.28969605705E+03  0.00000000000E+00 0. -1.
        -14    1    3    3    0    0  0.22060698678E+02  0.14252036780E+02 -0.90355230400E+02  0.94094966067E+02  0.00000000000E+00 0.  1.
          5    1    4    4  501    0 -0.38095746945E+02 -0.26484314322E+02  0.40683208737E+01  0.46762468660E+02  0.41800000000E+01 0. -1.
         -5    1    4    4    0  501  0.85241062184E+02 -0.53063626814E+02  0.90807600954E+02  0.13544474875E+03  0.41800000000E+01 0. -1.
</event>
<event>
11    1  0.8328696E-009  0.1751578E+03  0.7561462E-02  0.1073628E+00
         22   -1    0    0    0    0  0.00000000000E+00  0.00000000000E+00  0.56931709333E+03  0.56931709333E+03  0.00000000000E+00 0.  1.
         22   -1    0    0    0    0 -0.00000000000E+00 -0.00000000000E+00 -0.21551404084E+04  0.21551404084E+04  0.00000000000E+00 0.  1.
        -24    2    1    2    0    0 -0.11703144660E+03  0.44619246941E+02 -0.20658100842E+04  0.20711973512E+04  0.81239933743E+02 0.  0.
         25    2    1    2    0    0  0.63070475559E+02 -0.11652328620E+02 -0.20588578870E+02  0.14207254981E+03  0.12508820161E+03 0.  0.
         24    2    1    2    0    0  0.53960971045E+02 -0.32966918321E+02  0.50057534801E+03  0.51118760074E+03  0.82088245315E+02 0.  0.
        -11    1    5    5    0    0  0.29898383306E+02 -0.54708902486E+02  0.41530272478E+03  0.41995634362E+03  0.00000000000E+00 0.  1.
         12    1    5    5    0    0  0.24062587739E+02  0.21741984165E+02  0.85272623228E+02  0.91231257124E+02  0.00000000000E+00 0. -1.
         13    1    3    3    0    0 -0.47574327336E+02 -0.89039861545E+01 -0.11958929329E+04  0.11968719666E+04  0.00000000000E+00 0. -1.
        -14    1    3    3    0    0 -0.69457119268E+02  0.53523233095E+02 -0.86991715136E+03  0.87432538459E+03  0.00000000000E+00 0.  1.
          5    1    4    4  501    0  0.65024457567E+02 -0.60752010287E+02 -0.12362978002E+01  0.89095385223E+02  0.41800000000E+01 0. -1.
         -5    1    4    4    0  501 -0.19539820077E+01  0.49099681667E+02 -0.19352281070E+02  0.52977164590E+02  0.41800000000E+01 0. -1.
</event>
<event>
11    1  0.8328696E-009  0.1416147E+03  0.7561462E-02  0.1105769E+00
         22   -1    0    0    0    0  0.00000000000E+00  0.00000000000E+00  0.91866333433E+03  0.91866333433E+03  0.00000000000E+00 0.  1.
         22   -1    0    0    0    0 -0.00000000000E+00 -0.00000000000E+00 -0.13068989373E+04  0.13068989373E+04  0.00000000000E+00 0. -1.
         24    2    1    2    0    0  0.10678558513E+02  0.65237628156E+02 -0.12362920466E+04  0.12409294581E+04  0.84367741836E+02 0.  0.
         25    2    1    2    0    0 -0.72676011081E+02 -0.67366104101E+02  0.32270256339E+02  0.16280921657E+03  0.12508188113E+03 0.  0.
        -24    2    1    2    0    0  0.61997452568E+02  0.21284759455E+01  0.81578618730E+03  0.82182359691E+03  0.77709114735E+02 0.  0.
        -11    1    3    3    0    0 -0.11167188980E+01  0.72980401505E+02 -0.59194165931E+03  0.59642460889E+03  0.00000000000E+00 0.  1.
         12    1    3    3    0    0  0.11795277411E+02 -0.77427733490E+01 -0.64435038728E+03  0.64450484925E+03  0.00000000000E+00 0. -1.
         11    1    5    5    0    0  0.18538937295E+02 -0.16980413991E+02  0.67446496774E+02  0.71979556697E+02  0.00000000000E+00 0. -1.
        -12    1    5    5    0    0  0.43458515273E+02  0.19108889937E+02  0.74833969053E+03  0.74984404021E+03  0.00000000000E+00 0.  1.
          5    1    4    4  501    0  0.24614727254E+02 -0.17181125964E+02  0.43137794139E+02  0.52720181813E+02  0.41800000000E+01 0. -1.
         -5    1    4    4    0  501 -0.97290738334E+02 -0.50184978137E+02 -0.10867537800E+02  0.11008903476E+03  0.41800000000E+01 0. -1.
</event>
<event>
11    1  0.8328696E-009  0.2915462E+03  0.7561462E-02  0.1003834E+00
         22   -1    0    0    0    0  0.00000000000E+00  0.00000000000E+00  0.19977092411E+04  0.19977092411E+04  0.00000000000E+00 0. -1.
         22   -1    0    0    0    0 -0.00000000000E+00 -0.00000000000E+00 -0.26680243823E+03  0.26680243823E+03  0.00000000000E+00 0. -1.
        -24    2    1    2    0    0  0.17138183604E+03  0.19012774111E+03 -0.13985307760E+03  0.30296170904E+03  0.81893969052E+02 0.  0.
         25    2    1    2    0    0 -0.15763960824E+03 -0.32317592412E+03  0.88689178722E+03  0.96515174970E+03  0.12509170118E+03 0.  0.
         24    2    1    2    0    0 -0.13742227807E+02  0.13304818301E+03  0.98386809325E+03  0.99639822060E+03  0.83200488431E+02 0.  0.
        -13    1    5    5    0    0 -0.34207177024E+02  0.33231692052E+02  0.18458026465E+03  0.19064194296E+03  0.00000000000E+00 0.  1.
         14    1    5    5    0    0  0.20464949217E+02  0.99816490958E+02  0.79928782859E+03  0.80575627764E+03  0.00000000000E+00 0. -1.
         11    1    3    3    0    0  0.16804870094E+03  0.19613218198E+03 -0.12572774241E+03  0.28725539839E+03  0.00000000000E+00 0. -1.
        -12    1    3    3    0    0  0.33331351027E+01 -0.60044408751E+01 -0.14125335189E+02  0.15706310644E+02  0.00000000000E+00 0.  1.
          5    1    4    4  501    0 -0.11840078938E+03 -0.29925479370E+03  0.83914079422E+03  0.89874741914E+03  0.41800000000E+01 0.  1.
         -5    1    4    4    0  501 -0.39238818857E+02 -0.23921130415E+02  0.47750992997E+02  0.66404330565E+02  0.41800000000E+01 0.  1.
</event>
<event>
11    1  0.8328696E-009  0.1268182E+03  0.7561462E-02  0.1123241E+00
         22   -1    0    0    0    0  0.00000000000E+00  0.00000000000E+00  0.52397726465E+03  0.52397726465E+03  0.00000000000E+00 0.  1.
         22   -1    0    0    0    0 -0.00000000000E+00 -0.00000000000E+00 -0.16020969140E+04  0.16020969140E+04  0.00000000000E+00 0. -1.
        -24    2    1    2    0    0  0.14584737274E+01  0.16361207021E+02 -0.15514013223E+04  0.15535751633E+04  0.80497882130E+02 0.  0.
         25    2    1    2    0    0 -0.22191369308E+02 -0.15896462501E+02  0.44177411473E+02  0.13544085700E+03  0.12508967851E+03 0.  0.
         24    2    1    2    0    0  0.20732895581E+02 -0.46474452049E+00  0.42910426147E+03  0.43705815833E+03  0.80369755536E+02 0.  0.
        -13    1    5    5    0    0  0.41233099464E+02 -0.10487603995E+02  0.38552920667E+03  0.38786973010E+03  0.00000000000E+00 0.  1.
         14    1    5    5    0    0 -0.20500203883E+02  0.10022859475E+02  0.43575054792E+02  0.49188428227E+02  0.00000000000E+00 0. -1.
         11    1    3    3    0    0  0.17197047728E+02  0.45326507326E+02 -0.82066421198E+03  0.82209487259E+03  0.00000000000E+00 0. -1.
        -12    1    3    3    0    0 -0.15738574001E+02 -0.28965300305E+02 -0.73073711028E+03  0.73148029070E+03  0.00000000000E+00 0.  1.
          5    1    4    4  501    0 -0.62299363012E+02  0.17030158722E+02 -0.35447950748E+01  0.64817242381E+02  0.41800000000E+01 0. -1.
         -5    1    4    4    0  501  0.40107993704E+02 -0.32926621222E+02  0.47722206548E+02  0.70623614619E+02  0.41800000000E+01 0. -1.
</event>
<event>
11    1  0.8328696E-009  0.3536017E+03  0.7561462E-02  0.9797541E-01
         22   -1    0    0    0    0  0.00000000000E+00  0.00000000000E+00  0.27311972365E+04  0.27311972365E+04  0.00000000000E+00 0. -1.
         22   -1    0    0    0    0 -0.00000000000E+00 -0.00000000000E+00 -0.13269080774E+04  0.13269080774E+04  0.00000000000E+00 0. -1.
         24    2    1    2    0    0  0.19103396456E+03 -0.24158727032E+03 -0.84330222023E+03  0.90122377945E+03  0.78659272857E+02 0.  0.
         25    2    1    2    0    0 -0.34337612818E+03  0.25528381640E+03 -0.34178984762E+03  0.56173303617E+03  0.12508681652E+03 0.  0.
        -24    2    1    2    0    0  0.15234216362E+03 -0.13696546081E+02  0.25893812270E+04  0.25951484983E+04  0.80652707425E+02 0.  0.
        -11    1    3    3    0    0  0.45417530963E+02 -0.10269842855E+03 -0.37663314829E+03  0.39301685427E+03  0.00000000000E+00 0.  1.
         12    1    3    3    0    0  0.14561643359E+03 -0.13888884176E+03 -0.46666907194E+03  0.50820692518E+03  0.00000000000E+00 0. -1.
         13    1    5    5    0    0  0.84355966509E+02  0.31502941438E+02  0.15115702662E+04  0.15142499906E+04  0.00000000000E+00 0. -1.
        -14    1    5    5    0    0  0.67986197113E+02 -0.45199487518E+02  0.10778109607E+04  0.10808985076E+04  0.00000000000E+00 0.  1.
          5    1    4    4  501    0 -0.20639711294E+03  0.10567461021E+03 -0.11992230921E+03  0.26108566433E+03  0.41800000000E+01 0. -1.
         -5    1    4    4    0  501 -0.13697901524E+03  0.14960920619E+03 -0.22186753841E+03  0.30064737184E+03  0.41800000000E+01 0. -1.
</event>
<event>
11    1  0.8328696E-009  0.1358185E+03  0.7561462E-02  0.1112320E+00
         22   -1    0    0    0    0  0.00000000000E+00  0.00000000000E+00  0.71847795356E+02  0.71847795356E+02  0.00000000000E+00 0. -1.
         22   -1    0    0    0    0 -0.00000000000E+00 -0.00000000000E+00 -0.11317022442E+04  0.11317022442E+04  0.00000000000E+00 0.  1.
        -24    2    1    2    0    0  0.47992362770E+02  0.30793246501E+02 -0.81066443130E+03  0.81667383857E+03  0.80795095858E+02 0.  0.
         25    2    1    2    0    0 -0.36462956586E+02 -0.21638032107E+01 -0.26821785840E+03  0.29819933214E+03  0.12509113828E+03 0.  0.
         24    2    1    2    0    0 -0.11529406184E+02 -0.28629443290E+02  0.19027840826E+02  0.88676868875E+02  0.80925620893E+02 0.  0.
        -11    1    5    5    0    0  0.31655564631E+02 -0.46992522063E+01 -0.71539505501E+01  0.32792327638E+02  0.00000000000E+00 0.  1.
         12    1    5    5    0    0 -0.43184970816E+02 -0.23930191084E+02  0.26181791376E+02  0.55884541237E+02  0.00000000000E+00 0. -1.
         11    1    3    3    0    0 -0.20079320113E+02 -0.65304115753E+01 -0.19205304654E+03  0.19321024315E+03  0.00000000000E+00 0. -1.
        -12    1    3    3    0    0  0.68071682883E+02  0.37323658076E+02 -0.61861138476E+03  0.62346359543E+03  0.00000000000E+00 0.  1.
          5    1    4    4  501    0  0.35907852358E+02 -0.31368417196E+02 -0.67022604750E+02  0.82358080392E+02  0.41800000000E+01 0.  1.
         -5    1    4    4    0  501 -0.72370808943E+02  0.29204613986E+02 -0.20119525365E+03  0.21584125175E+03  0.41800000000E+01 0.  1.
</event>
<event>
11    1  0.8328696E-009  0.1499872E+03  0.7561462E-02  0.1096892E+00
         22   -1    0    0    0    0  0.00000000000E+00  0.00000000000E+00  0.15030051951E+04  0.15030051951E+04  0.00000000000E+00 0.  1.
         22   -1    0    0    0    0 -0.00000000000E+00 -0.00000000000E+00 -0.63715110258E+03  0.63715110258E+03  0.00000000000E+00 0.  1.
         24    2    1    2    0    0  0.24240710565E+02 -0.21020215706E+02 -0.60780147093E+03  0.61396570014E+03  0.80633686292E+02 0.  0.
         25    2    1    2    0    0 -0.16579418130E+02  0.10149436030E+03  0.25400209086E+03  0.30123026596E+03  0.12508648483E+03 0.  0.
        -24    2    1    2    0    0 -0.76612924350E+01 -0.80474144592E+02  0.12196534726E+04  0.12249603316E+04  0.80239874026E+02 0.  0.
        -13    1    3    3    0    0  0.53973163639E+02 -0.12285546217E+02 -0.35915401548E+03  0.36339461179E+03  0.00000000000E+00 0.  1.
         14    1    3    3    0    0 -0.29732453074E+02 -0.87346694894E+01 -0.24864745545E+03  0.25057108835E+03  0.00000000000E+00 0. -1.
         11    1    5    5    0    0  0.93471383833E+01 -0.13921400947E+02  0.76162454467E+03  0.76180911089E+03  0.00000000000E+00 0. -1.
        -12    1    5    5    0    0 -0.17008430818E+02 -0.66552743645E+02  0.45802892791E+03  0.46315122067E+03  0.00000000000E+00 0.  1.
          5    1    4    4  501    0  0.30387078775E+02 -0.10701170288E+02  0.21967462964E+02  0.39216468876E+02  0.41800000000E+01 0.  1.
         -5    1    4    4    0  501 -0.46966496905E+02  0.11219553059E+03  0.23203462790E+03  0.26201379708E+03  0.41800000000E+01 0.  1.
</event>
<event>
11    1  0.8328696E-009  0.2470715E+03  0.7561462E-02  0.1025471E+00
         22   -1    0    0    0    0  0.00000000000E+00  0.00000000000E+00  0.24349066781E+04  0.24349066781E+04  0.00000000000E+00 0.  1.
         22   -1    0    0    0    0 -0.00000000000E+00 -0.00000000000E+00 -0.26534336239E+03  0.26534336239E+03  0.00000000000E+00 0.  1.
        -24    2    1    2    0    0  0.10236655548E+03  0.19896340544E+03 -0.18716076728E+03  0.30283117553E+03  0.81315556209E+02 0.  0.
         25    2    1    2    0    0  0.45730600929E+01 -0.13769904552E+03  0.47822484444E+03  0.51315585353E+03  0.12509191885E+03 0.  0.
         24    2    1    2    0    0 -0.10693961558E+03 -0.61264359920E+02  0.18784992385E+04  0.18842630114E+04  0.80612057574E+02 0.  0.
        -13    1    5    5    0    0 -0.30393615458E+02 -0.45738552351E+02  0.40644489075E+03  0.41013806974E+03  0.00000000000E+00 0.  1.
         14    1    5    5    0    0 -0.76546000117E+02 -0.15525807568E+02  0.14720543478E+04  0.14741249417E+04  0.00000000000E+00 0. -1.
         13    1    3    3    0    0  0.11353154107E+02  0.68368847309E+02 -0.20289996497E+02  0.72214107682E+02  0.00000000000E+00 0. -1.
        -14    1    3    3    0    0  0.91013401376E+02  0.13059455813E+03 -0.16687077078E+03  0.23061706785E+03  0.00000000000E+00 0.  1.
          5    1    4    4  501    0 -0.53356657285E+02 -0.10681146651E+03  0.33107919140E+03  0.35197517758E+03  0.41800000000E+01 0.  1.
         -5    1    4    4    0  501  0.57929717378E+02 -0.30887579009E+02  0.14714565304E+03  0.16118067595E+03  0.41800000000E+01 0.  1.
</event>
<event>
11    1  0.8328696E-009  0.2019129E+03  0.7561462E-02  0.1053179E+00
         22   -1    0    0    0    0  0.00000000000E+00  0.00000000000E+00  0.78868949793E+03  0.78868949793E+03  0.00000000000E+00 0. -1.
         22   -1    0    0    0    0 -0.00000000000E+00 -0.00000000000E+00 -0.12682070181E+04  0.12682070181E+04  0.00000000000E+00 0. -1.
         24    2    1    2    0    0  0.91349520672E+02 -0.12754181332E+03 -0.11654425425E+04  0.11792159677E+04  0.87648899576E+02 0.  0.
         25    2    1    2    0    0 -0.13251870023E+03  0.14096262465E+03  0.48923180325E+02  0.23552666547E+03  0.12509062761E+03 0.  0.
        -24    2    1    2    0    0  0.41169179557E+02 -0.13420811328E+02  0.63700184197E+03  0.64215388289E+03  0.68667627863E+02 0.  0.
        -11    1    3    3    0    0  0.24944701724E+02 -0.40145152268E+02 -0.13681578780E+03  0.14474954641E+03  0.00000000000E+00 0.  1.
         12    1    3    3    0    0  0.66404818948E+02 -0.87396661050E+02 -0.10286267547E+04  0.10344664213E+04  0.00000000000E+00 0. -1.
         13    1    5    5    0    0  0.29101038751E+02 -0.35627832869E+02  0.53849433568E+03  0.54045569892E+03  0.00000000000E+00 0. -1.
        -14    1    5    5    0    0  0.12068140805E+02  0.22207021542E+02  0.98507506286E+02  0.10169818397E+03  0.00000000000E+00 0.  1.
          5    1    4    4  501    0 -0.15614148351E+03  0.13136564773E+03  0.48046515788E+02  0.20967364249E+03  0.41800000000E+01 0.  1.
         -5    1    4    4    0  501  0.23622783286E+02  0.95969769155E+01  0.87666453723E+00  0.25853022973E+02  0.41800000000E+01 0.  1.
</event>
<event>
11    1  0.9624233E-009  0.1555758E+03  0.7561462E-02  0.1091314E+00
         22   -1    0    0    0    0  0.00000000000E+00  0.00000000000E+00  0.93578655428E+03  0.93578655428E+03  0.00000000000E+00 0.  1.
         22   -1    0    0    0    0 -0.00000000000E+00 -0.00000000000E+00 -0.63037647066E+03  0.63037647066E+03  0.00000000000E+00 0.  1.
         24    2    1    2    0    0  0.67021027578E+01  0.47765833212E+02 -0.46472767723E+03  0.47406398551E+03  0.80239362955E+02 0.  0.
         25    2    1    2    0    0  0.49443043001E+01  0.45223218226E+02 -0.12870538640E+03  0.18515369771E+03  0.12508888710E+03 0.  0.
        -24    2    1    2    0    0 -0.11646407058E+02 -0.92989051437E+02  0.89884314724E+03  0.90694534172E+03  0.76473832420E+02 0.  0.
        -11    1    3    3    0    0 -0.10444017559E+02  0.21651055642E+02 -0.41254363206E+03  0.41324338357E+03  0.00000000000E+00 0.  1.
         12    1    3    3    0    0  0.17146120317E+02  0.26114777570E+02 -0.52184045174E+02  0.60820601939E+02  0.00000000000E+00 0. -1.
         13    1    5    5    0    0  0.10367439561E+01 -0.32920672952E+02  0.91080061474E+02  0.96852584601E+02  0.00000000000E+00 0. -1.
        -14    1    5    5    0    0 -0.12683151014E+02 -0.60068378485E+02  0.80776308577E+03  0.81009275712E+03  0.00000000000E+00 0.  1.
          5    1    4    4  501    0  0.42451640874E+02  0.47336365713E+02 -0.15184130928E+02  0.65504988847E+02  0.41800000000E+01 0.  1.
         -5    1    4    4    0  501 -0.37507336573E+02 -0.21131474879E+01 -0.11352125547E+03  0.11964870886E+03  0.41800000000E+01 0.  1.
</event>
<event>
11    1  0.8328696E-009  0.3842855E+03  0.7561462E-02  0.9697297E-01
         22   -1    0    0    0    0  0.00000000000E+00  0.00000000000E+00  0.63756757048E+03  0.63756757048E+03  0.00000000000E+00 0.  1.
         22   -1    0    0    0    0 -0.00000000000E+00 -0.00000000000E+00 -0.17805602397E+04  0.17805602397E+04  0.00000000000E+00 0. -1.
        -24    2    1    2    0    0  0.21439840296E+03 -0.27467893811E+03 -0.76005162475E+03  0.84051492775E+03  0.85858472222E+02 0.  0.
         25    2    1    2    0    0 -0.26007109704E+03  0.27607071050E+03 -0.93562453422E+03  0.10172967160E+04  0.12508927437E+03 0.  0.
         24    2    1    2    0    0  0.45672694073E+02 -0.13917723881E+01  0.55268348979E+03  0.56031616642E+03  0.80045202590E+02 0.  0.
        -11    1    5    5    0    0  0.28753506462E+02  0.83965665371E+01  0.52791365732E+03  0.52876279752E+03  0.00000000000E+00 0.  1.
         12    1    5    5    0    0  0.16919187611E+02 -0.97883389252E+01  0.24769832472E+02  0.31553368901E+02  0.00000000000E+00 0. -1.
         13    1    3    3    0    0  0.14147136546E+03 -0.11768756025E+03 -0.43288142960E+03  0.47037308721E+03  0.00000000000E+00 0. -1.
        -14    1    3    3    0    0  0.72927037505E+02 -0.15699137786E+03 -0.32717019516E+03  0.37014184054E+03  0.00000000000E+00 0.  1.
          5    1    4    4  501    0 -0.18771921647E+03  0.11415102520E+03 -0.46371948532E+03  0.51314929042E+03  0.41800000000E+01 0. -1.
         -5    1    4    4    0  501 -0.72351880566E+02  0.16191968530E+03 -0.47190504890E+03  0.50414742555E+03  0.41800000000E+01 0. -1.
</event>
<event>
11    1  0.8328696E-009  0.1558711E+03  0.7561462E-02  0.1091026E+00
         22   -1    0    0    0    0  0.00000000000E+00  0.00000000000E+00  0.37893229519E+03  0.37893229519E+03  0.00000000000E+00 0.  1.
         22   -1    0    0    0    0 -0.00000000000E+00 -0.00000000000E+00 -0.54073608605E+03  0.54073608605E+03  0.00000000000E+00 0. -1.
        -24    2    1    2    0    0 -0.53020284284E+02  0.77626721843E+02 -0.45117038086E+03  0.46613884569E+03  0.69954645334E+02 0.  0.
         25    2    1    2    0    0  0.54205404387E+02 -0.63402480103E+02 -0.19073979241E+01  0.15036462473E+03  0.12509109423E+03 0.  0.
         24    2    1    2    0    0 -0.11851201038E+01 -0.14224241740E+02  0.29127398792E+03  0.30316491082E+03  0.82853446228E+02 0.  0.
        -11    1    5    5    0    0 -0.32523481333E+02 -0.18169961702E+01  0.23734277405E+03  0.23956767459E+03  0.00000000000E+00 0.  1.
         12    1    5    5    0    0  0.31338361229E+02 -0.12407245570E+02  0.53931213866E+02  0.63597236231E+02  0.00000000000E+00 0. -1.
         11    1    3    3    0    0 -0.25612417736E+02  0.79182278611E+02 -0.39433416789E+03  0.40302017959E+03  0.00000000000E+00 0. -1.
        -12    1    3    3    0    0 -0.27407866548E+02 -0.15555567689E+01 -0.56836212968E+02  0.63118666099E+02  0.00000000000E+00 0.  1.
          5    1    4    4  501    0  0.62608564277E+02 -0.89117566625E+02  0.25170419592E+02  0.11186060712E+03  0.41800000000E+01 0.  1.
         -5    1    4    4    0  501 -0.84031598899E+01  0.25715086522E+02 -0.27077817516E+02  0.38504017614E+02  0.41800000000E+01 0.  1.
</event>
<event>
11    1  0.8328696E-009  0.1374381E+03  0.7561462E-02  0.1110453E+00
         22   -1    0    0    0    0  0.00000000000E+00  0.00000000000E+00  0.19286556064E+03  0.19286556064E+03  0.00000000000E+00 0. -1.
         22   -1    0    0    0    0 -0.00000000000E+00 -0.00000000000E+00 -0.61412743770E+03  0.61412743770E+03  0.00000000000E+00 0.  1.
         24    2    1    2    0    0  0.58551371657E+01 -0.14353026437E+01 -0.36638774358E+03  0.37513345462E+03  0.80304342388E+02 0.  0.
         25    2    1    2    0    0  0.37353628286E+02  0.38839392000E+02 -0.20813941489E+03  0.24874343081E+03  0.12508991335E+03 0.  0.
        -24    2    1    2    0    0 -0.43208765452E+02 -0.37404089357E+02  0.15326528141E+03  0.18311611291E+03  0.82311609206E+02 0.  0.
        -11    1    3    3    0    0  0.38665174156E+02 -0.17631541964E+02 -0.16111018901E+03  0.16662040681E+03  0.00000000000E+00 0.  1.
         12    1    3    3    0    0 -0.32810036990E+02  0.16196239321E+02 -0.20527755457E+03  0.20851304781E+03  0.00000000000E+00 0. -1.
         13    1    5    5    0    0  0.14924535793E+02  0.15458363115E+02  0.37078536116E+02  0.42854645014E+02  0.00000000000E+00 0. -1.
        -14    1    5    5    0    0 -0.58133301245E+02 -0.52862452472E+02  0.11618674529E+03  0.14026146790E+03  0.00000000000E+00 0.  1.
          5    1    4    4  501    0  0.57348273233E+02  0.65133733546E+02 -0.86390329197E+02  0.12252342252E+03  0.41800000000E+01 0.  1.
         -5    1    4    4    0  501 -0.19994644947E+02 -0.26294341546E+02 -0.12174908569E+03  0.12622000828E+03  0.41800000000E+01 0.  1.
</event>
<event>
11    1  0.8328696E-009  0.1599279E+03  0.7561462E-02  0.1087145E+00
         22   -1    0    0    0    0  0.00000000000E+00  0.00000000000E+00  0.43425737696E+03  0.43425737696E+03  0.00000000000E+00 0. -1.
         22   -1    0    0    0    0 -0.00000000000E+00 -0.00000000000E+00 -0.46184814582E+03  0.46184814582E+03  0.00000000000E+00 0.  1.
        -24    2    1    2    0    0 -0.86422105039E+02 -0.57703735962E+02 -0.35502950985E+03  0.37804419652E+03  0.77929200434E+02 0.  0.
         25    2    1    2    0    0  0.86603510780E+02  0.33390770611E+01 -0.23545295560E+02  0.15399313708E+03  0.12509271685E+03 0.  0.
         24    2    1    2    0    0 -0.18140574113E+00  0.54364658901E+02  0.35098403655E+03  0.36406818918E+03  0.80001896294E+02 0.  0.
        -11    1    5    5    0    0  0.21335276525E+02 -0.10561905452E+02  0.49563519355E+02  0.54984455276E+02  0.00000000000E+00 0.  1.
         12    1    5    5    0    0 -0.21516682266E+02  0.64926564354E+02  0.30142051720E+03  0.30908373390E+03  0.00000000000E+00 0. -1.
         13    1    3    3    0    0 -0.38791601988E+01 -0.23194086376E+02 -0.18776898809E+02  0.30092946940E+02  0.00000000000E+00 0. -1.
        -14    1    3    3    0    0 -0.82542944840E+02 -0.34509649586E+02 -0.33625261104E+03  0.34795124958E+03  0.00000000000E+00 0.  1.
          5    1    4    4  501    0  0.94272297476E+02 -0.31323610041E+02  0.15977014298E+02  0.10070338626E+03  0.41800000000E+01 0. -1.
         -5    1    4    4    0  501 -0.76687866959E+01  0.34662687102E+02 -0.39522309858E+02  0.53289750826E+02  0.41800000000E+01 0. -1.
</event>
<event>
11    1  0.8328696E-009  0.1594358E+03  0.7561462E-02  0.1087609E+00
         22   -1    0    0    0    0  0.00000000000E+00  0.00000000000E+00  0.37328532859E+03  0.37328532859E+03  0.00000000000E+00 0.  1.
         22   -1    0    0    0    0 -0.00000000000E+00 -0.00000000000E+00 -0.22342033980E+03  0.22342033980E+03  0.00000000000E+00 0. -1.
         24    2    1    2    0    0 -0.63148025321E+02 -0.27821576588E+02 -0.36426788132E+02  0.11244772230E+03  0.80968303254E+02 0.  0.
         25    2    1    2    0    0  0.36867053942E+02  0.12190160232E+03 -0.75349134336E+02  0.19376414242E+03  0.12509144867E+03 0.  0.
        -24    2    1    2    0    0  0.26280971379E+02 -0.94080025730E+02  0.26164091126E+03  0.29049380366E+03  0.79930862764E+02 0.  0.
        -13    1    3    3    0    0 -0.34189125422E+01  0.15718904704E+02 -0.34999737691E+02  0.38519534869E+02  0.00000000000E+00 0.  1.
         14    1    3    3    0    0 -0.59729112779E+02 -0.43540481292E+02 -0.14270504413E+01  0.73928187435E+02  0.00000000000E+00 0. -1.
         13    1    5    5    0    0  0.17405759930E+02 -0.19229100517E+02  0.99853651880E+01  0.27792558418E+02  0.00000000000E+00 0. -1.
        -14    1    5    5    0    0  0.88752114485E+01 -0.74850925213E+02  0.25165554607E+03  0.26270124524E+03  0.00000000000E+00 0.  1.
          5    1    4    4  501    0  0.16346383241E+02 -0.13343061527E+02  0.18044922458E+02  0.28077271279E+02  0.41800000000E+01 0.  1.
         -5    1    4    4    0  501  0.20520670701E+02  0.13524466385E+03 -0.93394056795E+02  0.16568687114E+03  0.41800000000E+01 0.  1.
</event>
<event>
11    1  0.8328696E-009  0.1445019E+03  0.7561462E-02  0.1102633E+00
         22   -1    0    0    0    0  0.00000000000E+00  0.00000000000E+00  0.10579838707E+04  0.10579838707E+04  0.00000000000E+00 0. -1.
         22   -1    0    0    0    0 -0.00000000000E+00 -0.00000000000E+00 -0.15801819421E+04  0.15801819421E+04  0.00000000000E+00 0. -1.
        -24    2    1    2    0    0 -0.42576344976E+02 -0.58353939984E+02 -0.15176598689E+04  0.15214983297E+04  0.80297958666E+02 0.  0.
         25    2    1    2    0    0  0.59713955698E+02  0.52250073263E+02  0.34279277779E+02  0.15204784928E+03  0.12509057888E+03 0.  0.
         24    2    1    2    0    0 -0.17137610722E+02  0.61038667209E+01  0.96118251972E+03  0.96461963378E+03  0.79298466445E+02 0.  0.
        -13    1    5    5    0    0  0.21382073493E+02  0.28271567126E+01  0.88828934255E+02  0.91409876068E+02  0.00000000000E+00 0.  1.
         14    1    5    5    0    0 -0.38519684214E+02  0.32767100083E+01  0.87235358546E+03  0.87320975772E+03  0.00000000000E+00 0. -1.
         11    1    3    3    0    0 -0.63226098885E+02 -0.45667647876E+02 -0.90338929817E+03  0.90674985398E+03  0.00000000000E+00 0. -1.
        -12    1    3    3    0    0  0.20649753909E+02 -0.12686292108E+02 -0.61427057074E+03  0.61474847574E+03  0.00000000000E+00 0.  1.
          5    1    4    4  501    0 -0.29916677097E+02 -0.15431722065E+02  0.18250139417E+02  0.38518639685E+02  0.41800000000E+01 0.  1.
         -5    1    4    4    0  501  0.89630632795E+02  0.67681795328E+02  0.16029138362E+02  0.11352920959E+03  0.41800000000E+01 0.  1.
</event>
<event>
11    1  0.8328696E-009  0.2088666E+03  0.7561462E-02  0.1048425E+00
         22   -1    0    0    0    0  0.00000000000E+00  0.00000000000E+00  0.12945850767E+04  0.12945850767E+04  0.00000000000E+00 0.  1.
         22   -1    0    0    0    0 -0.00000000000E+00 -0.00000000000E+00 -0.43082545143E+03  0.43082545143E+03  0.00000000000E+00 0. -1.
        -24    2    1    2    0    0  0.15611322078E+02  0.32019176723E+02 -0.17822118398E+03  0.19895364046E+03  0.80937133485E+02 0.  0.
         25    2    1    2    0    0  0.15033078147E+03 -0.67565885427E+01 -0.19447424389E+03  0.27588498970E+03  0.12508917083E+03 0.  0.
         24    2    1    2    0    0 -0.16594210355E+03 -0.25262588180E+02  0.12364550531E+04  0.12505718980E+04  0.83270604023E+02 0.  0.
        -11    1    5    5    0    0 -0.16608001881E+03 -0.62990909902E+01  0.11575191885E+04  0.11693899789E+04  0.00000000000E+00 0.  1.
         12    1    5    5    0    0  0.13791526193E+00 -0.18963497190E+02  0.78935864685E+02  0.81181919045E+02  0.00000000000E+00 0. -1.
         11    1    3    3    0    0  0.39581468160E+02 -0.39911107673E+01 -0.11998902578E+03  0.12641197686E+03  0.00000000000E+00 0. -1.
        -12    1    3    3    0    0 -0.23970146083E+02  0.36010287490E+02 -0.58232158205E+02  0.72541663598E+02  0.00000000000E+00 0.  1.
          5    1    4    4  501    0  0.13602704851E+03 -0.53362009665E+02 -0.13624808710E+03  0.19982961652E+03  0.41800000000E+01 0.  1.
         -5    1    4    4    0  501  0.14303732967E+02  0.46605421123E+02 -0.58226156789E+02  0.76055373178E+02  0.41800000000E+01 0.  1.
</event>
<event>
11    1  0.8328696E-009  0.1740708E+03  0.7561462E-02  0.1074542E+00
         22   -1    0    0    0    0  0.00000000000E+00  0.00000000000E+00  0.21466909340E+03  0.21466909340E+03  0.00000000000E+00 0. -1.
         22   -1    0    0    0    0 -0.00000000000E+00 -0.00000000000E+00 -0.83553578721E+03  0.83553578721E+03  0.00000000000E+00 0.  1.
        -24    2    1    2    0    0 -0.14795944929E+02 -0.38388482888E+02 -0.66712701717E+03  0.67333436180E+03  0.81413206159E+02 0.  0.
         25    2    1    2    0    0 -0.36977492638E+02  0.13884429908E+03 -0.42106933069E+02  0.19510434931E+03  0.12509052304E+03 0.  0.
         24    2    1    2    0    0  0.51773437567E+02 -0.10045581620E+03  0.88367256435E+02  0.18176616951E+03  0.11161679319E+03 0.  0.
        -13    1    5    5    0    0  0.24621555670E+02  0.72586044046E+01 -0.15250232388E+02  0.29857627658E+02  0.00000000000E+00 0.  1.
         14    1    5    5    0    0  0.27151881897E+02 -0.10771442060E+03  0.10361748882E+03  0.15190854185E+03  0.00000000000E+00 0. -1.
         11    1    3    3    0    0  0.24963864502E+02 -0.43951815203E+02 -0.40717896543E+03  0.41030435834E+03  0.00000000000E+00 0. -1.
        -12    1    3    3    0    0 -0.39759809431E+02  0.55633323158E+01 -0.25994805174E+03  0.26303000346E+03  0.00000000000E+00 0.  1.
          5    1    4    4  501    0  0.20002959170E+02  0.10231790551E+03 -0.65705867356E+02  0.12330371271E+03  0.41800000000E+01 0. -1.
         -5    1    4    4    0  501 -0.56980451808E+02  0.36526393574E+02  0.23598934287E+02  0.71800636594E+02  0.41800000000E+01 0. -1.
</event>
<event>
11    1  0.8328696E-009  0.1482451E+03  0.7561462E-02  0.1098686E+00
         22   -1    0    0    0    0  0.00000000000E+00  0.00000000000E+00  0.26811563826E+02  0.26811563826E+02  0.00000000000E+00 0. -1.
         22   -1    0    0    0    0 -0.00000000000E+00 -0.00000000000E+00 -0.20190128451E+04  0.20190128451E+04  0.00000000000E+00 0.  1.
        -24    2    1    2    0    0  0.63025149597E+02  0.37980556268E+02 -0.82933293475E+03  0.83612583690E+03  0.76802384909E+02 0.  0.
         25    2    1    2    0    0 -0.47756144918E+02 -0.11124967794E+03 -0.98728122757E+03  0.10025109057E+04  0.12508698370E+03 0.  0.
         24    2    1    2    0    0 -0.15269004679E+02  0.73269121669E+02 -0.17558711894E+03  0.20718766633E+03  0.80587753706E+02 0.  0.
        -11    1    5    5    0    0 -0.31911367647E+02  0.72613713280E+02 -0.17302236503E+03  0.19033608576E+03  0.00000000000E+00 0.  1.
         12    1    5    5    0    0  0.16642362968E+02  0.65540838900E+00 -0.25647539181E+01  0.16851580578E+02  0.00000000000E+00 0. -1.
         13    1    3    3    0    0  0.29072219684E+02 -0.18646778316E+02 -0.42865990053E+03  0.43004907467E+03  0.00000000000E+00 0. -1.
        -14    1    3    3    0    0  0.33952929913E+02  0.56627334585E+02 -0.40067303422E+03  0.40607676223E+03  0.00000000000E+00 0.  1.
          5    1    4    4  501    0 -0.67262190650E+02 -0.60518105231E+02 -0.84984787341E+03  0.85466105778E+03  0.41800000000E+01 0. -1.
         -5    1    4    4    0  501  0.19506045731E+02 -0.50731572707E+02 -0.13743335416E+03  0.14784984790E+03  0.41800000000E+01 0. -1.
</event>
<event>
11    1  0.8328696E-009  0.1314578E+03  0.7561462E-02  0.1117491E+00
         22   -1    0    0    0    0  0.00000000000E+00  0.00000000000E+00  0.80595520396E+03  0.80595520396E+03  0.00000000000E+00 0. -1.
         22   -1    0    0    0    0 -0.00000000000E+00 -0.00000000000E+00 -0.13711483413E+03  0.13711483413E+03  0.00000000000E+00 0.  1.
         24    2    1    2    0    0 -0.99854827882E+01 -0.39633672718E+02 -0.95075125511E+02  0.13098587948E+03  0.80296221905E+02 0.  0.
         25    2    1    2    0    0  0.31466041176E+02  0.28436305310E+02  0.19099385227E+03  0.23220739821E+03  0.12507153542E+03 0.  0.
        -24    2    1    2    0    0 -0.21480558388E+02  0.11197367408E+02  0.57292164308E+03  0.57987676040E+03  0.86203553958E+02 0.  0.
        -11    1    3    3    0    0 -0.73116358838E+01 -0.33127607432E+02 -0.10966306732E+03  0.11479062125E+03  0.00000000000E+00 0.  1.
         12    1    3    3    0    0 -0.26738469044E+01 -0.65060652857E+01  0.14587941809E+02  0.16195258226E+02  0.00000000000E+00 0. -1.
         13    1    5    5    0    0 -0.21875154571E+02 -0.33792352757E+02  0.36064155656E+03  0.36288121722E+03  0.00000000000E+00 0. -1.
        -14    1    5    5    0    0  0.39459618259E+00  0.44989720166E+02  0.21228008653E+03  0.21699554318E+03  0.00000000000E+00 0.  1.
          5    1    4    4  501    0 -0.86867618192E+01  0.67617546230E+02  0.14213930112E+03  0.15769795723E+03  0.41800000000E+01 0.  1.
         -5    1    4    4    0  501  0.40152802996E+02 -0.39181240920E+02  0.48854551141E+02  0.74509440983E+02  0.41800000000E+01 0.  1.
</event>
<event>
11    1  0.8328696E-009  0.4033149E+03  0.7561462E-02  0.9640028E-01
         22   -1    0    0    0    0  0.00000000000E+00  0.00000000000E+00  0.22826075132E+04  0.22826075132E+04  0.00000000000E+00 0.  1.
         22   -1    0    0    0    0 -0.00000000000E+00 -0.00000000000E+00 -0.22904876356E+03  0.22904876356E+03  0.00000000000E+00 0. -1.
        -24    2    1    2    0    0 -0.29980242107E+03  0.31648862196E+03  0.71933512908E+02  0.44909426225E+03  0.80403274809E+02 0.  0.
         25    2    1    2    0    0  0.24716580200E+03 -0.73930312149E+02  0.73849065380E+03  0.79219504183E+03  0.12509162166E+03 0.  0.
         24    2    1    2    0    0  0.52636619074E+02 -0.24255830981E+03  0.12431345829E+04  0.12703669726E+04  0.82725489864E+02 0.  0.
        -11    1    5    5    0    0  0.70857890109E+02 -0.16155171532E+03  0.76497390851E+03  0.78505087607E+03  0.00000000000E+00 0.  1.
         12    1    5    5    0    0 -0.18221271035E+02 -0.81006594487E+02  0.47816067437E+03  0.48531609657E+03  0.00000000000E+00 0. -1.
         13    1    3    3    0    0 -0.29549169469E+03  0.31865013733E+03  0.63235828649E+02  0.43914920207E+03  0.00000000000E+00 0. -1.
        -14    1    3    3    0    0 -0.43107263777E+01 -0.21615153703E+01  0.86976842592E+01  0.99450601845E+01  0.00000000000E+00 0.  1.
          5    1    4    4  501    0  0.17459772587E+03 -0.29922795101E+02  0.32600120021E+03  0.37104446430E+03  0.41800000000E+01 0.  1.
         -5    1    4    4    0  501  0.72568076122E+02 -0.44007517049E+02  0.41248945359E+03  0.42115057753E+03  0.41800000000E+01 0.  1.
</event>
<event>
11    1  0.8328696E-009  0.7516153E+03  0.7561462E-02  0.8959518E-01
         22   -1    0    0    0    0  0.00000000000E+00  0.00000000000E+00  0.90548930036E+03  0.90548930036E+03  0.00000000000E+00 0. -1.
         22   -1    0    0    0    0 -0.00000000000E+00 -0.00000000000E+00 -0.97713419624E+03  0.97713419624E+03  0.00000000000E+00 0. -1.
         24    2    1    2    0    0  0.13854211962E+03  0.82467506769E+01 -0.11452110625E+03  0.19660707016E+03  0.79229593300E+02 0.  0.
         25    2    1    2    0    0 -0.67461612734E+03 -0.47520030677E+03 -0.30742210322E+03  0.88942576590E+03  0.12509033806E+03 0.  0.
        -24    2    1    2    0    0  0.53607400772E+03  0.46695355609E+03  0.35029831359E+03  0.79659066055E+03  0.80167366653E+02 0.  0.
        -13    1    3    3    0    0  0.14831323737E+01  0.16287865865E+02  0.20713903181E+01  0.16485900459E+02  0.00000000000E+00 0.  1.
         14    1    3    3    0    0  0.13705898724E+03 -0.80411151883E+01 -0.11659249657E+03  0.18012116970E+03  0.00000000000E+00 0. -1.
         13    1    5    5    0    0  0.52359128761E+03  0.45390288369E+03  0.32466349878E+03  0.76523333156E+03  0.00000000000E+00 0. -1.
        -14    1    5    5    0    0  0.12482720107E+02  0.13050672403E+02  0.25634814809E+02  0.31357328995E+02  0.00000000000E+00 0.  1.
          5    1    4    4  501    0 -0.65213810703E+03 -0.47163727468E+03 -0.27690611017E+03  0.85112883617E+03  0.41800000000E+01 0.  1.
         -5    1    4    4    0  501 -0.22478020308E+02 -0.35630320845E+01 -0.30515993052E+02  0.38296929727E+02  0.41800000000E+01 0.  1.
</event>
<event>
11    1  0.8328696E-009  0.1763155E+03  0.7561462E-02  0.1072663E+00
         22   -1    0    0    0    0  0.00000000000E+00  0.00000000000E+00  0.74616681965E+03  0.74616681965E+03  0.00000000000E+00 0.  1.
         22   -1    0    0    0    0 -0.00000000000E+00 -0.00000000000E+00 -0.30312685841E+03  0.30312685841E+03  0.00000000000E+00 0. -1.
        -24    2    1    2    0    0 -0.77378653395E+02 -0.62229771427E+02 -0.21842588997E+03  0.25335004641E+03  0.81341109850E+02 0.  0.
         25    2    1    2    0    0  0.19020696731E+03  0.51427864446E+02  0.18026831582E+03  0.29490264831E+03  0.12508953049E+03 0.  0.
         24    2    1    2    0    0 -0.11282831391E+03  0.10801906981E+02  0.48119753539E+03  0.50104098335E+03  0.81511283346E+02 0.  0.
        -11    1    5    5    0    0 -0.66223826341E+02  0.46114359661E+02  0.29841588786E+03  0.30913455237E+03  0.00000000000E+00 0.  1.
         12    1    5    5    0    0 -0.46604487572E+02 -0.35312452680E+02  0.18278164753E+03  0.19190643097E+03  0.00000000000E+00 0. -1.
         11    1    3    3    0    0 -0.35493325845E+02 -0.26283134669E+02 -0.18184857074E+03  0.18713493000E+03  0.00000000000E+00 0. -1.
        -12    1    3    3    0    0 -0.41885327551E+02 -0.35946636759E+02 -0.36577319234E+02  0.66215116406E+02  0.00000000000E+00 0.  1.
          5    1    4    4  501    0  0.18536377161E+03  0.33190064149E+02  0.19461000889E+03  0.27083544108E+03  0.41800000000E+01 0.  1.
         -5    1    4    4    0  501  0.48431956991E+01  0.18237800298E+02 -0.14341693065E+02  0.24067207238E+02  0.41800000000E+01 0.  1.
</event>
<event>
11    1  0.8328696E-009  0.1684394E+03  0.7561462E-02  0.1079398E+00
         22   -1    0    0    0    0  0.00000000000E+00  0.00000000000E+00  0.10477830185E+04  0.10477830185E+04  0.00000000000E+00 0.  1.
         22   -1    0    0    0    0 -0.00000000000E+00 -0.00000000000E+00 -0.85698826114E+03  0.85698826114E+03  0.00000000000E+00 0. -1.
        -24    2    1    2    0    0  0.24892638136E+02 -0.11338146385E+03 -0.67526793475E+03  0.68977132650E+03  0.79515403476E+02 0.  0.
         25    2    1    2    0    0 -0.61955186528E+02  0.82979913574E+02 -0.13415236748E+03  0.21062821514E+03  0.12507308311E+03 0.  0.
         24    2    1    2    0    0  0.37062548392E+02  0.30401550280E+02  0.10002150596E+04  0.10043717380E+04  0.77682275315E+02 0.  0.
        -11    1    5    5    0    0  0.32228245157E+02  0.52871352744E+02  0.86532661566E+03  0.86753915848E+03  0.00000000000E+00 0.  1.
         12    1    5    5    0    0  0.48343032348E+01 -0.22469802464E+02  0.13488844391E+03  0.13683257949E+03  0.00000000000E+00 0. -1.
         13    1    3    3    0    0  0.35857911025E+02 -0.41719201703E+02 -0.44430796668E+03  0.44770062635E+03  0.00000000000E+00 0. -1.
        -14    1    3    3    0    0 -0.10965272888E+02 -0.71662262150E+02 -0.23095996807E+03  0.24207070016E+03  0.00000000000E+00 0.  1.
          5    1    4    4  501    0  0.17769401581E+02  0.75274828375E+02 -0.91174210247E+02  0.11963385990E+03  0.41800000000E+01 0. -1.
         -5    1    4    4    0  501 -0.79724588109E+02  0.77050851988E+01 -0.42978157238E+02  0.90994355246E+02  0.41800000000E+01 0. -1.
</event>
<event>
11    1  0.8328696E-009  0.1473271E+03  0.7561462E-02  0.1099642E+00
         22   -1    0    0    0    0  0.00000000000E+00  0.00000000000E+00  0.26092070998E+03  0.26092070998E+03  0.00000000000E+00 0. -1.
         22   -1    0    0    0    0 -0.00000000000E+00 -0.00000000000E+00 -0.19146939068E+04  0.19146939068E+04  0.00000000000E+00 0.  1.
        -24    2    1    2    0    0  0.25484174687E+00  0.23011792134E+02 -0.17754811877E+04  0.17774583374E+04  0.80592094191E+02 0.  0.
         25    2    1    2    0    0 -0.73118151701E+02  0.67870095146E+01 -0.80416569429E+02  0.16585162069E+03  0.12509039867E+03 0.  0.
         24    2    1    2    0    0  0.72863309954E+02 -0.29798801649E+02  0.20212456033E+03  0.23230465871E+03  0.83150983478E+02 0.  0.
        -11    1    5    5    0    0  0.84093779547E+02 -0.25130310412E+02  0.11671323586E+03  0.14603176259E+03  0.00000000000E+00 0.  1.
         12    1    5    5    0    0 -0.11230469593E+02 -0.46684912367E+01  0.85411324469E+02  0.86272896122E+02  0.00000000000E+00 0. -1.
         13    1    3    3    0    0  0.40273900138E+02  0.79991709244E+01 -0.85584205318E+03  0.85682646654E+03  0.00000000000E+00 0. -1.
        -14    1    3    3    0    0 -0.40019058391E+02  0.15012621210E+02 -0.91963913454E+03  0.92063187084E+03  0.00000000000E+00 0.  1.
          5    1    4    4  501    0 -0.50213722791E+02  0.57768660385E+02 -0.78577509711E+02  0.10977492205E+03  0.41800000000E+01 0.  1.
         -5    1    4    4    0  501 -0.22904428910E+02 -0.50981650870E+02 -0.18390597187E+01  0.56076698635E+02  0.41800000000E+01 0.  1.
</event>
<event>
11    1  0.8328696E-009  0.1455591E+03  0.7561462E-02  0.1101505E+00
         22   -1    0    0    0    0  0.00000000000E+00  0.00000000000E+00  0.77319637865E+03  0.77319637865E+03  0.00000000000E+00 0. -1.
         22   -1    0    0    0    0 -0.00000000000E+00 -0.00000000000E+00 -0.49456766705E+03  0.49456766705E+03  0.00000000000E+00 0. -1.
         24    2    1    2    0    0  0.40203017382E+02 -0.59911011407E+02 -0.43270556914E+03  0.44588777468E+03  0.79851024730E+02 0.  0.
         25    2    1    2    0    0 -0.73881545812E+02  0.10598569224E+03  0.10570652223E+03  0.20859203804E+03  0.12508125247E+03 0.  0.
        -24    2    1    2    0    0  0.33678528430E+02 -0.46074680833E+02  0.60562775851E+03  0.61328423298E+03  0.77945166914E+02 0.  0.
        -13    1    3    3    0    0  0.19374975890E+02 -0.35200605508E+02 -0.62676240364E+02  0.74449871894E+02  0.00000000000E+00 0.  1.
         14    1    3    3    0    0  0.20828041492E+02 -0.24710405899E+02 -0.37002932878E+03  0.37143790279E+03  0.00000000000E+00 0. -1.
         13    1    5    5    0    0  0.28527130140E+02 -0.31172609646E+02  0.58845768878E+03  0.58997286397E+03  0.00000000000E+00 0. -1.
        -14    1    5    5    0    0  0.51513982906E+01 -0.14902071187E+02  0.17170069736E+02  0.23311369002E+02  0.00000000000E+00 0.  1.
          5    1    4    4  501    0 -0.68124136741E+02  0.10732404801E+03  0.27596918635E+02  0.13014765309E+03  0.41800000000E+01 0.  1.
         -5    1    4    4    0  501 -0.57574090706E+01 -0.13383557698E+01  0.78109603594E+02  0.78444384942E+02  0.41800000000E+01 0.  1.
</event>
<event>
11    1  0.8328696E-009  0.2019943E+03  0.7561462E-02  0.1053122E+00
         22   -1    0    0    0    0  0.00000000000E+00  0.00000000000E+00  0.43407584036E+02  0.43407584036E+02  0.00000000000E+00 0. -1.
         22   -1    0    0    0    0 -0.00000000000E+00 -0.00000000000E+00 -0.16840821704E+04  0.16840821704E+04  0.00000000000E+00 0.  1.
        -24    2    1    2    0    0  0.18147236377E+02  0.18400681723E+02 -0.68414660390E+03  0.68943232344E+03  0.81193877200E+02 0.  0.
         25    2    1    2    0    0  0.12280177528E+03  0.70209706027E+02 -0.67112112812E+03  0.69718065728E+03  0.12509045303E+03 0.  0.
         24    2    1    2    0    0 -0.14094901166E+03 -0.88610387749E+02 -0.28540685436E+03  0.34087677374E+03  0.83794257884E+02 0.  0.
        -11    1    5    5    0    0  0.48086329275E+01 -0.71680879057E+01 -0.58639797172E+02  0.59271664792E+02  0.00000000000E+00 0.  1.
         12    1    5    5    0    0 -0.14575764459E+03 -0.81442299844E+02 -0.22676705719E+03  0.28160510895E+03  0.00000000000E+00 0. -1.
         13    1    3    3    0    0  0.40779209151E+02  0.25261943713E+02 -0.24515025365E+03  0.24979943267E+03  0.00000000000E+00 0. -1.
        -14    1    3    3    0    0 -0.22631972775E+02 -0.68612619908E+01 -0.43899635026E+03  0.43963289077E+03  0.00000000000E+00 0.  1.
          5    1    4    4  501    0  0.67058916687E+02  0.69907054259E+02 -0.19486450464E+03  0.21765463954E+03  0.41800000000E+01 0.  1.
         -5    1    4    4    0  501  0.55742858597E+02  0.30265176741E+00 -0.47625662348E+03  0.47952601775E+03  0.41800000000E+01 0.  1.
</event>
<event>
11    1  0.8328696E-009  0.1423641E+03  0.7561462E-02  0.1104947E+00
         22   -1    0    0    0    0  0.00000000000E+00  0.00000000000E+00  0.56151244115E+03  0.56151244115E+03  0.00000000000E+00 0. -1.
         22   -1    0    0    0    0 -0.00000000000E+00 -0.00000000000E+00 -0.28249006765E+03  0.28249006765E+03  0.00000000000E+00 0.  1.
         24    2    1    2    0    0  0.55575562228E+02 -0.42196087692E+02 -0.21135752697E+03  0.23716504053E+03  0.81890776717E+02 0.  0.
         25    2    1    2    0    0 -0.67011946340E+02 -0.14766587366E+00  0.41377116451E+02  0.14781646264E+03  0.12508804142E+03 0.  0.
        -24    2    1    2    0    0  0.11436384112E+02  0.42343753565E+02  0.44900278402E+03  0.45902100562E+03  0.84693560523E+02 0.  0.
        -13    1    3    3    0    0  0.18061121882E+02 -0.11684650691E+02 -0.17587994357E+03  0.17719054640E+03  0.00000000000E+00 0.  1.
         14    1    3    3    0    0  0.37514440346E+02 -0.30511437001E+02 -0.35477583405E+02  0.59974494133E+02  0.00000000000E+00 0. -1.
         13    1    5    5    0    0  0.29299194785E+02  0.33410874227E+02  0.42699845388E+03  0.42930456432E+03  0.00000000000E+00 0. -1.
        -14    1    5    5    0    0 -0.17862810672E+02  0.89328793387E+01  0.22004330136E+02  0.29716441293E+02  0.00000000000E+00 0.  1.
          5    1    4    4  501    0  0.10314862275E+02  0.43973490968E+02 -0.77951870144E+01  0.46025010942E+02  0.41800000000E+01 0. -1.
         -5    1    4    4    0  501 -0.77326808615E+02 -0.44121156841E+02  0.49172303466E+02  0.10179145170E+03  0.41800000000E+01 0. -1.
</event>
<event>
11    1  0.8328696E-009  0.2290981E+03  0.7561462E-02  0.1035663E+00
         22   -1    0    0    0    0  0.00000000000E+00  0.00000000000E+00  0.14799730813E+04  0.14799730813E+04  0.00000000000E+00 0. -1.
         22   -1    0    0    0    0 -0.00000000000E+00 -0.00000000000E+00 -0.13198160009E+04  0.13198160009E+04  0.00000000000E+00 0. -1.
        -24    2    1    2    0    0  0.18404225408E+03  0.25536863940E+02 -0.99416930937E+03  0.10145738627E+04  0.80397913933E+02 0.  0.
         25    2    1    2    0    0 -0.21854013434E+03 -0.49244662419E+02 -0.26157588283E+03  0.36641015018E+03  0.12509847555E+03 0.  0.
         24    2    1    2    0    0  0.34497880265E+02  0.23707798479E+02  0.14159022726E+04  0.14188050693E+04  0.80476180328E+02 0.  0.
        -13    1    5    5    0    0  0.77958475984E+01 -0.23319750578E+02  0.17431980369E+03  0.17604539178E+03  0.00000000000E+00 0.  1.
         14    1    5    5    0    0  0.26702032667E+02  0.47027549057E+02  0.12415824689E+04  0.12427596775E+04  0.00000000000E+00 0. -1.
         13    1    3    3    0    0  0.12505313292E+03  0.28519368792E+02 -0.83510259622E+03  0.84489525188E+03  0.00000000000E+00 0. -1.
        -14    1    3    3    0    0  0.58989121154E+02 -0.29825048521E+01 -0.15906671315E+03  0.16967861086E+03  0.00000000000E+00 0.  1.
          5    1    4    4  501    0  0.25096583156E+01 -0.16593486172E+02 -0.69828329375E+02  0.71938238452E+02  0.41800000000E+01 0.  1.
         -5    1    4    4    0  501 -0.22104979266E+03 -0.32651176247E+02 -0.19174755345E+03  0.29447191173E+03  0.41800000000E+01 0.  1.
</event>
<event>
11    1  0.8328696E-009  0.2366314E+03  0.7561462E-02  0.1031272E+00
         22   -1    0    0    0    0  0.00000000000E+00  0.00000000000E+00  0.10526479375E+04  0.10526479375E+04  0.00000000000E+00 0.  1.
         22   -1    0    0    0    0 -0.00000000000E+00 -0.00000000000E+00 -0.28284501590E+04  0.28284501590E+04  0.00000000000E+00 0.  1.
         24    2    1    2    0    0  0.10175364085E+03 -0.16967835236E+03 -0.24540636200E+04  0.24632850368E+04  0.78742458627E+02 0.  0.
         25    2    1    2    0    0 -0.87323422222E+02  0.21811409100E+03 -0.31934053945E+03  0.41572720733E+03  0.12510633086E+03 0.  0.
        -24    2    1    2    0    0 -0.14430218623E+02 -0.48435738636E+02  0.99760193797E+03  0.10020858523E+04  0.80076068319E+02 0.  0.
        -13    1    3    3    0    0  0.93581169221E+02 -0.17811019245E+03 -0.23216484959E+04  0.23303502771E+04  0.00000000000E+00 0.  1.
         14    1    3    3    0    0  0.81724716242E+01  0.84318400929E+01 -0.13241512419E+03  0.13293475969E+03  0.00000000000E+00 0. -1.
         13    1    5    5    0    0  0.28282591599E+02  0.20063951015E+01  0.26774376479E+03  0.26924088507E+03  0.00000000000E+00 0. -1.
        -14    1    5    5    0    0 -0.42712810222E+02 -0.50442133737E+02  0.72985817318E+03  0.73284496721E+03  0.00000000000E+00 0.  1.
          5    1    4    4  501    0 -0.92446646537E+02  0.15822612562E+03 -0.15284507480E+03  0.23866499235E+03  0.41800000000E+01 0.  1.
         -5    1    4    4    0  501  0.51232243147E+01  0.59887965377E+02 -0.16649546465E+03  0.17706221498E+03  0.41800000000E+01 0.  1.
</event>
<event>
11    1  0.8328696E-009  0.1479258E+03  0.7561462E-02  0.1099017E+00
         22   -1    0    0    0    0  0.00000000000E+00  0.00000000000E+00  0.10232699447E+04  0.10232699447E+04  0.00000000000E+00 0. -1.
         22   -1    0    0    0    0 -0.00000000000E+00 -0.00000000000E+00 -0.57068413405E+03  0.57068413405E+03  0.00000000000E+00 0.  1.
        -24    2    1    2    0    0  0.50324069945E+02 -0.50518275626E+02 -0.52676569796E+03  0.53758212434E+03  0.80173759230E+02 0.  0.
         25    2    1    2    0    0 -0.12359026597E+03  0.35739837589E+02  0.19803210036E+03  0.26723604039E+03  0.12508596514E+03 0.  0.
         24    2    1    2    0    0  0.73266196024E+02  0.14778438037E+02  0.78131940830E+03  0.78913591407E+03  0.81787134581E+02 0.  0.
        -11    1    5    5    0    0  0.47829396227E+02  0.21410462794E+02  0.18612391888E+03  0.19336021369E+03  0.00000000000E+00 0.  1.
         12    1    5    5    0    0  0.25436799797E+02 -0.66320247567E+01  0.59519548942E+03  0.59577570038E+03  0.00000000000E+00 0. -1.
         13    1    3    3    0    0 -0.69030263118E+01  0.12948839954E+02 -0.28652996342E+02  0.32191900034E+02  0.00000000000E+00 0. -1.
        -14    1    3    3    0    0  0.57227096257E+02 -0.63467115579E+02 -0.49811270162E+03  0.50539022430E+03  0.00000000000E+00 0.  1.
          5    1    4    4  501    0 -0.10822561067E+03  0.61881390015E+02  0.20091892792E+03  0.23649096649E+03  0.41800000000E+01 0. -1.
         -5    1    4    4    0  501 -0.15364655303E+02 -0.26141552426E+02 -0.28868275563E+01  0.30745073901E+02  0.41800000000E+01 0. -1.
</event>
<event>
11    1  0.8328696E-009  0.1867336E+03  0.7561462E-02  0.1064323E+00
         22   -1    0    0    0    0  0.00000000000E+00  0.00000000000E+00  0.32112477919E+03  0.32112477919E+03  0.00000000000E+00 0. -1.
         22   -1    0    0    0    0 -0.00000000000E+00 -0.00000000000E+00 -0.13129447598E+04  0.13129447598E+04  0.00000000000E+00 0.  1.
         24    2    1    2    0    0 -0.13890351080E+03  0.66475584911E+01 -0.12139142854E+04  0.12245462082E+04  0.81161248510E+02 0.  0.
         25    2    1    2    0    0  0.13132073474E+03  0.20286373994E+00  0.78197392970E+01  0.18153211285E+03  0.12509029997E+03 0.  0.
        -24    2    1    2    0    0  0.75827760618E+01 -0.68504222310E+01  0.21427456545E+03  0.22799121803E+03  0.77213854488E+02 0.  0.
        -13    1    3    3    0    0 -0.65435384903E+02  0.40062011803E+02 -0.72060536425E+03  0.72467844274E+03  0.00000000000E+00 0.  1.
         14    1    3    3    0    0 -0.73468125900E+02 -0.33414453312E+02 -0.49330892115E+03  0.49986776541E+03  0.00000000000E+00 0. -1.
         11    1    5    5    0    0  0.88428559615E+01 -0.13094279964E+02  0.21930572865E+03  0.21987418877E+03  0.00000000000E+00 0. -1.
        -12    1    5    5    0    0 -0.12600798997E+01  0.62438577331E+01 -0.50311632067E+01  0.81170292569E+01  0.00000000000E+00 0.  1.
          5    1    4    4  501    0  0.75119038460E+02 -0.60460511196E+01 -0.57609914538E+02  0.94951563054E+02  0.41800000000E+01 0.  1.
         -5    1    4    4    0  501  0.56201696281E+02  0.62489148596E+01  0.65429653835E+02  0.86580549795E+02  0.41800000000E+01 0.  1.
</event>
<event>
11    1  0.8328696E-009  0.1554048E+03  0.7561462E-02  0.1091481E+00
         22   -1    0    0    0    0  0.00000000000E+00  0.00000000000E+00  0.40905923852E+03  0.40905923852E+03  0.00000000000E+00 0.  1.
         22   -1    0    0    0    0 -0.00000000000E+00 -0.00000000000E+00 -0.33187620264E+04  0.33187620264E+04  0.00000000000E+00 0. -1.
        -24    2    1    2    0    0  0.44562555368E+02  0.30246898042E+01 -0.31974779484E+04  0.31988113786E+04  0.80833381857E+02 0.  0.
         25    2    1    2    0    0 -0.94771759293E+02 -0.77476448662E+02 -0.40754014443E+02  0.17970180836E+03  0.12509022255E+03 0.  0.
         24    2    1    2    0    0  0.50209203925E+02  0.74451758858E+02  0.32852917493E+03  0.34930807794E+03  0.77593079455E+02 0.  0.
        -11    1    5    5    0    0  0.47030619292E+02  0.63139043622E+02  0.32824407705E+03  0.33755383585E+03  0.00000000000E+00 0.  1.
         12    1    5    5    0    0  0.31785846329E+01  0.11312715236E+02  0.28509787928E+00  0.11754242088E+02  0.00000000000E+00 0. -1.
         11    1    3    3    0    0  0.18898300604E+02  0.39754562812E+02 -0.11478141857E+04  0.11486579021E+04  0.00000000000E+00 0. -1.
        -12    1    3    3    0    0  0.25664254764E+02 -0.36729873008E+02 -0.20496637627E+04  0.20501534766E+04  0.00000000000E+00 0.  1.
          5    1    4    4  501    0  0.98391171224E+01 -0.67446064762E+02 -0.27813525742E+02  0.73734961124E+02  0.41800000000E+01 0.  1.
         -5    1    4    4    0  501 -0.10461087642E+03 -0.10030383900E+02 -0.12940488701E+02  0.10596684724E+03  0.41800000000E+01 0.  1.
</event>
<event>
11    1  0.8328696E-009  0.1585240E+03  0.7561462E-02  0.1088474E+00
         22   -1    0    0    0    0  0.00000000000E+00  0.00000000000E+00  0.12572471851E+04  0.12572471851E+04  0.00000000000E+00 0.  1.
         22   -1    0    0    0    0 -0.00000000000E+00 -0.00000000000E+00 -0.64926261523E+03  0.64926261523E+03  0.00000000000E+00 0. -1.
         24    2    1    2    0    0 -0.84691518669E+02 -0.33032497051E+02 -0.43927019190E+03  0.45652212527E+03  0.84795932529E+02 0.  0.
         25    2    1    2    0    0  0.14326223869E+03 -0.14669695338E+02 -0.15312645247E+03  0.24461277242E+03  0.12509368084E+03 0.  0.
        -24    2    1    2    0    0 -0.58570720021E+02  0.47702192389E+02  0.12003812143E+04  0.12053749027E+04  0.79420199005E+02 0.  0.
        -13    1    3    3    0    0  0.10002904744E+02  0.14447006412E+02 -0.82866511725E+02  0.84709107321E+02  0.00000000000E+00 0.  1.
         14    1    3    3    0    0 -0.94694423412E+02 -0.47479503463E+02 -0.35640368018E+03  0.37181301795E+03  0.00000000000E+00 0. -1.
         11    1    5    5    0    0 -0.29400548061E+02 -0.60747705471E+00  0.84747395272E+03  0.84798399855E+03  0.00000000000E+00 0. -1.
        -12    1    5    5    0    0 -0.29170171960E+02  0.48309669444E+02  0.35290726156E+03  0.35739090414E+03  0.00000000000E+00 0.  1.
          5    1    4    4  501    0  0.12891891724E+03 -0.22440170678E+02 -0.50041822517E+02  0.14016170976E+03  0.41800000000E+01 0.  1.
         -5    1    4    4    0  501  0.14343321451E+02  0.77704753398E+01 -0.10308462995E+03  0.10445106266E+03  0.41800000000E+01 0.  1.
</event>
<event>
11    1  0.8328696E-009  0.1315007E+03  0.7561462E-02  0.1117439E+00
         22   -1    0    0    0    0  0.00000000000E+00  0.00000000000E+00  0.15602156489E+03  0.15602156489E+03  0.00000000000E+00 0. -1.
         22   -1    0    0    0    0 -0.00000000000E+00 -0.00000000000E+00 -0.12037715435E+04  0.12037715435E+04  0.00000000000E+00 0. -1.
        -24    2    1    2    0    0  0.25843773630E+02 -0.21032276880E+02 -0.86000514819E+03  0.86437900229E+03  0.80199422651E+02 0.  0.
         25    2    1    2    0    0 -0.87796602739E+01  0.57418214075E+02 -0.31240055890E+03  0.34149017181E+03  0.12508994563E+03 0.  0.
         24    2    1    2    0    0 -0.17064113356E+02 -0.36385937196E+02  0.12465572847E+03  0.15392393430E+03  0.80860413789E+02 0.  0.
        -13    1    5    5    0    0  0.22524126214E+02  0.97125545661E+01  0.15561977955E+02  0.29049012647E+02  0.00000000000E+00 0.  1.
         14    1    5    5    0    0 -0.39588239570E+02 -0.46098491762E+02  0.10909375052E+03  0.12487492165E+03  0.00000000000E+00 0. -1.
         11    1    3    3    0    0 -0.11662572795E+02  0.62373139587E+01 -0.60794141553E+03  0.60808526081E+03  0.00000000000E+00 0. -1.
        -12    1    3    3    0    0  0.37506346424E+02 -0.27269590838E+02 -0.25206373265E+03  0.25629374149E+03  0.00000000000E+00 0.  1.
          5    1    4    4  501    0  0.46552723613E+02  0.33673965991E+02 -0.65090174811E+02  0.86921201777E+02  0.41800000000E+01 0. -1.
         -5    1    4    4    0  501 -0.55332383887E+02  0.23744248085E+02 -0.24731038409E+03  0.25456897003E+03  0.41800000000E+01 0. -1.
</event>
<event>
11    1  0.8328696E-009  0.1541635E+03  0.7561462E-02  0.1092699E+00
         22   -1    0    0    0    0  0.00000000000E+00  0.00000000000E+00  0.43693637160E+03  0.43693637160E+03  0.00000000000E+00 0.  1.
         22   -1    0    0    0    0 -0.00000000000E+00 -0.00000000000E+00 -0.24074379536E+04  0.24074379536E+04  0.00000000000E+00 0.  1.
        -24    2    1    2    0    0  0.31559297403E+02 -0.84096821105E+02 -0.19601937921E+04  0.19638534723E+04  0.79325238189E+02 0.  0.
         25    2    1    2    0    0 -0.92922729811E+02  0.61421240789E+02 -0.42255582851E+03  0.45454101659E+03  0.12508758937E+03 0.  0.
         24    2    1    2    0    0  0.61363432408E+02  0.22675580317E+02  0.41224803857E+03  0.42597983638E+03  0.85033657535E+02 0.  0.
        -11    1    5    5    0    0  0.57589628383E+02 -0.21513515326E+02  0.20401586212E+03  0.21307714245E+03  0.00000000000E+00 0.  1.
         12    1    5    5    0    0  0.37738040247E+01  0.44189095643E+02  0.20823217645E+03  0.21290269392E+03  0.00000000000E+00 0. -1.
         11    1    3    3    0    0 -0.14257872073E+02 -0.41001913328E+02 -0.39153824616E+03  0.39393735799E+03  0.00000000000E+00 0. -1.
        -12    1    3    3    0    0  0.45817169476E+02 -0.43094907778E+02 -0.15686555459E+04  0.15699161143E+04  0.00000000000E+00 0.  1.
          5    1    4    4  501    0  0.26506355842E+02  0.33875395354E+02 -0.14002835484E+03  0.14654535772E+03  0.41800000000E+01 0.  1.
         -5    1    4    4    0  501 -0.11942908565E+03  0.27545845435E+02 -0.28252747367E+03  0.30799565886E+03  0.41800000000E+01 0.  1.
</event>
<event>
11    1  0.8328696E-009  0.1567689E+03  0.7561462E-02  0.1090156E+00
         22   -1    0    0    0    0  0.00000000000E+00  0.00000000000E+00  0.19896963457E+03  0.19896963457E+03  0.00000000000E+00 0. -1.
         22   -1    0    0    0    0 -0.00000000000E+00 -0.00000000000E+00 -0.17073386116E+04  0.17073386116E+04  0.00000000000E+00 0.  1.
         24    2    1    2    0    0  0.91145898417E+02  0.36034595057E+02 -0.15851301936E+04  0.15901241347E+04  0.79063053293E+02 0.  0.
         25    2    1    2    0    0 -0.35512539033E+02 -0.94403764606E+01 -0.61757096086E+02  0.14425833461E+03  0.12508503928E+03 0.  0.
        -24    2    1    2    0    0 -0.55633359384E+02 -0.26594218597E+02  0.13851831266E+03  0.17192577682E+03  0.81048298270E+02 0.  0.
        -13    1    3    3    0    0  0.64283624377E+02  0.26635109167E+02 -0.14656678742E+04  0.14673186875E+04  0.00000000000E+00 0.  1.
         14    1    3    3    0    0  0.26862274040E+02  0.93994858899E+01 -0.11946231940E+03  0.12280544719E+03  0.00000000000E+00 0. -1.
         11    1    5    5    0    0 -0.34223251975E+02 -0.23569924770E+02  0.14378638532E+03  0.14967062816E+03  0.00000000000E+00 0. -1.
        -12    1    5    5    0    0 -0.21410107409E+02 -0.30242938266E+01 -0.52680726578E+01  0.22255148661E+02  0.00000000000E+00 0.  1.
          5    1    4    4  501    0 -0.60961000611E+02  0.37637066925E+02 -0.15548779058E+02  0.73430438732E+02  0.41800000000E+01 0. -1.
         -5    1    4    4    0  501  0.25448461578E+02 -0.47077443386E+02 -0.46208317028E+02  0.70827895881E+02  0.41800000000E+01 0. -1.
</event>
<event>
11    1  0.8328696E-009  0.1542756E+03  0.7561462E-02  0.1092588E+00
         22   -1    0    0    0    0  0.00000000000E+00  0.00000000000E+00  0.47635052082E+03  0.47635052082E+03  0.00000000000E+00 0. -1.
         22   -1    0    0    0    0 -0.00000000000E+00 -0.00000000000E+00 -0.33219263352E+03  0.33219263352E+03  0.00000000000E+00 0. -1.
         24    2    1    2    0    0  0.70980747875E+02 -0.93795712543E+01 -0.23141307346E+03  0.25557084627E+03  0.81475173919E+02 0.  0.
         25    2    1    2    0    0 -0.11498326017E+03 -0.65454298164E+02  0.26584473960E+02  0.18403030885E+03  0.12511996264E+03 0.  0.
        -24    2    1    2    0    0  0.44002512293E+02  0.74833869418E+02  0.34898648681E+03  0.36894199922E+03  0.82403287049E+02 0.  0.
        -11    1    3    3    0    0 -0.26072758859E+01 -0.70602998251E+01  0.42716994097E+01  0.86540821011E+01  0.00000000000E+00 0.  1.
         12    1    3    3    0    0  0.73588023761E+02 -0.23192714292E+01 -0.23568477287E+03  0.24691676417E+03  0.00000000000E+00 0. -1.
         11    1    5    5    0    0  0.31781646716E+02  0.52684653370E+02  0.33382839192E+03  0.33945123512E+03  0.00000000000E+00 0. -1.
        -12    1    5    5    0    0  0.12220865577E+02  0.22149216048E+02  0.15158094883E+02  0.29490764105E+02  0.00000000000E+00 0.  1.
          5    1    4    4  501    0 -0.10975749195E+03  0.18086155246E+01  0.36401763973E+02  0.11572613771E+03  0.41800000000E+01 0.  1.
         -5    1    4    4    0  501 -0.52257682191E+01 -0.67262913689E+02 -0.98172900135E+01  0.68304171136E+02  0.41800000000E+01 0.  1.
</event>
<event>
11    1  0.8328696E-009  0.1506472E+03  0.7561462E-02  0.1096219E+00
         22   -1    0    0    0    0  0.00000000000E+00  0.00000000000E+00  0.28155477305E+03  0.28155477305E+03  0.00000000000E+00 0. -1.
         22   -1    0    0    0    0 -0.00000000000E+00 -0.00000000000E+00 -0.13214170811E+04  0.13214170811E+04  0.00000000000E+00 0.  1.
        -24    2    1    2    0    0 -0.39285550077E+02  0.73169279407E+02 -0.12117664309E+04  0.12176216284E+04  0.85600519314E+02 0.  0.
         25    2    1    2    0    0  0.82306762626E+02 -0.75974108094E+02 -0.23112329288E+02  0.16949801910E+03  0.12509568514E+03 0.  0.
         24    2    1    2    0    0 -0.43021212549E+02  0.28048286867E+01  0.19501645213E+03  0.21585220669E+03  0.81866151368E+02 0.  0.
        -13    1    5    5    0    0 -0.18656145008E+02  0.42042098089E+02  0.88036017433E+02  0.99327388588E+02  0.00000000000E+00 0.  1.
         14    1    5    5    0    0 -0.24365067541E+02 -0.39237269403E+02  0.10698043469E+03  0.11652481810E+03  0.00000000000E+00 0. -1.
         13    1    3    3    0    0  0.19767993132E+02 -0.46227181486E+01 -0.14896248421E+03  0.15033949840E+03  0.00000000000E+00 0. -1.
        -14    1    3    3    0    0 -0.59053543209E+02  0.77791997556E+02 -0.10628039467E+04  0.10672821300E+04  0.00000000000E+00 0.  1.
          5    1    4    4  501    0  0.10900390937E+03 -0.61536120953E+02 -0.43628808203E+02  0.13262538123E+03  0.41800000000E+01 0.  1.
         -5    1    4    4    0  501 -0.26697146744E+02 -0.14437987141E+02  0.20516478915E+02  0.36872637877E+02  0.41800000000E+01 0.  1.
</event>
<event>
11    1  0.8328696E-009  0.1596531E+03  0.7561462E-02  0.1087404E+00
         22   -1    0    0    0    0  0.00000000000E+00  0.00000000000E+00  0.19537234763E+04  0.19537234763E+04  0.00000000000E+00 0. -1.
         22   -1    0    0    0    0 -0.00000000000E+00 -0.00000000000E+00 -0.76027329893E+02  0.76027329893E+02  0.00000000000E+00 0.  1.
         24    2    1    2    0    0  0.84078430547E+02 -0.47197892495E+02  0.58990329483E+01  0.12473239369E+03  0.78908478036E+02 0.  0.
         25    2    1    2    0    0 -0.11473886288E+03  0.41173479407E+02  0.48277246483E+03  0.51339741093E+03  0.12508951470E+03 0.  0.
        -24    2    1    2    0    0  0.30660432329E+02  0.60244130882E+01  0.13890246486E+04  0.13916210016E+04  0.79013808127E+02 0.  0.
        -11    1    3    3    0    0  0.68857608105E+02 -0.17234035779E+02 -0.28638973285E+02  0.76541315471E+02  0.00000000000E+00 0.  1.
         12    1    3    3    0    0  0.15220822442E+02 -0.29963856716E+02  0.34538006233E+02  0.48191078216E+02  0.00000000000E+00 0. -1.
         11    1    5    5    0    0  0.52607150891E+02  0.97292317879E+01  0.62917435805E+03  0.63144480606E+03  0.00000000000E+00 0. -1.
        -12    1    5    5    0    0 -0.21946718562E+02 -0.37048186997E+01  0.75985029059E+03  0.76017619553E+03  0.00000000000E+00 0.  1.
          5    1    4    4  501    0 -0.14002040426E+03  0.40096075621E+02  0.36804952741E+03  0.39584256456E+03  0.41800000000E+01 0.  1.
         -5    1    4    4    0  501  0.25281541388E+02  0.10774037858E+01  0.11472293742E+03  0.11755484636E+03  0.41800000000E+01 0.  1.
</event>
<event>
11    1  0.8328696E-009  0.1468187E+03  0.7561462E-02  0.1100174E+00
         22   -1    0    0    0    0  0.00000000000E+00  0.00000000000E+00  0.51186144272E+03  0.51186144272E+03  0.00000000000E+00 0. -1.
         22   -1    0    0    0    0 -0.00000000000E+00 -0.00000000000E+00 -0.25098804100E+03  0.25098804100E+03  0.00000000000E+00 0. -1.
         24    2    1    2    0    0 -0.71770843696E+02 -0.14060346537E+02 -0.14028744337E+03  0.17702497809E+03  0.79426247244E+02 0.  0.
         25    2    1    2    0    0  0.94247802187E+02 -0.14075843144E+02 -0.17488548366E+02  0.15822116151E+03  0.12508920437E+03 0.  0.
        -24    2    1    2    0    0 -0.22476958492E+02  0.28136189681E+02  0.41864939347E+03  0.42760334412E+03  0.79249267605E+02 0.  0.
        -11    1    3    3    0    0  0.79143863867E+01  0.18776559004E+02 -0.16656621390E+02  0.26318049244E+02  0.00000000000E+00 0.  1.
         12    1    3    3    0    0 -0.79685230082E+02 -0.32836905541E+02 -0.12363082199E+03  0.15070692885E+03  0.00000000000E+00 0. -1.
         11    1    5    5    0    0 -0.18164782443E+02  0.53011848220E+02  0.20690872271E+03  0.21436285804E+03  0.00000000000E+00 0. -1.
        -12    1    5    5    0    0 -0.43121760484E+01 -0.24875658538E+02  0.21174067076E+03  0.21324048608E+03  0.00000000000E+00 0.  1.
          5    1    4    4  501    0  0.51646666534E+02  0.44450639401E+02 -0.43769514406E+02  0.81095501099E+02  0.41800000000E+01 0. -1.
         -5    1    4    4    0  501  0.42601135653E+02 -0.58526482545E+02  0.26280966040E+02  0.77125660412E+02  0.41800000000E+01 0. -1.
</event>
<event>
11    1  0.8328696E-009  0.1389025E+03  0.7561462E-02  0.1108790E+00
         22   -1    0    0    0    0  0.00000000000E+00  0.00000000000E+00  0.22513748548E+04  0.22513748548E+04  0.00000000000E+00 0.  1.
         22   -1    0    0    0    0 -0.00000000000E+00 -0.00000000000E+00 -0.70381648384E+03  0.70381648384E+03  0.00000000000E+00 0.  1.
         24    2    1    2    0    0 -0.59206576104E+02 -0.97393680997E+01 -0.68504999881E+03  0.69237915285E+03  0.80592285482E+02 0.  0.
         25    2    1    2    0    0  0.11347420008E+03  0.34164031114E+02  0.53083470875E+03  0.55810071370E+03  0.12508934210E+03 0.  0.
        -24    2    1    2    0    0 -0.54267623979E+02 -0.24424663014E+02  0.17017736611E+04  0.17047114721E+04  0.80411880838E+02 0.  0.
        -13    1    3    3    0    0 -0.35484853134E+02  0.19525546780E+01 -0.63298969775E+03  0.63398654933E+03  0.00000000000E+00 0.  1.
         14    1    3    3    0    0 -0.23721722970E+02 -0.11691922778E+02 -0.52060301058E+02  0.58392603514E+02  0.00000000000E+00 0. -1.
         13    1    5    5    0    0  0.16444111755E+02  0.52089472611E+01  0.61251710362E+03  0.61275994009E+03  0.00000000000E+00 0. -1.
        -14    1    5    5    0    0 -0.70711735734E+02 -0.29633610276E+02  0.10892565574E+04  0.10919515321E+04  0.00000000000E+00 0.  1.
          5    1    4    4  501    0 -0.21559808918E+02  0.23014764858E+02  0.16316693038E+03  0.16623905778E+03  0.41800000000E+01 0.  1.
         -5    1    4    4    0  501  0.13503400900E+03  0.11149266256E+02  0.36766777837E+03  0.39186165592E+03  0.41800000000E+01 0.  1.
</event>
<event>
11    1  0.8328696E-009  0.1503655E+03  0.7561462E-02  0.1096506E+00
         22   -1    0    0    0    0  0.00000000000E+00  0.00000000000E+00  0.81039810961E+03  0.81039810961E+03  0.00000000000E+00 0. -1.
         22   -1    0    0    0    0 -0.00000000000E+00 -0.00000000000E+00 -0.33030860212E+04  0.33030860212E+04  0.00000000000E+00 0. -1.
        -24    2    1    2    0    0 -0.14696959538E+01 -0.64171675428E+02 -0.31073762281E+04  0.31090096372E+04  0.77677133242E+02 0.  0.
         25    2    1    2    0    0  0.73562020441E+01  0.14596282355E+03 -0.14198312665E+03  0.23909596774E+03  0.12509362082E+03 0.  0.
         24    2    1    2    0    0 -0.58865060903E+01 -0.81791148126E+02  0.75667144311E+03  0.76537852597E+03  0.80797106000E+02 0.  0.
        -13    1    5    5    0    0 -0.22544118012E+02 -0.27888967095E+02  0.99058795144E+02  0.10535025694E+03  0.00000000000E+00 0.  1.
         14    1    5    5    0    0  0.16657611922E+02 -0.53902181030E+02  0.65761264796E+03  0.66002826903E+03  0.00000000000E+00 0. -1.
         11    1    3    3    0    0 -0.10504288435E+02 -0.71603559713E+02 -0.30184224113E+04  0.30192898607E+04  0.00000000000E+00 0. -1.
        -12    1    3    3    0    0  0.90345924810E+01  0.74318842848E+01 -0.88953816810E+02  0.89719776473E+02  0.00000000000E+00 0.  1.
          5    1    4    4  501    0 -0.34322474834E+01  0.78823681564E+02 -0.15095259062E+03  0.17037931245E+03  0.41800000000E+01 0. -1.
         -5    1    4    4    0  501  0.10788449528E+02  0.67139141990E+02  0.89694639686E+01  0.68716655290E+02  0.41800000000E+01 0. -1.
</event>
<event>
11    1  0.8328696E-009  0.2132290E+03  0.7561462E-02  0.1045544E+00
         22   -1    0    0    0    0  0.00000000000E+00  0.00000000000E+00  0.29248475549E+04  0.29248475549E+04  0.00000000000E+00 0.  1.
         22   -1    0    0    0    0 -0.00000000000E+00 -0.00000000000E+00 -0.50430766274E+03  0.50430766274E+03  0.00000000000E+00 0.  1.
         24    2    1    2    0    0  0.94703090739E+02  0.14742980370E+03 -0.42755535881E+03  0.47040586204E+03  0.88169539973E+02 0.  0.
         25    2    1    2    0    0 -0.73356217820E+02 -0.13308019116E+03  0.12246648553E+03  0.23181239814E+03  0.12508987122E+03 0.  0.
        -24    2    1    2    0    0 -0.21346872919E+02 -0.14349612536E+02  0.27256287655E+04  0.27269369575E+04  0.80445028644E+02 0.  0.
        -11    1    3    3    0    0  0.68945449023E+02  0.40699946432E+02 -0.12395967952E+03  0.14756680767E+03  0.00000000000E+00 0.  1.
         12    1    3    3    0    0  0.25757641716E+02  0.10672985727E+03 -0.30359567929E+03  0.32283905436E+03  0.00000000000E+00 0. -1.
         11    1    5    5    0    0 -0.18242206233E+02  0.15222615832E+02  0.24928785473E+03  0.25041753261E+03  0.00000000000E+00 0. -1.
        -12    1    5    5    0    0 -0.31046666860E+01 -0.29572228368E+02  0.24763409107E+04  0.24765194249E+04  0.00000000000E+00 0.  1.
          5    1    4    4  501    0 -0.81851724864E+02 -0.10421742147E+03  0.32011808877E+02  0.13639356330E+03  0.41800000000E+01 0. -1.
         -5    1    4    4    0  501  0.84955070441E+01 -0.28862769690E+02  0.90454676654E+02  0.95418834843E+02  0.41800000000E+01 0. -1.
</event>
<event>
11    1  0.8328696E-009  0.2666208E+03  0.7561462E-02  0.1015400E+00
         22   -1    0    0    0    0  0.00000000000E+00  0.00000000000E+00  0.30056220048E+04  0.30056220048E+04  0.00000000000E+00 0.  1.
         22   -1    0    0    0    0 -0.00000000000E+00 -0.00000000000E+00 -0.30630431036E+04  0.30630431036E+04  0.00000000000E+00 0. -1.
         24    2    1    2    0    0 -0.21170028477E+02 -0.47536184471E+02 -0.11763550764E+04  0.11805644410E+04  0.84930999820E+02 0.  0.
         25    2    1    2    0    0 -0.21396159837E+03  0.34071129050E+02 -0.18711034677E+04  0.18877546862E+04  0.12509660671E+03 0.  0.
        -24    2    1    2    0    0  0.23513162685E+03  0.13465055421E+02  0.29900374453E+04  0.30003459812E+04  0.79271008230E+02 0.  0.
        -11    1    3    3    0    0 -0.23979197962E+02 -0.28294422106E+02 -0.16900872421E+03  0.17303041674E+03  0.00000000000E+00 0.  1.
         12    1    3    3    0    0  0.28091694856E+01 -0.19241762365E+02 -0.10073463522E+04  0.10075340243E+04  0.00000000000E+00 0. -1.
         13    1    5    5    0    0  0.46407207051E+02 -0.16991821360E+02  0.97788036091E+03  0.97912836294E+03  0.00000000000E+00 0. -1.
        -14    1    5    5    0    0  0.18872441980E+03  0.30456876781E+02  0.20121570844E+04  0.20212176182E+04  0.00000000000E+00 0.  1.
          5    1    4    4  501    0 -0.16676282552E+03 -0.18658385458E+02 -0.15416007335E+04  0.15507121813E+04  0.41800000000E+01 0.  1.
         -5    1    4    4    0  501 -0.47198772853E+02  0.52729514508E+02 -0.32950273424E+03  0.33704250493E+03  0.41800000000E+01 0.  1.
</event>
<event>
11    1  0.8328696E-009  0.2074731E+03  0.7561462E-02  0.1049361E+00
         22   -1    0    0    0    0  0.00000000000E+00  0.00000000000E+00  0.12304153401E+04  0.12304153401E+04  0.00000000000E+00 0. -1.
         22   -1    0    0    0    0 -0.00000000000E+00 -0.00000000000E+00 -0.14190039247E+04  0.14190039247E+04  0.00000000000E+00 0. -1.
        -24    2    1    2    0    0  0.15464193838E+03  0.52743613443E+02 -0.13180456861E+04  0.13305868733E+04  0.80752578244E+02 0.  0.
         25    2    1    2    0    0 -0.28349208116E+03  0.29232566091E+02  0.19132511334E+03  0.36534619647E+03  0.12510092438E+03 0.  0.
         24    2    1    2    0    0  0.12885014279E+03 -0.81976179534E+02  0.93813198814E+03  0.95348619497E+03  0.75642868315E+02 0.  0.
        -13    1    5    5    0    0  0.11805886814E+02 -0.37811949243E+01  0.28909126622E+03  0.28935693633E+03  0.00000000000E+00 0.  1.
         14    1    5    5    0    0  0.11704425597E+03 -0.78194984610E+02  0.64904072192E+03  0.66412925864E+03  0.00000000000E+00 0. -1.
         11    1    3    3    0    0  0.15546057459E+03  0.63503602239E+02 -0.11501694292E+04  0.11623641485E+04  0.00000000000E+00 0. -1.
        -12    1    3    3    0    0 -0.81863621198E+00 -0.10759988796E+02 -0.16787625684E+03  0.16822272479E+03  0.00000000000E+00 0.  1.
          5    1    4    4  501    0 -0.73541530695E+02 -0.46299840376E+02  0.40301940923E+02  0.95884048715E+02  0.41800000000E+01 0.  1.
         -5    1    4    4    0  501 -0.20995055047E+03  0.75532406467E+02  0.15102317241E+03  0.26946214776E+03  0.41800000000E+01 0.  1.
</event>
<event>
11    1  0.8328696E-009  0.1690056E+03  0.7561462E-02  0.1078900E+00
         22   -1    0    0    0    0  0.00000000000E+00  0.00000000000E+00  0.48791959595E+03  0.48791959595E+03  0.00000000000E+00 0. -1.
         22   -1    0    0    0    0 -0.00000000000E+00 -0.00000000000E+00 -0.63210920752E+03  0.63210920752E+03  0.00000000000E+00 0. -1.
        -24    2    1    2    0    0 -0.12618133105E+02  0.28794695888E+02 -0.54192573546E+03  0.54884653174E+03  0.80997906473E+02 0.  0.
         25    2    1    2    0    0 -0.95371257874E+02  0.15934541011E+02  0.10146336661E+02  0.15843353432E+03  0.12509456513E+03 0.  0.
         24    2    1    2    0    0  0.10798939098E+03 -0.44729236898E+02  0.38758978723E+03  0.41274873741E+03  0.80456596204E+02 0.  0.
        -13    1    5    5    0    0  0.14865107067E+02  0.14026593326E+02  0.18441631935E+02  0.27528358412E+02  0.00000000000E+00 0.  1.
         14    1    5    5    0    0  0.93124283913E+02 -0.58755830224E+02  0.36914815529E+03  0.38522037900E+03  0.00000000000E+00 0. -1.
         11    1    3    3    0    0 -0.27760571270E+02  0.52007257496E+02 -0.35002657134E+03  0.35495634209E+03  0.00000000000E+00 0. -1.
        -12    1    3    3    0    0  0.15142438164E+02 -0.23212561608E+02 -0.19189916412E+03  0.19389018964E+03  0.00000000000E+00 0.  1.
          5    1    4    4  501    0 -0.11228991894E+03 -0.15893958893E+02 -0.14729921776E+02  0.11443813534E+03  0.41800000000E+01 0.  1.
         -5    1    4    4    0  501  0.16918661061E+02  0.31828499904E+02  0.24876258437E+02  0.43995398987E+02  0.41800000000E+01 0.  1.
</event>
<event>
11    1  0.8328696E-009  0.1351397E+03  0.7561462E-02  0.1113110E+00
         22   -1    0    0    0    0  0.00000000000E+00  0.00000000000E+00  0.55906913409E+03  0.55906913409E+03  0.00000000000E+00 0. -1.
         22   -1    0    0    0    0 -0.00000000000E+00 -0.00000000000E+00 -0.25435091368E+03  0.25435091368E+03  0.00000000000E+00 0.  1.
         24    2    1    2    0    0 -0.12932926086E+01 -0.12112837420E+02 -0.88443951816E+02  0.11643043525E+03  0.74734999851E+02 0.  0.
         25    2    1    2    0    0 -0.43694006197E+02 -0.12649219295E+02 -0.11717107150E+03  0.17732960170E+03  0.12509020232E+03 0.  0.
        -24    2    1    2    0    0  0.44987298806E+02  0.24762056715E+02  0.51033324373E+03  0.51966001082E+03  0.83483475524E+02 0.  0.
        -11    1    3    3    0    0 -0.49722612707E+01 -0.33398331521E+02 -0.88613244271E+02  0.94828682321E+02  0.00000000000E+00 0.  1.
         12    1    3    3    0    0  0.36789686620E+01  0.21285494101E+02  0.16929245455E+00  0.21601752926E+02  0.00000000000E+00 0. -1.
         13    1    5    5    0    0  0.46099984490E+02 -0.12473136848E+02  0.40746989712E+03  0.41025907031E+03  0.00000000000E+00 0. -1.
        -14    1    5    5    0    0 -0.11126856840E+01  0.37235193563E+02  0.10286334660E+03  0.10940094051E+03  0.00000000000E+00 0.  1.
          5    1    4    4  501    0 -0.76975249961E+02  0.50827979543E+01 -0.31125594337E+02  0.83290449419E+02  0.41800000000E+01 0. -1.
         -5    1    4    4    0  501  0.33281243764E+02 -0.17732017250E+02 -0.86045477159E+02  0.94039152281E+02  0.41800000000E+01 0. -1.
</event>
<event>
11    1  0.8328696E-009  0.1419440E+03  0.7561462E-02  0.1105407E+00
         22   -1    0    0    0    0  0.00000000000E+00  0.00000000000E+00  0.19144619801E+04  0.19144619801E+04  0.00000000000E+00 0. -1.
         22   -1    0    0    0    0 -0.00000000000E+00 -0.00000000000E+00 -0.57986166372E+02  0.57986166372E+02  0.00000000000E+00 0. -1.
         24    2    1    2    0    0 -0.13840610508E+02  0.11696463462E+02 -0.77356161067E+01  0.83466284727E+02  0.81107405166E+02 0.  0.
         25    2    1    2    0    0  0.20632599095E+02 -0.76312989875E+02  0.51544053022E+03  0.53626075674E+03  0.12508909807E+03 0.  0.
        -24    2    1    2    0    0 -0.67919885870E+01  0.64616526413E+02  0.13487708997E+04  0.13527211051E+04  0.80312027046E+02 0.  0.
        -13    1    3    3    0    0 -0.14686830399E+02  0.25993992591E+02  0.30473040819E+02  0.42661421152E+02  0.00000000000E+00 0.  1.
         14    1    3    3    0    0  0.84621989056E+00 -0.14297529129E+02 -0.38208656926E+02  0.40804863575E+02  0.00000000000E+00 0. -1.
         11    1    5    5    0    0 -0.16563351933E+00  0.78709388639E+02  0.12693415823E+04  0.12717795594E+04  0.00000000000E+00 0. -1.
        -12    1    5    5    0    0 -0.66263550677E+01 -0.14092862226E+02  0.79429317374E+02  0.80941545610E+02  0.00000000000E+00 0.  1.
          5    1    4    4  501    0  0.57664410391E+02 -0.89545574454E+02  0.41061255578E+03  0.42422133079E+03  0.41800000000E+01 0. -1.
         -5    1    4    4    0  501 -0.37031811296E+02  0.13232584579E+02  0.10482797444E+03  0.11203942595E+03  0.41800000000E+01 0. -1.
</event>
<event>
11    1  0.8328696E-009  0.1588280E+03  0.7561462E-02  0.1088185E+00
         22   -1    0    0    0    0  0.00000000000E+00  0.00000000000E+00  0.96861010725E+03  0.96861010725E+03  0.00000000000E+00 0.  1.
         22   -1    0    0    0    0 -0.00000000000E+00 -0.00000000000E+00 -0.74910292662E+03  0.74910292662E+03  0.00000000000E+00 0.  1.
         24    2    1    2    0    0  0.10504991628E+03 -0.96097639712E+01 -0.57294002768E+03  0.58808548444E+03  0.80351908656E+02 0.  0.
         25    2    1    2    0    0 -0.56890428114E+02  0.56701406859E+02 -0.13230076493E+03  0.19900512310E+03  0.12509187131E+03 0.  0.
        -24    2    1    2    0    0 -0.48159488162E+02 -0.47091642888E+02  0.92474797324E+03  0.93062242633E+03  0.79764197756E+02 0.  0.
        -13    1    3    3    0    0  0.74690644662E+02 -0.43690387053E+02 -0.35192097408E+03  0.36240297228E+03  0.00000000000E+00 0.  1.
         14    1    3    3    0    0  0.30359271614E+02  0.34080623082E+02 -0.22101905359E+03  0.22568251216E+03  0.00000000000E+00 0. -1.
         13    1    5    5    0    0 -0.73264764959E+01  0.22450858927E+02  0.23027020589E+03  0.23147804657E+03  0.00000000000E+00 0. -1.
        -14    1    5    5    0    0 -0.40833011666E+02 -0.69542501816E+02  0.69447776735E+03  0.69914437976E+03  0.00000000000E+00 0.  1.
          5    1    4    4  501    0 -0.31118434528E+02 -0.37093638663E+02 -0.62679561147E+02  0.79312639486E+02  0.41800000000E+01 0.  1.
         -5    1    4    4    0  501 -0.25771993586E+02  0.93795045522E+02 -0.69621203786E+02  0.11969248362E+03  0.41800000000E+01 0.  1.
</event>
<event>
11    1  0.8328696E-009  0.2357915E+03  0.7561462E-02  0.1031753E+00
         22   -1    0    0    0    0  0.00000000000E+00  0.00000000000E+00  0.11299647608E+04  0.11299647608E+04  0.00000000000E+00 0.  1.
         22   -1    0    0    0    0 -0.00000000000E+00 -0.00000000000E+00 -0.43654949093E+03  0.43654949093E+03  0.00000000000E+00 0. -1.
         24    2    1    2    0    0  0.14307055757E+03  0.65607044468E+02 -0.21538710099E+03  0.27844613255E+03  0.79794590877E+02 0.  0.
         25    2    1    2    0    0 -0.32247765074E+03  0.59337449251E+01 -0.10094134868E+02  0.34608756127E+03  0.12509062295E+03 0.  0.
        -24    2    1    2    0    0  0.17940709317E+03 -0.71540789393E+02  0.91889650575E+03  0.94198055794E+03  0.75177081858E+02 0.  0.
        -11    1    3    3    0    0  0.44187779646E+02  0.48373531212E+02 -0.13423524051E+03  0.14937087463E+03  0.00000000000E+00 0.  1.
         12    1    3    3    0    0  0.98882777922E+02  0.17233513256E+02 -0.81151860476E+02  0.12907525792E+03  0.00000000000E+00 0. -1.
         13    1    5    5    0    0  0.91851053173E+02  0.23226505036E+01  0.45121418450E+03  0.46047394168E+03  0.00000000000E+00 0. -1.
        -14    1    5    5    0    0  0.87556039998E+02 -0.73863439896E+02  0.46768232125E+03  0.48150661626E+03  0.00000000000E+00 0.  1.
          5    1    4    4  501    0 -0.71122380246E+02 -0.47216288445E+02  0.18821277512E+02  0.87518476641E+02  0.41800000000E+01 0. -1.
         -5    1    4    4    0  501 -0.25135527049E+03  0.53150033370E+02 -0.28915412380E+02  0.25856908463E+03  0.41800000000E+01 0. -1.
</event>
<event>
11    1  0.8328696E-009  0.1654476E+03  0.7561462E-02  0.1082063E+00
         22   -1    0    0    0    0  0.00000000000E+00  0.00000000000E+00  0.11093544611E+04  0.11093544611E+04  0.00000000000E+00 0. -1.
         22   -1    0    0    0    0 -0.00000000000E+00 -0.00000000000E+00 -0.34654533783E+03  0.34654533783E+03  0.00000000000E+00 0.  1.
        -24    2    1    2    0    0 -0.19033396665E+02 -0.11309360446E+03 -0.25142512406E+03  0.28716222518E+03  0.78071230307E+02 0.  0.
         25    2    1    2    0    0 -0.32045002648E+02  0.84483622564E+02  0.49770197070E+01  0.15438947289E+03  0.12508786487E+03 0.  0.
         24    2    1    2    0    0  0.51078399313E+02  0.28609981894E+02  0.10092572276E+04  0.10143481008E+04  0.82911906757E+02 0.  0.
        -13    1    5    5    0    0 -0.21136806607E+02 -0.32602959725E+01  0.28525130628E+03  0.28605192161E+03  0.00000000000E+00 0.  1.
         14    1    5    5    0    0  0.72215205920E+02  0.31870277866E+02  0.72400592131E+03  0.72829617922E+03  0.00000000000E+00 0. -1.
         13    1    3    3    0    0 -0.27871418056E+02 -0.87964121164E+02 -0.11152788080E+03  0.14475141019E+03  0.00000000000E+00 0. -1.
        -14    1    3    3    0    0  0.88380213909E+01 -0.25129483293E+02 -0.13989724326E+03  0.14241081499E+03  0.00000000000E+00 0.  1.
          5    1    4    4  501    0 -0.55165078083E+02  0.82802873574E+02  0.43950077425E+02  0.10885119851E+03  0.41800000000E+01 0. -1.
         -5    1    4    4    0  501  0.23120075435E+02  0.16807489900E+01 -0.38973057718E+02  0.45538274377E+02  0.41800000000E+01 0. -1.
</event>
<event>
11    1  0.8328696E-009  0.1429733E+03  0.7561462E-02  0.1104283E+00
         22   -1    0    0    0    0  0.00000000000E+00  0.00000000000E+00  0.15922520421E+04  0.15922520421E+04  0.00000000000E+00 0.  1.
         22   -1    0    0    0    0 -0.00000000000E+00 -0.00000000000E+00 -0.43814618815E+02  0.43814618815E+02  0.00000000000E+00 0.  1.
        -24    2    1    2    0    0 -0.48027579084E+02 -0.17365315577E+02  0.80092031911E+02  0.12471547809E+03  0.80814691492E+02 0.  0.
         25    2    1    2    0    0  0.64635603584E+02  0.81185871844E+02  0.32537355699E+03  0.36370959022E+03  0.12509119629E+03 0.  0.
         24    2    1    2    0    0 -0.16608024501E+02 -0.63820556267E+02  0.11429718344E+04  0.11476415926E+04  0.79672586343E+02 0.  0.
        -11    1    5    5    0    0 -0.42778075875E+02 -0.12004094734E+02  0.57358865055E+03  0.57530687646E+03  0.00000000000E+00 0.  1.
         12    1    5    5    0    0  0.26170051374E+02 -0.51816461533E+02  0.56938318386E+03  0.57233471618E+03  0.00000000000E+00 0. -1.
         13    1    3    3    0    0 -0.46009113937E+02  0.15300145526E+02  0.78100393673E+02  0.91927169598E+02  0.00000000000E+00 0. -1.
        -14    1    3    3    0    0 -0.20184651465E+01 -0.32665461104E+02  0.19916382380E+01  0.32788308488E+02  0.00000000000E+00 0.  1.
          5    1    4    4  501    0  0.69510705079E+02  0.32527903169E+01  0.79674677625E+02  0.10586711208E+03  0.41800000000E+01 0.  1.
         -5    1    4    4    0  501 -0.48751014948E+01  0.77933081528E+02  0.24569887936E+03  0.25784247814E+03  0.41800000000E+01 0.  1.
</event>
<event>
11    1  0.8328696E-009  0.1354708E+03  0.7561462E-02  0.1112724E+00
         22   -1    0    0    0    0  0.00000000000E+00  0.00000000000E+00  0.22619433712E+04  0.22619433712E+04  0.00000000000E+00 0. -1.
         22   -1    0    0    0    0 -0.00000000000E+00 -0.00000000000E+00 -0.73340773563E+03  0.73340773563E+03  0.00000000000E+00 0.  1.
         24    2    1    2    0    0  0.36048623586E+02 -0.37149597330E+02 -0.70106086056E+03  0.70749573928E+03  0.79901783741E+02 0.  0.
         25    2    1    2    0    0 -0.26155998864E+02  0.65842906540E+02  0.15481821203E+03  0.21127248649E+03  0.12509180691E+03 0.  0.
        -24    2    1    2    0    0 -0.98926247215E+01 -0.28693309209E+02  0.20747782841E+04  0.20765828810E+04  0.81057780135E+02 0.  0.
        -13    1    3    3    0    0  0.45424050806E+02 -0.56116577496E+02 -0.59337881589E+03  0.59775482751E+03  0.00000000000E+00 0.  1.
         14    1    3    3    0    0 -0.93754272200E+01  0.18966980166E+02 -0.10768204467E+03  0.10974091177E+03  0.00000000000E+00 0. -1.
         13    1    5    5    0    0 -0.15172066049E+02  0.18223727872E+02  0.13793315923E+04  0.13795354063E+04  0.00000000000E+00 0. -1.
        -14    1    5    5    0    0  0.52794413271E+01 -0.46917037081E+02  0.69544669180E+03  0.69704747471E+03  0.00000000000E+00 0.  1.
          5    1    4    4  501    0 -0.74107431188E+02  0.33793087134E+02  0.64279572811E+02  0.10384228414E+03  0.41800000000E+01 0.  1.
         -5    1    4    4    0  501  0.47951432324E+02  0.32049819405E+02  0.90538639216E+02  0.10743020235E+03  0.41800000000E+01 0.  1.
</event>
<event>
11    1  0.8328696E-009  0.1441709E+03  0.7561462E-02  0.1102988E+00
         22   -1    0    0    0    0  0.00000000000E+00  0.00000000000E+00  0.29318377410E+04  0.29318377410E+04  0.00000000000E+00 0.  1.
         22   -1    0    0    0    0 -0.00000000000E+00 -0.00000000000E+00 -0.81868146849E+02  0.81868146849E+02  0.00000000000E+00 0. -1.
        -24    2    1    2    0    0 -0.96907995868E+01  0.65747944933E+02 -0.38168412276E+02  0.11195625738E+03  0.81612940225E+02 0.  0.
         25    2    1    2    0    0  0.78740893265E+02 -0.43512349838E+02  0.11593478563E+04  0.11695398207E+04  0.12506993067E+03 0.  0.
         24    2    1    2    0    0 -0.69050093678E+02 -0.22235595095E+02  0.17287901502E+04  0.17322098098E+04  0.81074685070E+02 0.  0.
        -11    1    5    5    0    0 -0.16955072761E+02  0.29579336818E+01  0.12228512804E+04  0.12229723946E+04  0.00000000000E+00 0.  1.
         12    1    5    5    0    0 -0.52095020917E+02 -0.25193528776E+02  0.50593886977E+03  0.50923741520E+03  0.00000000000E+00 0. -1.
         11    1    3    3    0    0 -0.29142778920E+02  0.34436426634E+02 -0.55250583542E+02  0.71328788187E+02  0.00000000000E+00 0. -1.
        -12    1    3    3    0    0  0.19451979333E+02  0.31311518298E+02  0.17082171266E+02  0.40627469196E+02  0.00000000000E+00 0.  1.
          5    1    4    4  501    0  0.42146158697E+02 -0.34190996844E+01  0.10045256627E+04  0.10054239247E+04  0.41800000000E+01 0. -1.
         -5    1    4    4    0  501  0.36594734568E+02 -0.40093250154E+02  0.15482219358E+03  0.16411589604E+03  0.41800000000E+01 0. -1.
</event>
<event>
11    1  0.8328696E-009  0.1572161E+03  0.7561462E-02  0.1089725E+00
         22   -1    0    0    0    0  0.00000000000E+00  0.00000000000E+00  0.16103650277E+04  0.16103650277E+04  0.00000000000E+00 0.  1.
         22   -1    0    0    0    0 -0.00000000000E+00 -0.00000000000E+00 -0.36536611334E+03  0.36536611334E+03  0.00000000000E+00 0. -1.
        -24    2    1    2    0    0 -0.84756399604E+02  0.41996239339E+02 -0.33771464059E+03  0.35956855137E+03  0.79316034151E+02 0.  0.
         25    2    1    2    0    0  0.12867767189E+03 -0.27943332037E+02  0.54762835546E+03  0.57696183897E+03  0.12509746152E+03 0.  0.
         24    2    1    2    0    0 -0.43921272282E+02 -0.14052907302E+02  0.10350851995E+04  0.10392007507E+04  0.80064147242E+02 0.  0.
        -11    1    5    5    0    0 -0.63157646047E+02  0.37531395830E+01  0.83715213157E+03  0.83953955577E+03  0.00000000000E+00 0.  1.
         12    1    5    5    0    0  0.19236373766E+02 -0.17806046885E+02  0.19793306788E+03  0.19966119488E+03  0.00000000000E+00 0. -1.
         13    1    3    3    0    0 -0.16184101553E+02 -0.19028062014E+02 -0.13142123686E+03  0.13377418953E+03  0.00000000000E+00 0. -1.
        -14    1    3    3    0    0 -0.68572298051E+02  0.61024301354E+02 -0.20629340373E+03  0.22579436184E+03  0.00000000000E+00 0.  1.
          5    1    4    4  501    0  0.11462952591E+03  0.68639512329E+01  0.51303294269E+03  0.52574453370E+03  0.41800000000E+01 0.  1.
         -5    1    4    4    0  501  0.14048145978E+02 -0.34807283270E+02  0.34595412775E+02  0.51217305270E+02  0.41800000000E+01 0.  1.
</event>
<event>
11    1  0.8328696E-009  0.1769077E+03  0.7561462E-02  0.1072172E+00
         22   -1    0    0    0    0  0.00000000000E+00  0.00000000000E+00  0.18264429555E+03  0.18264429555E+03  0.00000000000E+00 0. -1.
         22   -1    0    0    0    0 -0.00000000000E+00 -0.00000000000E+00 -0.36419397656E+04  0.36419397656E+04  0.00000000000E+00 0.  1.
        -24    2    1    2    0    0  0.56363301867E+02  0.75078168160E+02 -0.28260947196E+04  0.28293076498E+04  0.96730863620E+02 0.  0.
         25    2    1    2    0    0 -0.12460817956E+03 -0.17538837675E+03 -0.76167942454E+03  0.80130597626E+03  0.12508973064E+03 0.  0.
         24    2    1    2    0    0  0.68244877697E+02  0.10031020859E+03  0.12847867412E+03  0.19397043505E+03  0.79989116079E+02 0.  0.
        -11    1    5    5    0    0  0.16912006299E+02  0.27813859382E+02 -0.57049091148E+01  0.33048036535E+02  0.00000000000E+00 0.  1.
         12    1    5    5    0    0  0.51332871398E+02  0.72496349207E+02  0.13418358324E+03  0.16092239852E+03  0.00000000000E+00 0. -1.
         13    1    3    3    0    0  0.22506595308E+02  0.71712592199E+02 -0.97231221003E+03  0.97521293904E+03  0.00000000000E+00 0. -1.
        -14    1    3    3    0    0  0.33856706559E+02  0.33655759612E+01 -0.18537825096E+04  0.18540947108E+04  0.00000000000E+00 0.  1.
          5    1    4    4  501    0 -0.49716341741E+02 -0.14507725515E+03 -0.61445321101E+03  0.63331614974E+03  0.41800000000E+01 0. -1.
         -5    1    4    4    0  501 -0.74891837823E+02 -0.30311121595E+02 -0.14722621353E+03  0.16798982652E+03  0.41800000000E+01 0. -1.
</event>
<event>
11    1  0.8328696E-009  0.1428460E+03  0.7561462E-02  0.1104421E+00
         22   -1    0    0    0    0  0.00000000000E+00  0.00000000000E+00  0.49633517600E+03  0.49633517600E+03  0.00000000000E+00 0.  1.
         22   -1    0    0    0    0 -0.00000000000E+00 -0.00000000000E+00 -0.73058713764E+03  0.73058713764E+03  0.00000000000E+00 0. -1.
        -24    2    1    2    0    0 -0.13859980138E+02 -0.67998816313E+02 -0.68759397720E+03  0.69579006737E+03  0.80761391084E+02 0.  0.
         25    2    1    2    0    0  0.19291525383E+02  0.52128904817E+02  0.10204474571E+03  0.17073399501E+03  0.12508949298E+03 0.  0.
         24    2    1    2    0    0 -0.54315452451E+01  0.15869911496E+02  0.35129726985E+03  0.36039825127E+03  0.78713225940E+02 0.  0.
        -11    1    5    5    0    0 -0.26071683427E+02  0.36756581881E+01  0.31946629682E+03  0.32054946255E+03  0.00000000000E+00 0.  1.
         12    1    5    5    0    0  0.20640138182E+02  0.12194253308E+02  0.31830973033E+02  0.39848788716E+02  0.00000000000E+00 0. -1.
         13    1    3    3    0    0 -0.38126928231E+02 -0.44976746800E+02 -0.58308148753E+03  0.58605510961E+03  0.00000000000E+00 0. -1.
        -14    1    3    3    0    0  0.24266948092E+02 -0.23022069513E+02 -0.10451248968E+03  0.10973495775E+03  0.00000000000E+00 0.  1.
          5    1    4    4  501    0  0.29774861429E+02 -0.31119207340E+02  0.66888539706E+02  0.79664901823E+02  0.41800000000E+01 0. -1.
         -5    1    4    4    0  501 -0.10483336045E+02  0.83248112156E+02  0.35156206007E+02  0.91069093182E+02  0.41800000000E+01 0. -1.
</event>
<event>
11    1  0.8328696E-009  0.1722730E+03  0.7561462E-02  0.1076070E+00
         22   -1    0    0    0    0  0.00000000000E+00  0.00000000000E+00  0.37758877151E+02  0.37758877151E+02  0.00000000000E+00 0. -1.
         22   -1    0    0    0    0 -0.00000000000E+00 -0.00000000000E+00 -0.27142060121E+04  0.27142060121E+04  0.00000000000E+00 0. -1.
         24    2    1    2    0    0  0.25896746827E+02  0.11013709092E+03 -0.19023424589E+04  0.19074496667E+04  0.81587864298E+02 0.  0.
         25    2    1    2    0    0  0.66490043594E+02  0.17794495881E+02 -0.48481098708E+03  0.50539523244E+03  0.12508028544E+03 0.  0.
        -24    2    1    2    0    0 -0.92386790421E+02 -0.12793158680E+03 -0.28929368895E+03  0.33911999013E+03  0.80060722542E+02 0.  0.
        -13    1    3    3    0    0  0.49412374299E+00  0.28023332585E+02 -0.11285492941E+04  0.11288972763E+04  0.00000000000E+00 0.  1.
         14    1    3    3    0    0  0.25402623084E+02  0.82113758333E+02 -0.77379316486E+03  0.77855239037E+03  0.00000000000E+00 0. -1.
         13    1    5    5    0    0 -0.57839599495E+02 -0.75695235189E+02 -0.93214268006E+02  0.13328198550E+03  0.00000000000E+00 0. -1.
        -14    1    5    5    0    0 -0.34547190927E+02 -0.52236351609E+02 -0.19607942094E+03  0.20583800462E+03  0.00000000000E+00 0.  1.
          5    1    4    4  501    0  0.17916333746E+02  0.47612786699E+02 -0.39927424316E+03  0.40252374604E+03  0.41800000000E+01 0.  1.
         -5    1    4    4    0  501  0.48573709848E+02 -0.29818290818E+02 -0.85536743913E+02  0.10287148640E+03  0.41800000000E+01 0.  1.
</event>
<event>
11    1  0.8328696E-009  0.2163014E+03  0.7561462E-02  0.1043559E+00
         22   -1    0    0    0    0  0.00000000000E+00  0.00000000000E+00  0.51274293915E+03  0.51274293915E+03  0.00000000000E+00 0.  1.
         22   -1    0    0    0    0 -0.00000000000E+00 -0.00000000000E+00 -0.22797257349E+03  0.22797257349E+03  0.00000000000E+00 0.  1.
        -24    2    1    2    0    0 -0.64406367044E+02  0.15149833067E+03 -0.85324338863E+02  0.20199100130E+03  0.80126134882E+02 0.  0.
         25    2    1    2    0    0  0.14089169713E+03 -0.19011706523E+03  0.20627277090E+03  0.33792901695E+03  0.12511033398E+03 0.  0.
         24    2    1    2    0    0 -0.76485330090E+02  0.38618734562E+02  0.16382193363E+03  0.20079549439E+03  0.78356826435E+02 0.  0.
        -11    1    5    5    0    0 -0.28011244527E+02  0.27109109995E+02  0.14045912154E+03  0.14576796112E+03  0.00000000000E+00 0.  1.
         12    1    5    5    0    0 -0.48474085563E+02  0.11509624567E+02  0.23362812093E+02  0.55027533269E+02  0.00000000000E+00 0. -1.
         13    1    3    3    0    0 -0.76428358971E+00 -0.50118310897E+01 -0.20352105427E+02  0.20974050052E+02  0.00000000000E+00 0. -1.
        -14    1    3    3    0    0 -0.63642083455E+02  0.15651016176E+03 -0.64972233436E+02  0.18101695125E+03  0.00000000000E+00 0.  1.
          5    1    4    4  501    0  0.12692669094E+03 -0.20503139609E+03  0.20583309308E+03  0.31706938178E+03  0.41800000000E+01 0. -1.
         -5    1    4    4    0  501  0.13965006190E+02  0.14914330856E+02  0.43967781659E+00  0.20859635168E+02  0.41800000000E+01 0. -1.
</event>
<event>
11    1  0.8328696E-009  0.1430557E+03  0.7561462E-02  0.1104193E+00
         22   -1    0    0    0    0  0.00000000000E+00  0.00000000000E+00  0.94433206657E+03  0.94433206657E+03  0.00000000000E+00 0. -1.
         22   -1    0    0    0    0 -0.00000000000E+00 -0.00000000000E+00 -0.34144550172E+03  0.34144550172E+03  0.00000000000E+00 0. -1.
         24    2    1    2    0    0  0.51434224597E+01  0.22899582123E+02 -0.31233247817E+03  0.32386597812E+03  0.82381728584E+02 0.  0.
         25    2    1    2    0    0  0.18401678330E+02 -0.84333103706E+02  0.28368933025E+03  0.32183483879E+03  0.12508930096E+03 0.  0.
        -24    2    1    2    0    0 -0.23545100790E+02  0.61433521583E+02  0.63152971278E+03  0.64007675138E+03  0.80870391321E+02 0.  0.
        -11    1    3    3    0    0  0.37377577324E+02  0.34646058705E+02 -0.17131470408E+03  0.17873488888E+03  0.00000000000E+00 0.  1.
         12    1    3    3    0    0 -0.32234154865E+02 -0.11746476583E+02 -0.14101777409E+03  0.14513108923E+03  0.00000000000E+00 0. -1.
         11    1    5    5    0    0  0.25695854959E+02  0.41729220119E+02  0.23833477376E+03  0.24332091804E+03  0.00000000000E+00 0. -1.
        -12    1    5    5    0    0 -0.49240955748E+02  0.19704301464E+02  0.39319493902E+03  0.39675583334E+03  0.00000000000E+00 0.  1.
          5    1    4    4  501    0 -0.26996334134E+02  0.83888346151E+01  0.11696708061E+02  0.30878147327E+02  0.41800000000E+01 0.  1.
         -5    1    4    4    0  501  0.45398012464E+02 -0.92721938321E+02  0.27199262219E+03  0.29095669146E+03  0.41800000000E+01 0.  1.
</event>
<event>
11    1  0.8328696E-009  0.1493055E+03  0.7561462E-02  0.1097591E+00
         22   -1    0    0    0    0  0.00000000000E+00  0.00000000000E+00  0.21859560454E+04  0.21859560454E+04  0.00000000000E+00 0. -1.
         22   -1    0    0    0    0 -0.00000000000E+00 -0.00000000000E+00 -0.85145150445E+02  0.85145150445E+02  0.00000000000E+00 0. -1.
         24    2    1    2    0    0 -0.10483318792E+02  0.29064668995E+02 -0.44903618836E+02  0.97234497489E+02  0.80520541234E+02 0.  0.
         25    2    1    2    0    0 -0.20160794432E+02  0.51073547097E+02  0.37266419411E+03  0.39691423919E+03  0.12508935547E+03 0.  0.
        -24    2    1    2    0    0  0.30644113224E+02 -0.80138216092E+02  0.17730503197E+04  0.17769524592E+04  0.80569291140E+02 0.  0.
        -11    1    3    3    0    0  0.70374212087E+01 -0.18859896481E+02  0.98322402733E+01  0.22402989562E+02  0.00000000000E+00 0.  1.
         12    1    3    3    0    0 -0.17520740001E+02  0.47924565475E+02 -0.54735859109E+02  0.74831507927E+02  0.00000000000E+00 0. -1.
         13    1    5    5    0    0  0.25490669590E+02 -0.93375876026E+02  0.16837037035E+04  0.16864836168E+04  0.00000000000E+00 0. -1.
        -14    1    5    5    0    0  0.51534436343E+01  0.13237659934E+02  0.89346616173E+02  0.90468842390E+02  0.00000000000E+00 0.  1.
          5    1    4    4  501    0 -0.50200392912E+02 -0.17624564648E+02  0.22511339754E+03  0.23135301788E+03  0.41800000000E+01 0.  1.
         -5    1    4    4    0  501  0.30039598480E+02  0.68698111745E+02  0.14755079657E+03  0.16556122131E+03  0.41800000000E+01 0.  1.
</event>
<event>
11    1  0.8328696E-009  0.1676302E+03  0.7561462E-02  0.1080113E+00
         22   -1    0    0    0    0  0.00000000000E+00  0.00000000000E+00  0.52436986963E+03  0.52436986963E+03  0.00000000000E+00 0. -1.
         22   -1    0    0    0    0 -0.00000000000E+00 -0.00000000000E+00 -0.49370328750E+03  0.49370328750E+03  0.00000000000E+00 0.  1.
        -24    2    1    2    0    0  0.42717148119E+02 -0.10619897341E+03 -0.41480740160E+03  0.43772528517E+03  0.80220123197E+02 0.  0.
         25    2    1    2    0    0 -0.92851507589E+02  0.50915609326E+02  0.51609934054E+02  0.17181390183E+03  0.12507049946E+03 0.  0.
         24    2    1    2    0    0  0.50134359469E+02  0.55283364085E+02  0.39386404968E+03  0.40853397012E+03  0.78749036620E+02 0.  0.
        -13    1    5    5    0    0  0.66811580291E+01  0.11910415940E+00 -0.16101861968E+01  0.68734822324E+01  0.00000000000E+00 0.  1.
         14    1    5    5    0    0  0.43453201440E+02  0.55164259925E+02  0.39547423588E+03  0.40166048789E+03  0.00000000000E+00 0. -1.
         13    1    3    3    0    0 -0.23596935894E+02 -0.36007914707E+02 -0.11825619522E+03  0.12584877041E+03  0.00000000000E+00 0. -1.
        -14    1    3    3    0    0  0.66314084014E+02 -0.70191058704E+02 -0.29655120638E+03  0.31187651477E+03  0.00000000000E+00 0.  1.
          5    1    4    4  501    0 -0.81030230694E+02  0.78216954706E+02  0.70187102161E+00  0.11270206437E+03  0.41800000000E+01 0.  1.
         -5    1    4    4    0  501 -0.11821276894E+02 -0.27301345380E+02  0.50908063032E+02  0.59111837466E+02  0.41800000000E+01 0.  1.
</event>
<event>
11    1  0.8328696E-009  0.1553017E+03  0.7561462E-02  0.1091581E+00
         22   -1    0    0    0    0  0.00000000000E+00  0.00000000000E+00  0.70642175477E+03  0.70642175477E+03  0.00000000000E+00 0.  1.
         22   -1    0    0    0    0 -0.00000000000E+00 -0.00000000000E+00 -0.11301099669E+03  0.11301099669E+03  0.00000000000E+00 0. -1.
        -24    2    1    2    0    0  0.80294209505E+02  0.42529691205E+02 -0.41420988118E+02  0.12938430898E+03  0.82271905524E+02 0.  0.
         25    2    1    2    0    0 -0.11663937258E+03  0.48130409183E+01  0.37344829584E+03  0.41077425004E+03  0.12507576194E+03 0.  0.
         24    2    1    2    0    0  0.36345163078E+02 -0.47342732123E+02  0.26138345036E+03  0.27927419245E+03  0.78169439582E+02 0.  0.
        -13    1    5    5    0    0  0.50864174280E+02 -0.36395668591E+02  0.10789357317E+03  0.12471099409E+03  0.00000000000E+00 0.  1.
         14    1    5    5    0    0 -0.14519011202E+02 -0.10947063532E+02  0.15348987719E+03  0.15456319836E+03  0.00000000000E+00 0. -1.
         13    1    3    3    0    0  0.51819025426E+02 -0.54053583782E+01 -0.50891152229E+02  0.72830890909E+02  0.00000000000E+00 0. -1.
        -14    1    3    3    0    0  0.28475184079E+02  0.47935049583E+02  0.94701641114E+01  0.56553418068E+02  0.00000000000E+00 0.  1.
          5    1    4    4  501    0 -0.71523572070E+02  0.61673916153E+02  0.25298588398E+03  0.27007151496E+03  0.41800000000E+01 0.  1.
         -5    1    4    4    0  501 -0.45115800514E+02 -0.56860875235E+02  0.12046241186E+03  0.14070273508E+03  0.41800000000E+01 0.  1.
</event>
<event>
11    1  0.8328696E-009  0.2441160E+03  0.7561462E-02  0.1027081E+00
         22   -1    0    0    0    0  0.00000000000E+00  0.00000000000E+00  0.12068171560E+04  0.12068171560E+04  0.00000000000E+00 0. -1.
         22   -1    0    0    0    0 -0.00000000000E+00 -0.00000000000E+00 -0.30594958014E+03  0.30594958014E+03  0.00000000000E+00 0.  1.
        -24    2    1    2    0    0  0.14148036652E+03  0.15875904568E+03 -0.10303229039E+03  0.24760157669E+03  0.73957820564E+02 0.  0.
         25    2    1    2    0    0 -0.13623792630E+03 -0.15310334213E+03 -0.17131695385E+02  0.24071748310E+03  0.12509998302E+03 0.  0.
         24    2    1    2    0    0 -0.52424402234E+01 -0.56557035455E+01  0.10210315616E+04  0.10244476764E+04  0.83235338415E+02 0.  0.
        -13    1    5    5    0    0  0.81755551977E+01 -0.35115467826E+02  0.23499305846E+03  0.23774287226E+03  0.00000000000E+00 0.  1.
         14    1    5    5    0    0 -0.13417995421E+02  0.29459764280E+02  0.78603850318E+03  0.78670480410E+03  0.00000000000E+00 0. -1.
         13    1    3    3    0    0  0.55561428060E+02  0.32423156256E+02 -0.18599559646E+01  0.64356761773E+02  0.00000000000E+00 0. -1.
        -14    1    3    3    0    0  0.85918938463E+02  0.12633588942E+03 -0.10117233443E+03  0.18324481492E+03  0.00000000000E+00 0.  1.
          5    1    4    4  501    0  0.16353936144E+02 -0.37455141156E+01  0.17227039645E+02  0.24407445551E+02  0.41800000000E+01 0. -1.
         -5    1    4    4    0  501 -0.15259186244E+03 -0.14935782802E+03 -0.34358735031E+02  0.21631003755E+03  0.41800000000E+01 0. -1.
</event>
<event>
11    1  0.8328696E-009  0.1948038E+03  0.7561462E-02  0.1058260E+00
         22   -1    0    0    0    0  0.00000000000E+00  0.00000000000E+00  0.48076835321E+03  0.48076835321E+03  0.00000000000E+00 0.  1.
         22   -1    0    0    0    0 -0.00000000000E+00 -0.00000000000E+00 -0.44335439588E+03  0.44335439588E+03  0.00000000000E+00 0.  1.
        -24    2    1    2    0    0  0.47568934035E+02  0.12445633106E+03 -0.32232160986E+03  0.35803525638E+03  0.80906382948E+02 0.  0.
         25    2    1    2    0    0 -0.18243671585E+03 -0.12604643851E+03  0.12672201689E+03  0.28438926448E+03  0.12509166333E+03 0.  0.
         24    2    1    2    0    0  0.13486778181E+03  0.15901074452E+01  0.23301355030E+03  0.28169822824E+03  0.82865735703E+02 0.  0.
        -11    1    5    5    0    0  0.13098555334E+03  0.17392478847E+02  0.16305895127E+03  0.20987599932E+03  0.00000000000E+00 0.  1.
         12    1    5    5    0    0  0.38822284764E+01 -0.15802371401E+02  0.69954599033E+02  0.71822228911E+02  0.00000000000E+00 0. -1.
         11    1    3    3    0    0 -0.13059317167E+02  0.21201761537E+02 -0.12314778974E+03  0.12564011531E+03  0.00000000000E+00 0. -1.
        -12    1    3    3    0    0  0.60628251202E+02  0.10325456953E+03 -0.19917382011E+03  0.23239514107E+03  0.00000000000E+00 0.  1.
          5    1    4    4  501    0 -0.14339847656E+03 -0.31162831747E+02  0.46218214349E+02  0.15390854720E+03  0.41800000000E+01 0.  1.
         -5    1    4    4    0  501 -0.39038239289E+02 -0.94883606763E+02  0.80503802539E+02  0.13048071728E+03  0.41800000000E+01 0.  1.
</event>
<event>
11    1  0.8328696E-009  0.1339240E+03  0.7561462E-02  0.1114540E+00
         22   -1    0    0    0    0  0.00000000000E+00  0.00000000000E+00  0.64461529758E+03  0.64461529758E+03  0.00000000000E+00 0.  1.
         22   -1    0    0    0    0 -0.00000000000E+00 -0.00000000000E+00 -0.80717438359E+03  0.80717438359E+03  0.00000000000E+00 0.  1.
         24    2    1    2    0    0 -0.37480067408E+02  0.28755665085E+02 -0.76536674297E+03  0.77178912847E+03  0.87410318897E+02 0.  0.
         25    2    1    2    0    0  0.45404389981E+02 -0.69254371052E+02  0.13017137280E+03  0.19861941618E+03  0.12508940662E+03 0.  0.
        -24    2    1    2    0    0 -0.79243225725E+01  0.40498705967E+02  0.47263628417E+03  0.48138113651E+03  0.81484976559E+02 0.  0.
        -11    1    3    3    0    0 -0.46425790627E+01  0.47318977328E+02 -0.61228765196E+03  0.61413093710E+03  0.00000000000E+00 0.  1.
         12    1    3    3    0    0 -0.32837488345E+02 -0.18563312243E+02 -0.15307909101E+03  0.15765819137E+03  0.00000000000E+00 0. -1.
         11    1    5    5    0    0 -0.16060173071E+02 -0.10658102572E+02  0.29572005622E+02  0.35299119337E+02  0.00000000000E+00 0. -1.
        -12    1    5    5    0    0  0.81358504988E+01  0.51156808539E+02  0.44306427855E+03  0.44608201718E+03  0.00000000000E+00 0.  1.
          5    1    4    4  501    0 -0.25947601973E+02  0.21879989977E+02  0.29543380592E+02  0.45191766356E+02  0.41800000000E+01 0.  1.
         -5    1    4    4    0  501  0.71351991954E+02 -0.91134361029E+02  0.10062799221E+03  0.15342764983E+03  0.41800000000E+01 0.  1.
</event>
<event>
11    1  0.8328696E-009  0.1720801E+03  0.7561462E-02  0.1076236E+00
         22   -1    0    0    0    0  0.00000000000E+00  0.00000000000E+00  0.68341959134E+02  0.68341959134E+02  0.00000000000E+00 0. -1.
         22   -1    0    0    0    0 -0.00000000000E+00 -0.00000000000E+00 -0.11152791469E+04  0.11152791469E+04  0.00000000000E+00 0. -1.
        -24    2    1    2    0    0 -0.10359190286E+03  0.90006760072E+02 -0.77498767915E+03  0.79090839754E+03  0.78087715146E+02 0.  0.
         25    2    1    2    0    0  0.60402309524E+02 -0.38681861719E+02 -0.24459385714E+03  0.28393054618E+03  0.12508267140E+03 0.  0.
         24    2    1    2    0    0  0.43189593336E+02 -0.51324898352E+02 -0.27355651441E+02  0.10878216228E+03  0.81151962400E+02 0.  0.
        -13    1    5    5    0    0  0.49254637594E+02 -0.31752875036E+01 -0.33807393061E+02  0.59825091733E+02  0.00000000000E+00 0.  1.
         14    1    5    5    0    0 -0.60650442585E+01 -0.48149610849E+02  0.64517416200E+01  0.48957070548E+02  0.00000000000E+00 0. -1.
         11    1    3    3    0    0 -0.97355411628E+02  0.82180342511E+02 -0.76848428267E+03  0.77897354100E+03  0.00000000000E+00 0. -1.
        -12    1    3    3    0    0 -0.62364912315E+01  0.78264175600E+01 -0.65033964845E+01  0.11934856536E+02  0.00000000000E+00 0.  1.
          5    1    4    4  501    0 -0.20974660014E+02  0.13588971774E+02 -0.54270814630E+01  0.25913744033E+02  0.41800000000E+01 0.  1.
         -5    1    4    4    0  501  0.81376969538E+02 -0.52270833493E+02 -0.23916677567E+03  0.25801680215E+03  0.41800000000E+01 0.  1.
</event>
<event>
11    1  0.8328696E-009  0.1290325E+03  0.7561462E-02  0.1120464E+00
         22   -1    0    0    0    0  0.00000000000E+00  0.00000000000E+00  0.27004796456E+04  0.27004796456E+04  0.00000000000E+00 0.  1.
         22   -1    0    0    0    0 -0.00000000000E+00 -0.00000000000E+00 -0.12865384595E+03  0.12865384595E+03  0.00000000000E+00 0. -1.
        -24    2    1    2    0    0  0.19949900118E+02 -0.24275098292E+02 -0.10799236698E+03  0.13831136931E+03  0.80500960515E+02 0.  0.
         25    2    1    2    0    0 -0.25432561895E+02  0.27894121165E+02  0.87465484327E+03  0.88436496671E+03  0.12512155003E+03 0.  0.
         24    2    1    2    0    0  0.54826617767E+01 -0.36190228723E+01  0.18051633234E+04  0.18064571555E+04  0.68041706564E+02 0.  0.
        -11    1    5    5    0    0 -0.19856056460E+02 -0.83697181583E+01  0.15143709345E+04  0.15145242297E+04  0.00000000000E+00 0.  1.
         12    1    5    5    0    0  0.25338718237E+02  0.47506952860E+01  0.29079238887E+03  0.29193292581E+03  0.00000000000E+00 0. -1.
         13    1    3    3    0    0  0.29799650236E+02  0.10146688489E+02 -0.95235285981E+02  0.10030321100E+03  0.00000000000E+00 0. -1.
        -14    1    3    3    0    0 -0.98497501178E+01 -0.34421786781E+02 -0.12757080997E+02  0.38008158311E+02  0.00000000000E+00 0.  1.
          5    1    4    4  501    0 -0.40110682930E+02  0.69215339023E+02  0.68466995828E+03  0.68934030363E+03  0.41800000000E+01 0.  1.
         -5    1    4    4    0  501  0.14678121035E+02 -0.41321217858E+02  0.18998488499E+03  0.19502466308E+03  0.41800000000E+01 0.  1.
</event>
<event>
11    1  0.8328696E-009  0.1531080E+03  0.7561462E-02  0.1093745E+00
         22   -1    0    0    0    0  0.00000000000E+00  0.00000000000E+00  0.34134095216E+04  0.34134095216E+04  0.00000000000E+00 0. -1.
         22   -1    0    0    0    0 -0.00000000000E+00 -0.00000000000E+00 -0.11604460537E+03  0.11604460537E+03  0.00000000000E+00 0. -1.
         24    2    1    2    0    0  0.17074798625E+01 -0.58744231698E+02 -0.75886222525E+02  0.12635456751E+03  0.82176381744E+02 0.  0.
         25    2    1    2    0    0 -0.67995298066E+02  0.11211413289E+03  0.58520014323E+03  0.61261703334E+03  0.12508989786E+03 0.  0.
        -24    2    1    2    0    0  0.66287818204E+02 -0.53369901192E+02  0.27880509956E+04  0.27904825262E+04  0.79510714705E+02 0.  0.
        -13    1    3    3    0    0  0.38285345767E+01 -0.16473125543E+02  0.17185380403E+02  0.24111384069E+02  0.00000000000E+00 0.  1.
         14    1    3    3    0    0 -0.21210547142E+01 -0.42271106155E+02 -0.93071602928E+02  0.10224318344E+03  0.00000000000E+00 0. -1.
         13    1    5    5    0    0  0.66017140502E+02 -0.69402086755E+02  0.25948449029E+04  0.25966122126E+04  0.00000000000E+00 0. -1.
        -14    1    5    5    0    0  0.27067770134E+00  0.16032185563E+02  0.19320609267E+03  0.19387031358E+03  0.00000000000E+00 0.  1.
          5    1    4    4  501    0 -0.97138144879E+02  0.83055933981E+02  0.32680552264E+03  0.35093222905E+03  0.41800000000E+01 0. -1.
         -5    1    4    4    0  501  0.29142846812E+02  0.29058198909E+02  0.25839462059E+03  0.26168480428E+03  0.41800000000E+01 0. -1.
</event>
<event>
11    1  0.8328696E-009  0.2052704E+03  0.7561462E-02  0.1050858E+00
         22   -1    0    0    0    0  0.00000000000E+00  0.00000000000E+00  0.22614153071E+03  0.22614153071E+03  0.00000000000E+00 0.  1.
         22   -1    0    0    0    0 -0.00000000000E+00 -0.00000000000E+00 -0.94884115518E+03  0.94884115518E+03  0.00000000000E+00 0.  1.
         24    2    1    2    0    0 -0.50145743065E+01 -0.45914730001E+02 -0.47344841828E+03  0.48244178555E+03  0.80395045195E+02 0.  0.
         25    2    1    2    0    0  0.98060831253E+02 -0.91346909653E+02 -0.40990322636E+03  0.44903089282E+03  0.12509157926E+03 0.  0.
        -24    2    1    2    0    0 -0.93046256947E+02  0.13726163965E+03  0.16065202016E+03  0.24351000752E+03  0.77393078032E+02 0.  0.
        -13    1    3    3    0    0 -0.39424272263E+02 -0.31666245253E+02 -0.19230262566E+03  0.19883994611E+03  0.00000000000E+00 0.  1.
         14    1    3    3    0    0  0.34409697957E+02 -0.14248484748E+02 -0.28114579262E+03  0.28360183945E+03  0.00000000000E+00 0. -1.
         11    1    5    5    0    0 -0.12559900353E+02  0.58444780893E+02  0.19421160271E+02  0.62854792791E+02  0.00000000000E+00 0. -1.
        -12    1    5    5    0    0 -0.80486356593E+02  0.78816858762E+02  0.14123085989E+03  0.18065521473E+03  0.00000000000E+00 0.  1.
          5    1    4    4  501    0  0.61217858402E+02 -0.26528548133E+02 -0.34077935424E+03  0.34727428746E+03  0.41800000000E+01 0.  1.
         -5    1    4    4    0  501  0.36842972852E+02 -0.64818361521E+02 -0.69123872115E+02  0.10175660536E+03  0.41800000000E+01 0.  1.
</event>
<event>
11    1  0.8328696E-009  0.1349669E+03  0.7561462E-02  0.1113313E+00
         22   -1    0    0    0    0  0.00000000000E+00  0.00000000000E+00  0.11892205859E+04  0.11892205859E+04  0.00000000000E+00 0.  1.
         22   -1    0    0    0    0 -0.00000000000E+00 -0.00000000000E+00 -0.33879782784E+03  0.33879782784E+03  0.00000000000E+00 0.  1.
        -24    2    1    2    0    0 -0.27902327858E+02 -0.41981687132E+02 -0.32013384920E+03  0.33406742870E+03  0.81082449142E+02 0.  0.
         25    2    1    2    0    0  0.44312514111E+02  0.64528629481E+02  0.67492729026E+03  0.69086974067E+03  0.12508640413E+03 0.  0.
         24    2    1    2    0    0 -0.16410186253E+02 -0.22546942349E+02  0.49562931698E+03  0.50308124436E+03  0.81637367381E+02 0.  0.
        -13    1    5    5    0    0 -0.20153579829E+02  0.28304239045E+01  0.45208490604E+03  0.45254274975E+03  0.00000000000E+00 0.  1.
         14    1    5    5    0    0  0.37433935752E+01 -0.25377366253E+02  0.43544410935E+02  0.50538494607E+02  0.00000000000E+00 0. -1.
         13    1    3    3    0    0 -0.17509755183E+02 -0.19394313388E+02 -0.19998461845E+02  0.32903941930E+02  0.00000000000E+00 0. -1.
        -14    1    3    3    0    0 -0.10392572675E+02 -0.22587373744E+02 -0.30013538736E+03  0.30116348677E+03  0.00000000000E+00 0.  1.
          5    1    4    4  501    0  0.43545828562E+02  0.69773718162E+02  0.20540763870E+03  0.22130156205E+03  0.41800000000E+01 0.  1.
         -5    1    4    4    0  501  0.76668554911E+00 -0.52450886807E+01  0.46951965157E+03  0.46956817862E+03  0.41800000000E+01 0.  1.
</event>
<event>
11    1  0.8328696E-009  0.2008427E+03  0.7561462E-02  0.1053929E+00
         22   -1    0    0    0    0  0.00000000000E+00  0.00000000000E+00  0.12546830959E+04  0.12546830959E+04  0.00000000000E+00 0.  1.
         22   -1    0    0    0    0 -0.00000000000E+00 -0.00000000000E+00 -0.37543816035E+03  0.37543816035E+03  0.00000000000E+00 0.  1.
         24    2    1    2    0    0  0.52901904657E+02 -0.13365292041E+03 -0.22486625599E+03  0.27878539409E+03  0.80590000796E+02 0.  0.
         25    2    1    2    0    0 -0.50190146906E+02  0.22522366308E+03  0.24120230285E+02  0.26358201402E+03  0.12509573672E+03 0.  0.
        -24    2    1    2    0    0 -0.27117577508E+01 -0.91570742677E+02  0.10799909613E+04  0.10877538482E+04  0.91844451145E+02 0.  0.
        -13    1    3    3    0    0  0.39802460360E+02 -0.13546332696E+03 -0.22491837197E+03  0.26556133538E+03  0.00000000000E+00 0.  1.
         14    1    3    3    0    0  0.13099444297E+02  0.18104065494E+01  0.52115979695E-01  0.13224058713E+02  0.00000000000E+00 0. -1.
         13    1    5    5    0    0  0.11778319007E+02 -0.10024750568E+03  0.68446862856E+03  0.69187108241E+03  0.00000000000E+00 0. -1.
        -14    1    5    5    0    0 -0.14490076758E+02  0.86767630029E+01  0.39552233271E+03  0.39588276574E+03  0.00000000000E+00 0.  1.
          5    1    4    4  501    0  0.27810564883E+02  0.59482089836E+02 -0.30311268762E+02  0.72441645097E+02  0.41800000000E+01 0.  1.
         -5    1    4    4    0  501 -0.78000711790E+02  0.16574157325E+03  0.54431499047E+02  0.19114036892E+03  0.41800000000E+01 0.  1.
</event>
<event>
11    1  0.8328696E-009  0.1288147E+03  0.7561462E-02  0.1120734E+00
         22   -1    0    0    0    0  0.00000000000E+00  0.00000000000E+00  0.17861234496E+04  0.17861234496E+04  0.00000000000E+00 0.  1.
         22   -1    0    0    0    0 -0.00000000000E+00 -0.00000000000E+00 -0.93547285196E+03  0.93547285196E+03  0.00000000000E+00 0. -1.
         24    2    1    2    0    0 -0.45079042786E+01 -0.21493930474E+02 -0.89197802212E+03  0.89578208646E+03  0.79488642164E+02 0.  0.
         25    2    1    2    0    0 -0.26168796319E+02  0.17578879958E+02  0.62209975596E+02  0.14322027631E+03  0.12509253999E+03 0.  0.
        -24    2    1    2    0    0  0.30676700597E+02  0.39150505160E+01  0.16804186442E+04  0.16825939388E+04  0.79744313949E+02 0.  0.
        -11    1    3    3    0    0  0.18998109030E+02 -0.12733325360E+02 -0.74781471149E+02  0.78200601971E+02  0.00000000000E+00 0.  1.
         12    1    3    3    0    0 -0.23506013309E+02 -0.87606051146E+01 -0.81719655097E+03  0.81758148449E+03  0.00000000000E+00 0. -1.
         11    1    5    5    0    0 -0.19019648431E+02  0.16089348991E+02  0.24491701969E+03  0.24618074805E+03  0.00000000000E+00 0. -1.
        -12    1    5    5    0    0  0.49696349028E+02 -0.12174298475E+02  0.14355016245E+04  0.14364131907E+04  0.00000000000E+00 0.  1.
          5    1    4    4  501    0 -0.58645778584E+02  0.45495074366E+02  0.66803139590E+02  0.99946290558E+02  0.41800000000E+01 0. -1.
         -5    1    4    4    0  501  0.32476982265E+02 -0.27916194408E+02 -0.45931639944E+01  0.43273985750E+02  0.41800000000E+01 0. -1.
</event>
<event>
11    1  0.8328696E-009  0.1463932E+03  0.7561462E-02  0.1100622E+00
         22   -1    0    0    0    0  0.00000000000E+00  0.00000000000E+00  0.20630541729E+04  0.20630541729E+04  0.00000000000E+00 0. -1.
         22   -1    0    0    0    0 -0.00000000000E+00 -0.00000000000E+00 -0.31410816322E+03  0.31410816322E+03  0.00000000000E+00 0. -1.
        -24    2    1    2    0    0 -0.33407466252E+02 -0.64521192820E+02 -0.25267270493E+03  0.27493635006E+03  0.80420505097E+02 0.  0.
         25    2    1    2    0    0  0.10258636389E+03  0.93540453166E+02  0.13037604536E+03  0.22784814376E+03  0.12507231898E+03 0.  0.
         24    2    1    2    0    0 -0.69178897639E+02 -0.29019260346E+02  0.18712426693E+04  0.18743778423E+04  0.78200582407E+02 0.  0.
        -11    1    5    5    0    0 -0.23255147150E+01 -0.14198736968E+02  0.55189516909E+02  0.57034155792E+02  0.00000000000E+00 0.  1.
         12    1    5    5    0    0 -0.66853382924E+02 -0.14820523378E+02  0.18160531524E+04  0.18173436865E+04  0.00000000000E+00 0. -1.
         13    1    3    3    0    0 -0.29146364291E+01 -0.72618058819E+02 -0.13755900022E+03  0.15557749231E+03  0.00000000000E+00 0. -1.
        -14    1    3    3    0    0 -0.30492829823E+02  0.80968659996E+01 -0.11511370471E+03  0.11935885775E+03  0.00000000000E+00 0.  1.
          5    1    4    4  501    0 -0.25584222876E+02 -0.18698004584E+01  0.27092894972E+02  0.37543920571E+02  0.41800000000E+01 0. -1.
         -5    1    4    4    0  501  0.12817058677E+03  0.95410253624E+02  0.10328315039E+03  0.19030422319E+03  0.41800000000E+01 0. -1.
</event>
<event>
11    1  0.8328696E-009  0.2179830E+03  0.7561462E-02  0.1042488E+00
         22   -1    0    0    0    0  0.00000000000E+00  0.00000000000E+00  0.87757473984E+02  0.87757473984E+02  0.00000000000E+00 0.  1.
         22   -1    0    0    0    0 -0.00000000000E+00 -0.00000000000E+00 -0.20923898390E+04  0.20923898390E+04  0.00000000000E+00 0. -1.
         24    2    1    2    0    0 -0.75753662766E+02 -0.51907472469E+02 -0.84274019527E+03  0.85156975117E+03  0.80789858662E+02 0.  0.
         25    2    1    2    0    0  0.76069764762E+02  0.22464682652E+03 -0.10951981030E+04  0.11275455209E+04  0.12508881285E+03 0.  0.
        -24    2    1    2    0    0 -0.31610199691E+00 -0.17273935405E+03 -0.66694066680E+02  0.20103204086E+03  0.78273868971E+02 0.  0.
        -13    1    3    3    0    0  0.17429766986E+02 -0.69240176476E+01 -0.11837011238E+03  0.11984666162E+03  0.00000000000E+00 0.  1.
         14    1    3    3    0    0 -0.93183429751E+02 -0.44983454822E+02 -0.72437008290E+03  0.73172308955E+03  0.00000000000E+00 0. -1.
         11    1    5    5    0    0 -0.19164853109E+02 -0.55755585277E+01  0.29470978014E+00  0.19961595663E+02  0.00000000000E+00 0. -1.
        -12    1    5    5    0    0  0.18848751112E+02 -0.16716379552E+03 -0.66988776461E+02  0.18107044519E+03  0.00000000000E+00 0.  1.
          5    1    4    4  501    0  0.10009200330E+03  0.19620617248E+03 -0.10201601828E+04  0.10436759757E+04  0.41800000000E+01 0.  1.
         -5    1    4    4    0  501 -0.24022238541E+02  0.28440654040E+02 -0.75037920233E+02  0.83869545245E+02  0.41800000000E+01 0.  1.
</event>
<event>
11    1  0.8328696E-009  0.2081680E+03  0.7561462E-02  0.1048893E+00
         22   -1    0    0    0    0  0.00000000000E+00  0.00000000000E+00  0.61670296720E+02  0.61670296720E+02  0.00000000000E+00 0. -1.
         22   -1    0    0    0    0 -0.00000000000E+00 -0.00000000000E+00 -0.30147111613E+04  0.30147111613E+04  0.00000000000E+00 0. -1.
        -24    2    1    2    0    0  0.63373357419E+02  0.15012136107E+03 -0.15214073702E+04  0.15318035134E+04  0.72034798217E+02 0.  0.
         25    2    1    2    0    0 -0.33394786010E+02 -0.17055412613E+03 -0.14400177743E+04  0.14558516868E+04  0.12509605116E+03 0.  0.
         24    2    1    2    0    0 -0.29978571408E+02  0.20432765065E+02  0.83842798975E+01  0.88726257809E+02  0.80534713283E+02 0.  0.
        -13    1    5    5    0    0 -0.30976267236E+02 -0.21747013290E+02 -0.14735721149E+02  0.40615307419E+02  0.00000000000E+00 0.  1.
         14    1    5    5    0    0  0.99769582737E+00  0.42179778355E+02  0.23120001047E+02  0.48110950391E+02  0.00000000000E+00 0. -1.
         13    1    3    3    0    0  0.75876193269E+02  0.14015760989E+03 -0.14435549496E+04  0.14523264938E+04  0.00000000000E+00 0. -1.
        -14    1    3    3    0    0 -0.12502835851E+02  0.99637511818E+01 -0.77852420628E+02  0.79477019569E+02  0.00000000000E+00 0.  1.
          5    1    4    4  501    0 -0.60966988358E+02 -0.17181226314E+03 -0.13252614263E+04  0.13377487611E+04  0.41800000000E+01 0.  1.
         -5    1    4    4    0  501  0.27572202348E+02  0.12581370047E+01 -0.11475634806E+03  0.11810292575E+03  0.41800000000E+01 0.  1.
</event>
<event>
11    1  0.8328696E-009  0.1695724E+03  0.7561462E-02  0.1078404E+00
         22   -1    0    0    0    0  0.00000000000E+00  0.00000000000E+00  0.39017611134E+03  0.39017611134E+03  0.00000000000E+00 0. -1.
         22   -1    0    0    0    0 -0.00000000000E+00 -0.00000000000E+00 -0.10276197273E+04  0.10276197273E+04  0.00000000000E+00 0.  1.
         24    2    1    2    0    0  0.81815271601E+02 -0.80465683786E+02 -0.96080707258E+03  0.97163223411E+03  0.88036939454E+02 0.  0.
         25    2    1    2    0    0 -0.47963124458E+02  0.10427581123E+03  0.81988898039E+02  0.18853535328E+03  0.12509793730E+03 0.  0.
        -24    2    1    2    0    0 -0.33852147143E+02 -0.23810127447E+02  0.24137455860E+03  0.25762825123E+03  0.79985925364E+02 0.  0.
        -11    1    3    3    0    0 -0.15775062762E+01 -0.48845374394E+02 -0.21349274439E+03  0.21901486487E+03  0.00000000000E+00 0.  1.
         12    1    3    3    0    0  0.83392777878E+02 -0.31620309392E+02 -0.74731432819E+03  0.75261736924E+03  0.00000000000E+00 0. -1.
         11    1    5    5    0    0 -0.47958156727E+02  0.62381702017E+01  0.19295045442E+03  0.19891902228E+03  0.00000000000E+00 0. -1.
        -12    1    5    5    0    0  0.14106009584E+02 -0.30048297649E+02  0.48424104178E+02  0.58709228946E+02  0.00000000000E+00 0.  1.
          5    1    4    4  501    0 -0.40108556503E+02  0.10460737007E+03  0.62608337901E+01  0.11228565633E+03  0.41800000000E+01 0. -1.
         -5    1    4    4    0  501 -0.78545679556E+01 -0.33155883957E+00  0.75728064249E+02  0.76249696943E+02  0.41800000000E+01 0. -1.
</event>
<event>
11    1  0.8328696E-009  0.1414177E+03  0.7561462E-02  0.1105986E+00
         22   -1    0    0    0    0  0.00000000000E+00  0.00000000000E+00  0.58698253520E+03  0.58698253520E+03  0.00000000000E+00 0.  1.
         22   -1    0    0    0    0 -0.00000000000E+00 -0.00000000000E+00 -0.94444996382E+03  0.94444996382E+03  0.00000000000E+00 0.  1.
        -24    2    1    2    0    0  0.40871332244E+02  0.14950488629E+00 -0.86169298827E+03  0.86698639546E+03  0.86487662278E+02 0.  0.
         25    2    1    2    0    0  0.26619774958E+02  0.11251694191E+02 -0.20391224095E+02  0.12999087791E+03  0.12508642324E+03 0.  0.
         24    2    1    2    0    0 -0.67491107202E+02 -0.11401199077E+02  0.52461678374E+03  0.53445522566E+03  0.75727019998E+02 0.  0.
        -11    1    5    5    0    0 -0.26980616672E+02 -0.30875309450E+02  0.39781634330E+03  0.39992384451E+03  0.00000000000E+00 0.  1.
         12    1    5    5    0    0 -0.40510490530E+02  0.19474110373E+02  0.12680044044E+03  0.13453138115E+03  0.00000000000E+00 0. -1.
         13    1    3    3    0    0 -0.15455943524E+02 -0.18405903121E+02 -0.94639158073E+02  0.97643400702E+02  0.00000000000E+00 0. -1.
        -14    1    3    3    0    0  0.56327275768E+02  0.18555408007E+02 -0.76705383020E+03  0.76934299476E+03  0.00000000000E+00 0.  1.
          5    1    4    4  501    0 -0.45256713431E+01 -0.12584193214E+02 -0.67277557868E+02  0.68721072552E+02  0.41800000000E+01 0.  1.
         -5    1    4    4    0  501  0.31145446301E+02  0.23835887404E+02  0.46886333773E+02  0.61269805356E+02  0.41800000000E+01 0.  1.
</event>
<event>
11    1  0.8328696E-009  0.1488607E+03  0.7561462E-02  0.1098049E+00
         22   -1    0    0    0    0  0.00000000000E+00  0.00000000000E+00  0.39731446026E+03  0.39731446026E+03  0.00000000000E+00 0.  1.
         22   -1    0    0    0    0 -0.00000000000E+00 -0.00000000000E+00 -0.48938157488E+03  0.48938157488E+03  0.00000000000E+00 0.  1.
        -24    2    1    2    0    0 -0.39270454902E+01  0.30452788428E+02 -0.40343818897E+03  0.41485259150E+03  0.91637908874E+02 0.  0.
         25    2    1    2    0    0 -0.71343529423E+02 -0.56803463456E+02  0.16633085418E+02  0.15569408264E+03  0.12508978850E+03 0.  0.
         24    2    1    2    0    0  0.75270574913E+02  0.26350675029E+02  0.29473798894E+03  0.31614936099E+03  0.81975110923E+02 0.  0.
        -11    1    5    5    0    0  0.72917560997E+02  0.14456933982E+02  0.29479687867E+03  0.30402495509E+03  0.00000000000E+00 0.  1.
         12    1    5    5    0    0  0.23530139168E+01  0.11893741047E+02 -0.58889731523E-01  0.12124405907E+02  0.00000000000E+00 0. -1.
         13    1    3    3    0    0 -0.45984292381E+02  0.16355488339E+02 -0.15555390824E+03  0.16303090355E+03  0.00000000000E+00 0. -1.
        -14    1    3    3    0    0  0.42057246890E+02  0.14097300088E+02 -0.24788428073E+03  0.25182168795E+03  0.00000000000E+00 0.  1.
          5    1    4    4  501    0 -0.93254203725E+02 -0.26801949982E+01  0.24709560894E+02  0.96600024623E+02  0.41800000000E+01 0.  1.
         -5    1    4    4    0  501  0.21910674302E+02 -0.54123268458E+02 -0.80764754757E+01  0.59094058018E+02  0.41800000000E+01 0.  1.
</event>
<event>
11    1  0.8328696E-009  0.1967572E+03  0.7561462E-02  0.1056841E+00
         22   -1    0    0    0    0  0.00000000000E+00  0.00000000000E+00  0.13018851737E+04  0.13018851737E+04  0.00000000000E+00 0. -1.
         22   -1    0    0    0    0 -0.00000000000E+00 -0.00000000000E+00 -0.83238784392E+03  0.83238784392E+03  0.00000000000E+00 0. -1.
         24    2    1    2    0    0  0.16386158975E+02 -0.51981337202E+02 -0.73302569709E+03  0.73879233157E+03  0.74275641770E+02 0.  0.
         25    2    1    2    0    0 -0.51211888810E+02  0.19618751147E+03  0.67024099398E+02  0.24749334675E+03  0.12509408289E+03 0.  0.
        -24    2    1    2    0    0  0.34825729836E+02 -0.14420617427E+03  0.11354989274E+04  0.11479873393E+04  0.80677535598E+02 0.  0.
        -11    1    3    3    0    0 -0.19538468401E+02 -0.11626159642E+01 -0.65237997709E+02  0.68110937215E+02  0.00000000000E+00 0.  1.
         12    1    3    3    0    0  0.35924627376E+02 -0.50818721238E+02 -0.66778769938E+03  0.67068139435E+03  0.00000000000E+00 0. -1.
         13    1    5    5    0    0  0.37447229433E+02 -0.80189155499E+02  0.88539093628E+03  0.88980318369E+03  0.00000000000E+00 0. -1.
        -14    1    5    5    0    0 -0.26214995970E+01 -0.64017018767E+02  0.25010799116E+03  0.25818415559E+03  0.00000000000E+00 0.  1.
          5    1    4    4  501    0 -0.65898834137E+02  0.65657372640E+02  0.69264000142E+02  0.11605395744E+03  0.41800000000E+01 0. -1.
         -5    1    4    4    0  501  0.14686945326E+02  0.13053013883E+03 -0.22399007441E+01  0.13143938930E+03  0.41800000000E+01 0. -1.
</event>
<event>
11    1  0.8328696E-009  0.1534577E+03  0.7561462E-02  0.1093397E+00
         22   -1    0    0    0    0  0.00000000000E+00  0.00000000000E+00  0.67648551006E+03  0.67648551006E+03  0.00000000000E+00 0. -1.
         22   -1    0    0    0    0 -0.00000000000E+00 -0.00000000000E+00 -0.86190212309E+02  0.86190212309E+02  0.00000000000E+00 0. -1.
        -24    2    1    2    0    0 -0.80414320066E+02 -0.15265269208E+02  0.94091975967E+02  0.14834838898E+03  0.80339611992E+02 0.  0.
         25    2    1    2    0    0  0.95141525423E+02 -0.46220945402E+02  0.72470954557E+02  0.17912656757E+03  0.12508398099E+03 0.  0.
         24    2    1    2    0    0 -0.14727205356E+02  0.61486214610E+02  0.42373236723E+03  0.43520076582E+03  0.76505832290E+02 0.  0.
        -11    1    5    5    0    0  0.51717416604E+01  0.62814772516E+02  0.18117644648E+03  0.19182634677E+03  0.00000000000E+00 0.  1.
         12    1    5    5    0    0 -0.19898947017E+02 -0.13285579059E+01  0.24255592075E+03  0.24337441905E+03  0.00000000000E+00 0. -1.
         13    1    3    3    0    0 -0.67988126563E+02  0.23922533873E+02  0.71115573282E+02  0.10125264314E+03  0.00000000000E+00 0. -1.
        -14    1    3    3    0    0 -0.12426193504E+02 -0.39187803081E+02  0.22976402685E+02  0.47095745834E+02  0.00000000000E+00 0.  1.
          5    1    4    4  501    0  0.11669379995E+03 -0.21966683224E+02  0.82798341886E+02  0.14482063367E+03  0.41800000000E+01 0. -1.
         -5    1    4    4    0  501 -0.21552274527E+02 -0.24254262178E+02 -0.10327387330E+02  0.34305933891E+02  0.41800000000E+01 0. -1.
</event>
<event>
11    1  0.8328696E-009  0.1254087E+03  0.7561462E-02  0.1125042E+00
         22   -1    0    0    0    0  0.00000000000E+00  0.00000000000E+00  0.47325179905E+02  0.47325179905E+02  0.00000000000E+00 0. -1.
         22   -1    0    0    0    0 -0.00000000000E+00 -0.00000000000E+00 -0.13408746421E+04  0.13408746421E+04  0.00000000000E+00 0.  1.
         24    2    1    2    0    0 -0.88406323129E+01  0.48123156440E+01 -0.91062314752E+03  0.91429456234E+03  0.81232473665E+02 0.  0.
         25    2    1    2    0    0  0.26653587675E+01 -0.65991411243E+01 -0.38234032244E+03  0.40233579164E+03  0.12505724399E+03 0.  0.
        -24    2    1    2    0    0  0.61752735454E+01  0.17868254802E+01 -0.58599222477E+00  0.71569468002E+02  0.71277756800E+02 0.  0.
        -11    1    3    3    0    0  0.45163818157E+01 -0.35444649384E+02 -0.55538705448E+03  0.55653526497E+03  0.00000000000E+00 0.  1.
         12    1    3    3    0    0 -0.13357014129E+02  0.40256965028E+02 -0.35523609304E+03  0.35775929737E+03  0.00000000000E+00 0. -1.
         11    1    5    5    0    0 -0.21258029519E+02  0.88576625978E+01  0.24575088924E+02  0.33679326023E+02  0.00000000000E+00 0. -1.
        -12    1    5    5    0    0  0.27433303065E+02 -0.70708371176E+01 -0.25161081149E+02  0.37890141979E+02  0.00000000000E+00 0.  1.
          5    1    4    4  501    0  0.50936587629E+02  0.31727866099E+02 -0.14271282424E+03  0.15487290289E+03  0.41800000000E+01 0. -1.
         -5    1    4    4    0  501 -0.48271228861E+02 -0.38327007223E+02 -0.23962749820E+03  0.24746288875E+03  0.41800000000E+01 0. -1.
</event>
<event>
11    1  0.8328696E-009  0.1502713E+03  0.7561462E-02  0.1096602E+00
         22   -1    0    0    0    0  0.00000000000E+00  0.00000000000E+00  0.40051848655E+03  0.40051848655E+03  0.00000000000E+00 0. -1.
         22   -1    0    0    0    0 -0.00000000000E+00 -0.00000000000E+00 -0.65159842667E+03  0.65159842667E+03  0.00000000000E+00 0.  1.
        -24    2    1    2    0    0  0.41039309806E+01 -0.25568866577E+02 -0.54602298154E+03  0.55264503943E+03  0.81270130150E+02 0.  0.
         25    2    1    2    0    0 -0.33072028496E+02 -0.54865453869E+02 -0.38620277368E+02  0.14575169161E+03  0.12509217676E+03 0.  0.
         24    2    1    2    0    0  0.28968097516E+02  0.80434320446E+02  0.33356331878E+03  0.35372018217E+03  0.80899005299E+02 0.  0.
        -13    1    5    5    0    0 -0.17671347875E+02  0.59111669789E+02  0.13154940899E+03  0.14529870284E+03  0.00000000000E+00 0.  1.
         14    1    5    5    0    0  0.46639445391E+02  0.21322650657E+02  0.20201390979E+03  0.20842147933E+03  0.00000000000E+00 0. -1.
         13    1    3    3    0    0 -0.31423622129E+02 -0.38564911753E+01 -0.10521474925E+03  0.10987474693E+03  0.00000000000E+00 0. -1.
        -14    1    3    3    0    0  0.35527553110E+02 -0.21712375402E+02 -0.44080823228E+03  0.44277029250E+03  0.00000000000E+00 0.  1.
          5    1    4    4  501    0 -0.34616241890E+02 -0.87263336091E+02  0.15101363420E+01  0.93983652515E+02  0.41800000000E+01 0. -1.
         -5    1    4    4    0  501  0.15442133940E+01  0.32397882222E+02 -0.40130413711E+02  0.51768039098E+02  0.41800000000E+01 0. -1.
</event>
<event>
11    1  0.8328696E-009  0.1430601E+03  0.7561462E-02  0.1104189E+00
         22   -1    0    0    0    0  0.00000000000E+00  0.00000000000E+00  0.17537061400E+04  0.17537061400E+04  0.00000000000E+00 0. -1.
         22   -1    0    0    0    0 -0.00000000000E+00 -0.00000000000E+00 -0.64614248393E+03  0.64614248393E+03  0.00000000000E+00 0. -1.
         24    2    1    2    0    0  0.53598943085E+01  0.73003295144E+02 -0.39937187318E+03  0.41398848332E+03  0.80810653135E+02 0.  0.
         25    2    1    2    0    0 -0.66915502112E+02 -0.45564043316E+02 -0.21441807887E+03  0.26110639092E+03  0.12509064060E+03 0.  0.
        -24    2    1    2    0    0  0.61555607803E+02 -0.27439251828E+02  0.17213536081E+04  0.17247537497E+04  0.84706832557E+02 0.  0.
        -13    1    3    3    0    0 -0.17560434359E+02 -0.84083772572E+01 -0.36256311511E+02  0.41153247592E+02  0.00000000000E+00 0.  1.
         14    1    3    3    0    0  0.22920328668E+02  0.81411672401E+02 -0.36311556167E+03  0.37283523573E+03  0.00000000000E+00 0. -1.
         13    1    5    5    0    0  0.57725089977E+02  0.18570377015E+02  0.11130800622E+04  0.11147305817E+04  0.00000000000E+00 0. -1.
        -14    1    5    5    0    0  0.38305178260E+01 -0.46009628843E+02  0.60827354596E+03  0.61002316802E+03  0.00000000000E+00 0.  1.
          5    1    4    4  501    0  0.15145928560E+01 -0.14903554182E+02  0.13834969539E+02  0.20815587931E+02  0.41800000000E+01 0.  1.
         -5    1    4    4    0  501 -0.68430094968E+02 -0.30660489134E+02 -0.22825304841E+03  0.24029080298E+03  0.41800000000E+01 0.  1.
</event>
<event>
11    1  0.8328696E-009  0.1776783E+03  0.7561462E-02  0.1071536E+00
         22   -1    0    0    0    0  0.00000000000E+00  0.00000000000E+00  0.14254898756E+03  0.14254898756E+03  0.00000000000E+00 0.  1.
         22   -1    0    0    0    0 -0.00000000000E+00 -0.00000000000E+00 -0.29828834071E+04  0.29828834071E+04  0.00000000000E+00 0.  1.
         24    2    1    2    0    0 -0.56236136031E+02 -0.10247723936E+03 -0.17473144473E+04  0.17531028360E+04  0.81226154488E+02 0.  0.
         25    2    1    2    0    0  0.11304761787E+03  0.10995447318E+03 -0.12055531253E+04  0.12222420728E+04  0.12509035306E+03 0.  0.
        -24    2    1    2    0    0 -0.56811481838E+02 -0.74772338169E+01  0.11253315309E+03  0.15008748590E+03  0.81111586018E+02 0.  0.
        -13    1    3    3    0    0 -0.18895489235E+02 -0.20591198891E+01 -0.71324632784E+03  0.71349954707E+03  0.00000000000E+00 0.  1.
         14    1    3    3    0    0 -0.37340646796E+02 -0.10041811947E+03 -0.10340681195E+04  0.10396032889E+04  0.00000000000E+00 0. -1.
         13    1    5    5    0    0 -0.23412332398E+02  0.11901175855E+02 -0.46804599626E+01  0.26677368696E+02  0.00000000000E+00 0. -1.
        -14    1    5    5    0    0 -0.33399149439E+02 -0.19378409672E+02  0.11721361305E+03  0.12341011720E+03  0.00000000000E+00 0.  1.
          5    1    4    4  501    0  0.13714856060E+03  0.69048910493E+02 -0.91241037126E+03  0.92525004063E+03  0.41800000000E+01 0. -1.
         -5    1    4    4    0  501 -0.24100942733E+02  0.40905562682E+02 -0.29314275404E+03  0.29699203212E+03  0.41800000000E+01 0. -1.
</event>
<event>
11    1  0.8328696E-009  0.1521761E+03  0.7561462E-02  0.1094676E+00
         22   -1    0    0    0    0  0.00000000000E+00  0.00000000000E+00  0.11234185050E+03  0.11234185050E+03  0.00000000000E+00 0.  1.
         22   -1    0    0    0    0 -0.00000000000E+00 -0.00000000000E+00 -0.12385478912E+04  0.12385478912E+04  0.00000000000E+00 0. -1.
        -24    2    1    2    0    0  0.88180540021E+01  0.58127186413E+01 -0.10485640020E+04  0.10516090273E+04  0.79268747035E+02 0.  0.
         25    2    1    2    0    0  0.62676167504E+02  0.47984960588E+02 -0.98719738645E+02  0.17782800198E+03  0.12508538314E+03 0.  0.
         24    2    1    2    0    0 -0.71494221506E+02 -0.53797679230E+02  0.21077699925E+02  0.12145271244E+03  0.79378069543E+02 0.  0.
        -11    1    5    5    0    0 -0.78240455651E+02 -0.54785438379E+02  0.38317383048E+02  0.10291372602E+03  0.00000000000E+00 0.  1.
         12    1    5    5    0    0  0.67462341443E+01  0.98775914889E+00 -0.17239683123E+02  0.18538986419E+02  0.00000000000E+00 0. -1.
         13    1    3    3    0    0 -0.53777730944E+01 -0.20541938668E+02 -0.88946223602E+03  0.88971566300E+03  0.00000000000E+00 0. -1.
        -14    1    3    3    0    0  0.14195827096E+02  0.26354657309E+02 -0.15910176599E+03  0.16189336432E+03  0.00000000000E+00 0.  1.
          5    1    4    4  501    0 -0.24387851011E+02  0.47551283522E+02 -0.12120049347E+02  0.54956890721E+02  0.41800000000E+01 0. -1.
         -5    1    4    4    0  501  0.87064018516E+02  0.43367706659E+00 -0.86599689299E+02  0.12287111126E+03  0.41800000000E+01 0. -1.
</event>
<event>
11    1  0.8328696E-009  0.1652302E+03  0.7561462E-02  0.1082259E+00
         22   -1    0    0    0    0  0.00000000000E+00  0.00000000000E+00  0.16265672892E+03  0.16265672892E+03  0.00000000000E+00 0. -1.
         22   -1    0    0    0    0 -0.00000000000E+00 -0.00000000000E+00 -0.21193532158E+04  0.21193532158E+04  0.00000000000E+00 0. -1.
         24    2    1    2    0    0 -0.97223315371E+02 -0.40937308888E+02 -0.18853180612E+04  0.18899536487E+04  0.79827101717E+02 0.  0.
         25    2    1    2    0    0  0.14841904048E+03  0.59162421853E+02 -0.16248074084E+03  0.25995270002E+03  0.12508801447E+03 0.  0.
        -24    2    1    2    0    0 -0.51195725113E+02 -0.18225112965E+02  0.91102315126E+02  0.13210359601E+03  0.78731005621E+02 0.  0.
        -13    1    3    3    0    0 -0.40894595273E+02  0.14826510443E+02 -0.10452016710E+04  0.10461064604E+04  0.00000000000E+00 0.  1.
         14    1    3    3    0    0 -0.56328720098E+02 -0.55763819331E+02 -0.84011639014E+03  0.84384718832E+03  0.00000000000E+00 0. -1.
         13    1    5    5    0    0 -0.41024752990E+02 -0.62483064071E+01  0.10387298420E+03  0.11185556999E+03  0.00000000000E+00 0. -1.
        -14    1    5    5    0    0 -0.10170972123E+02 -0.11976806558E+02 -0.12770669075E+02  0.20248026024E+02  0.00000000000E+00 0.  1.
          5    1    4    4  501    0  0.16274754572E+03  0.66550804745E+02 -0.16717076240E+03  0.24265059129E+03  0.41800000000E+01 0. -1.
         -5    1    4    4    0  501 -0.14328505238E+02 -0.73883828918E+01  0.46900215614E+01  0.17302108726E+02  0.41800000000E+01 0. -1.
</event>
<event>
11    1  0.8328696E-009  0.1999905E+03  0.7561462E-02  0.1054530E+00
         22   -1    0    0    0    0  0.00000000000E+00  0.00000000000E+00  0.10741683267E+04  0.10741683267E+04  0.00000000000E+00 0. -1.
         22   -1    0    0    0    0 -0.00000000000E+00 -0.00000000000E+00 -0.40840270891E+03  0.40840270891E+03  0.00000000000E+00 0. -1.
        -24    2    1    2    0    0 -0.66645621440E+02  0.13831822633E+03 -0.30943764918E+03  0.35622439541E+03  0.87009140697E+02 0.  0.
         25    2    1    2    0    0  0.13024584392E+03 -0.12892032389E+03  0.96527872225E+02  0.24197106413E+03  0.12509171032E+03 0.  0.
         24    2    1    2    0    0 -0.63600222475E+02 -0.93979024370E+01  0.87867539475E+03  0.88437557607E+03  0.76918147063E+02 0.  0.
        -13    1    5    5    0    0  0.12490623978E+02  0.78242199312E+01  0.52646719785E+02  0.54670935688E+02  0.00000000000E+00 0.  1.
         14    1    5    5    0    0 -0.76090846454E+02 -0.17222122368E+02  0.82602867496E+03  0.82970464038E+03  0.00000000000E+00 0. -1.
         11    1    3    3    0    0 -0.74018637730E+02  0.86640531004E+02 -0.26191918739E+03  0.28563438355E+03  0.00000000000E+00 0. -1.
        -12    1    3    3    0    0  0.73730162908E+01  0.51677695325E+02 -0.47518461783E+02  0.70590011854E+02  0.00000000000E+00 0.  1.
          5    1    4    4  501    0  0.80735307122E+02 -0.56174742089E+02 -0.15284809511E+02  0.99623738469E+02  0.41800000000E+01 0.  1.
         -5    1    4    4    0  501  0.49510536793E+02 -0.72745581803E+02  0.11181268174E+03  0.14234732566E+03  0.41800000000E+01 0.  1.
</event>
<event>
11    1  0.8328696E-009  0.2760303E+03  0.7561462E-02  0.1010879E+00
         22   -1    0    0    0    0  0.00000000000E+00  0.00000000000E+00  0.10099068037E+04  0.10099068037E+04  0.00000000000E+00 0.  1.
         22   -1    0    0    0    0 -0.00000000000E+00 -0.00000000000E+00 -0.18750711028E+03  0.18750711028E+03  0.00000000000E+00 0.  1.
         24    2    1    2    0    0  0.34120742938E+01 -0.13477050827E+02 -0.56252202032E+02  0.10127287223E+03  0.83057879014E+02 0.  0.
         25    2    1    2    0    0 -0.21855636024E+03  0.12893447659E+03  0.14333957144E+03  0.31715110881E+03  0.12509041221E+03 0.  0.
        -24    2    1    2    0    0  0.21514428594E+03 -0.11545742576E+03  0.73531232399E+03  0.77898993292E+03  0.80768934888E+02 0.  0.
        -11    1    3    3    0    0 -0.17022616051E+02 -0.34985954036E+02 -0.14253203204E+01  0.38933507099E+02  0.00000000000E+00 0.  1.
         12    1    3    3    0    0  0.20434690345E+02  0.21508903209E+02 -0.54826881711E+02  0.62339365131E+02  0.00000000000E+00 0. -1.
         13    1    5    5    0    0  0.71265931704E+02 -0.60951229454E+02  0.38718208315E+03  0.39837651902E+03  0.00000000000E+00 0. -1.
        -14    1    5    5    0    0  0.14387835424E+03 -0.54506196307E+02  0.34813024084E+03  0.38061341391E+03  0.00000000000E+00 0.  1.
          5    1    4    4  501    0 -0.20983584378E+03  0.14415583672E+03  0.15263609568E+03  0.29686231943E+03  0.41800000000E+01 0. -1.
         -5    1    4    4    0  501 -0.87205164600E+01 -0.15221360129E+02 -0.92965242451E+01  0.20288789381E+02  0.41800000000E+01 0. -1.
</event>
<event>
11    1  0.8328696E-009  0.1315192E+03  0.7561462E-02  0.1117416E+00
         22   -1    0    0    0    0  0.00000000000E+00  0.00000000000E+00  0.16163276688E+03  0.16163276688E+03  0.00000000000E+00 0.  1.
         22   -1    0    0    0    0 -0.00000000000E+00 -0.00000000000E+00 -0.52271204109E+03  0.52271204109E+03  0.00000000000E+00 0. -1.
         24    2    1    2    0    0  0.33283897037E+02  0.16805455989E+02 -0.43047630271E+03  0.43895154388E+03  0.77319916799E+02 0.  0.
         25    2    1    2    0    0 -0.36917031584E+02  0.26250274471E+02  0.21844948517E+01  0.13305883572E+03  0.12509171681E+03 0.  0.
        -24    2    1    2    0    0  0.36331345475E+01 -0.43055730459E+02  0.67212533647E+02  0.11233442837E+03  0.78958872372E+02 0.  0.
        -11    1    3    3    0    0  0.86625320444E+01  0.22595222411E+02 -0.34346391866E+02  0.42014975562E+02  0.00000000000E+00 0.  1.
         12    1    3    3    0    0  0.24621364992E+02 -0.57897664226E+01 -0.39612991084E+03  0.39693656832E+03  0.00000000000E+00 0. -1.
         11    1    5    5    0    0 -0.99139721739E+01  0.36657163767E+00 -0.15229940671E+02  0.18176146783E+02  0.00000000000E+00 0. -1.
        -12    1    5    5    0    0  0.13547106721E+02 -0.43422302097E+02  0.82442474318E+02  0.94158281588E+02  0.00000000000E+00 0.  1.
          5    1    4    4  501    0 -0.37858951534E+02  0.35496764055E+02  0.57060608514E+02  0.77244455553E+02  0.41800000000E+01 0.  1.
         -5    1    4    4    0  501  0.94191994961E+00 -0.92464895848E+01 -0.54876113662E+02  0.55814380168E+02  0.41800000000E+01 0.  1.
</event>
<event>
11    1  0.8328696E-009  0.1533452E+03  0.7561462E-02  0.1093509E+00
         22   -1    0    0    0    0  0.00000000000E+00  0.00000000000E+00  0.45257440448E+03  0.45257440448E+03  0.00000000000E+00 0. -1.
         22   -1    0    0    0    0 -0.00000000000E+00 -0.00000000000E+00 -0.52959522380E+03  0.52959522380E+03  0.00000000000E+00 0. -1.
        -24    2    1    2    0    0 -0.65602970783E+02 -0.66389394911E+02 -0.41012955828E+03  0.42878832909E+03  0.83317915583E+02 0.  0.
         25    2    1    2    0    0  0.71438661634E+02  0.16963627288E+02 -0.54033619481E+02  0.15478906032E+03  0.12509506039E+03 0.  0.
         24    2    1    2    0    0 -0.58356908505E+01  0.49425767623E+02  0.38714235844E+03  0.39859223886E+03  0.80744073417E+02 0.  0.
        -11    1    5    5    0    0 -0.11641756911E+01 -0.90347343653E+01  0.24198534267E+01  0.94253605076E+01  0.00000000000E+00 0.  1.
         12    1    5    5    0    0 -0.46715151594E+01  0.58460501988E+02  0.38472250501E+03  0.38916687835E+03  0.00000000000E+00 0. -1.
         11    1    3    3    0    0 -0.62369995703E+02 -0.68175460437E+02 -0.21991985658E+03  0.23854276993E+03  0.00000000000E+00 0. -1.
        -12    1    3    3    0    0 -0.32329750805E+01  0.17860655259E+01 -0.19020970170E+03  0.19024555915E+03  0.00000000000E+00 0.  1.
          5    1    4    4  501    0  0.86857884012E+02  0.43027489858E+01 -0.82388645059E+02  0.11986728869E+03  0.41800000000E+01 0.  1.
         -5    1    4    4    0  501 -0.15419222379E+02  0.12660878303E+02  0.28355025578E+02  0.34921771629E+02  0.41800000000E+01 0.  1.
</event>
<event>
11    1  0.8328696E-009  0.1349041E+03  0.7561462E-02  0.1113386E+00
         22   -1    0    0    0    0  0.00000000000E+00  0.00000000000E+00  0.15873690718E+04  0.15873690718E+04  0.00000000000E+00 0.  1.
         22   -1    0    0    0    0 -0.00000000000E+00 -0.00000000000E+00 -0.52309422996E+03  0.52309422996E+03  0.00000000000E+00 0.  1.
         24    2    1    2    0    0 -0.54878974199E+02  0.81211852760E+00 -0.38635467032E+03  0.39772089276E+03  0.76808957252E+02 0.  0.
         25    2    1    2    0    0  0.41401658748E+01  0.56580888592E+01 -0.99261970184E+02  0.15983939116E+03  0.12508611953E+03 0.  0.
        -24    2    1    2    0    0  0.50738808324E+02 -0.64702073868E+01  0.15498914824E+04  0.15529030179E+04  0.82023688859E+02 0.  0.
        -11    1    3    3    0    0 -0.43086927397E+02 -0.33068210849E+02 -0.28685656121E+03  0.29195320959E+03  0.00000000000E+00 0.  1.
         12    1    3    3    0    0 -0.11792046802E+02  0.33880329377E+02 -0.99498109109E+02  0.10576768317E+03  0.00000000000E+00 0. -1.
         11    1    5    5    0    0 -0.12715425981E+02 -0.18624220212E+02  0.16860681813E+03  0.17010820896E+03  0.00000000000E+00 0. -1.
        -12    1    5    5    0    0  0.63454234305E+02  0.12154012825E+02  0.13812846643E+04  0.13827948089E+04  0.00000000000E+00 0.  1.
          5    1    4    4  501    0 -0.45506442902E+02 -0.25667743910E+02 -0.10681383630E+02  0.53490501767E+02  0.41800000000E+01 0.  1.
         -5    1    4    4    0  501  0.49646608777E+02  0.31325832769E+02 -0.88580586554E+02  0.10634888940E+03  0.41800000000E+01 0.  1.
</event>
<event>
11    1  0.8328696E-009  0.1975236E+03  0.7561462E-02  0.1056289E+00
         22   -1    0    0    0    0  0.00000000000E+00  0.00000000000E+00  0.28952959726E+03  0.28952959726E+03  0.00000000000E+00 0. -1.
         22   -1    0    0    0    0 -0.00000000000E+00 -0.00000000000E+00 -0.30482453113E+03  0.30482453113E+03  0.00000000000E+00 0. -1.
         24    2    1    2    0    0 -0.14042308687E+02  0.12692140469E+03 -0.11312862453E+03  0.18623381512E+03  0.74690821432E+02 0.  0.
         25    2    1    2    0    0 -0.14589180488E+03 -0.71087677186E+02  0.78106030713E+02  0.21928650186E+03  0.12509253089E+03 0.  0.
        -24    2    1    2    0    0  0.15993411356E+03 -0.55833727499E+02  0.19727659952E+02  0.18883381141E+03  0.81072202118E+02 0.  0.
        -11    1    3    3    0    0  0.42378348957E+01  0.33278474399E+02 -0.77392216207E+02  0.84350288869E+02  0.00000000000E+00 0.  1.
         12    1    3    3    0    0 -0.18280143583E+02  0.93642930286E+02 -0.35736408326E+02  0.10188352625E+03  0.00000000000E+00 0. -1.
         11    1    5    5    0    0  0.11825908679E+03 -0.68814151323E+02 -0.81090715635E+01  0.13706332869E+03  0.00000000000E+00 0. -1.
        -12    1    5    5    0    0  0.41675026777E+02  0.12980423824E+02  0.27836731515E+02  0.51770482719E+02  0.00000000000E+00 0.  1.
          5    1    4    4  501    0  0.56757851398E+01 -0.38506123558E+02  0.46902624909E+02  0.61092263928E+02  0.41800000000E+01 0.  1.
         -5    1    4    4    0  501 -0.15156759002E+03 -0.32581553628E+02  0.31203405803E+02  0.15819423793E+03  0.41800000000E+01 0.  1.
</event>
<event>
11    1  0.8328696E-009  0.1556653E+03  0.7561462E-02  0.1091227E+00
         22   -1    0    0    0    0  0.00000000000E+00  0.00000000000E+00  0.86636279177E+03  0.86636279177E+03  0.00000000000E+00 0. -1.
         22   -1    0    0    0    0 -0.00000000000E+00 -0.00000000000E+00 -0.92319413459E+03  0.92319413459E+03  0.00000000000E+00 0.  1.
        -24    2    1    2    0    0  0.43495712633E+01 -0.92007779319E+02 -0.88470225523E+03  0.89384148532E+03  0.88148569207E+02 0.  0.
         25    2    1    2    0    0  0.64807345139E+02  0.13874432239E+03  0.34053110901E+03  0.39377576937E+03  0.12509173177E+03 0.  0.
         24    2    1    2    0    0 -0.69156916402E+02 -0.46736543073E+02  0.48733980339E+03  0.50193967167E+03  0.86465984531E+02 0.  0.
        -13    1    5    5    0    0 -0.47436419549E+02 -0.56181633071E+02  0.19115321449E+03  0.20480757116E+03  0.00000000000E+00 0.  1.
         14    1    5    5    0    0 -0.21720496853E+02  0.94450899979E+01  0.29618658890E+03  0.29713210051E+03  0.00000000000E+00 0. -1.
         13    1    3    3    0    0 -0.38032173292E+01 -0.32911541009E+02 -0.75574202075E+02  0.82517234641E+02  0.00000000000E+00 0. -1.
        -14    1    3    3    0    0  0.81527885925E+01 -0.59096238311E+02 -0.80912805315E+03  0.81132425068E+03  0.00000000000E+00 0.  1.
          5    1    4    4  501    0  0.20936976705E+02  0.71784266342E+02  0.28884614361E+03  0.29839722681E+03  0.41800000000E+01 0. -1.
         -5    1    4    4    0  501  0.43870368433E+02  0.66960056051E+02  0.51684965404E+02  0.95378542564E+02  0.41800000000E+01 0. -1.
</event>
<event>
11    1  0.8328696E-009  0.2415877E+03  0.7561462E-02  0.1028478E+00
         22   -1    0    0    0    0  0.00000000000E+00  0.00000000000E+00  0.41712651185E+03  0.41712651185E+03  0.00000000000E+00 0.  1.
         22   -1    0    0    0    0 -0.00000000000E+00 -0.00000000000E+00 -0.61856848331E+03  0.61856848331E+03  0.00000000000E+00 0. -1.
         24    2    1    2    0    0  0.17359088791E+03 -0.11361481483E+03 -0.50164932694E+03  0.54857465224E+03  0.78993539915E+02 0.  0.
         25    2    1    2    0    0 -0.15311035949E+03  0.13294089653E+03  0.80311223465E+02  0.25142245399E+03  0.12508914262E+03 0.  0.
        -24    2    1    2    0    0 -0.20480528417E+02 -0.19326081694E+02  0.21989613201E+03  0.23569788893E+03  0.80038968595E+02 0.  0.
        -11    1    3    3    0    0 -0.27403351555E+01 -0.22909166214E+02 -0.66090020694E+02  0.70001644043E+02  0.00000000000E+00 0.  1.
         12    1    3    3    0    0  0.17633122307E+03 -0.90705648619E+02 -0.43555930625E+03  0.47857300820E+03  0.00000000000E+00 0. -1.
         11    1    5    5    0    0 -0.12429112937E+02  0.30118117730E+02  0.61918667127E+02  0.69967886939E+02  0.00000000000E+00 0. -1.
        -12    1    5    5    0    0 -0.80514154797E+01 -0.49444199424E+02  0.15797746488E+03  0.16573000199E+03  0.00000000000E+00 0.  1.
          5    1    4    4  501    0 -0.53185024729E+02  0.12401456086E+03  0.65055823495E+02  0.14985990368E+03  0.41800000000E+01 0.  1.
         -5    1    4    4    0  501 -0.99925334766E+02  0.89263356641E+01  0.15255399970E+02  0.10156255031E+03  0.41800000000E+01 0.  1.
</event>
<event>
11    1  0.8328696E-009  0.1503580E+03  0.7561462E-02  0.1096514E+00
         22   -1    0    0    0    0  0.00000000000E+00  0.00000000000E+00  0.32577122204E+03  0.32577122204E+03  0.00000000000E+00 0. -1.
         22   -1    0    0    0    0 -0.00000000000E+00 -0.00000000000E+00 -0.50525133021E+03  0.50525133021E+03  0.00000000000E+00 0. -1.
        -24    2    1    2    0    0  0.76678498569E+02  0.31830473392E+02 -0.36640971408E+03  0.38393975903E+03  0.79125778416E+02 0.  0.
         25    2    1    2    0    0 -0.67075612968E+02 -0.59680633255E+02 -0.74988690938E+02  0.17126629856E+03  0.12509166803E+03 0.  0.
         24    2    1    2    0    0 -0.96028856016E+01  0.27850159863E+02  0.26191829685E+03  0.27581649466E+03  0.81275443325E+02 0.  0.
        -13    1    5    5    0    0  0.29851971385E+02  0.14070353258E+02  0.50639113580E+02  0.60443650291E+02  0.00000000000E+00 0.  1.
         14    1    5    5    0    0 -0.39454856986E+02  0.13779806605E+02  0.21127918327E+03  0.21537284437E+03  0.00000000000E+00 0. -1.
         13    1    3    3    0    0  0.48113911454E+02  0.47358151819E+02 -0.32141071617E+03  0.32842440757E+03  0.00000000000E+00 0. -1.
        -14    1    3    3    0    0  0.28564587115E+02 -0.15527678427E+02 -0.44998997912E+02  0.55515351458E+02  0.00000000000E+00 0.  1.
          5    1    4    4  501    0  0.21761746160E+02 -0.60633504945E+02 -0.24903378547E+02  0.69192818853E+02  0.41800000000E+01 0. -1.
         -5    1    4    4    0  501 -0.88837359128E+02  0.95287168951E+00 -0.50085312391E+02  0.10207347970E+03  0.41800000000E+01 0. -1.
</event>
<event>
11    1  0.8328696E-009  0.2349771E+03  0.7561462E-02  0.1032221E+00
         22   -1    0    0    0    0  0.00000000000E+00  0.00000000000E+00  0.48519455082E+03  0.48519455082E+03  0.00000000000E+00 0.  1.
         22   -1    0    0    0    0 -0.00000000000E+00 -0.00000000000E+00 -0.69379525448E+03  0.69379525448E+03  0.00000000000E+00 0. -1.
         24    2    1    2    0    0 -0.10394835140E+03  0.16694851211E+03 -0.58975537478E+03  0.62669563565E+03  0.79113539944E+02 0.  0.
         25    2    1    2    0    0  0.14157006556E+03 -0.17687899405E+03  0.13751130326E+03  0.29306198214E+03  0.12509078643E+03 0.  0.
        -24    2    1    2    0    0 -0.37621714160E+02  0.99304819380E+01  0.24364336785E+03  0.25923218751E+03  0.79531305136E+02 0.  0.
        -11    1    3    3    0    0 -0.25290570517E+02  0.95151783379E+02 -0.20410352130E+03  0.22660918394E+03  0.00000000000E+00 0.  1.
         12    1    3    3    0    0 -0.78657780886E+02  0.71796728735E+02 -0.38565185348E+03  0.40008645171E+03  0.00000000000E+00 0. -1.
         13    1    5    5    0    0 -0.22222207662E+02 -0.66153096584E+01  0.11301899869E+02  0.25793832129E+02  0.00000000000E+00 0. -1.
        -14    1    5    5    0    0 -0.15399506498E+02  0.16545791596E+02  0.23234146798E+03  0.23343835538E+03  0.00000000000E+00 0.  1.
          5    1    4    4  501    0  0.24515492636E+02  0.16850690007E+02  0.29962165344E+02  0.42428279307E+02  0.41800000000E+01 0. -1.
         -5    1    4    4    0  501  0.11705457293E+03 -0.19372968406E+03  0.10754913792E+03  0.25063370283E+03  0.41800000000E+01 0. -1.
</event>
<event>
11    1  0.8328696E-009  0.1342981E+03  0.7561462E-02  0.1114098E+00
         22   -1    0    0    0    0  0.00000000000E+00  0.00000000000E+00  0.14642283405E+03  0.14642283405E+03  0.00000000000E+00 0.  1.
         22   -1    0    0    0    0 -0.00000000000E+00 -0.00000000000E+00 -0.21217227179E+03  0.21217227179E+03  0.00000000000E+00 0.  1.
        -24    2    1    2    0    0  0.36112273279E+02 -0.26089949776E+02 -0.77010603122E+02  0.12035072395E+03  0.81048639729E+02 0.  0.
         25    2    1    2    0    0 -0.43071763862E+02 -0.27110279034E+02 -0.24367673805E+02  0.13722751752E+03  0.12508982360E+03 0.  0.
         24    2    1    2    0    0  0.69594905825E+01  0.53200228810E+02  0.35628839186E+02  0.10101686436E+03  0.77822193809E+02 0.  0.
        -11    1    5    5    0    0 -0.13394057468E+02 -0.72936475530E+01  0.33893938321E+02  0.37167151155E+02  0.00000000000E+00 0.  1.
         12    1    5    5    0    0  0.20353548051E+02  0.60493876363E+02  0.17349008650E+01  0.63849713207E+02  0.00000000000E+00 0. -1.
         13    1    3    3    0    0  0.27069384039E+02 -0.47337868820E+01  0.10802151800E+02  0.29527051563E+02  0.00000000000E+00 0. -1.
        -14    1    3    3    0    0  0.90428892405E+01 -0.21356162894E+02 -0.87812754922E+02  0.90823672390E+02  0.00000000000E+00 0.  1.
          5    1    4    4  501    0  0.18172630259E+02  0.29658710610E+01  0.39433435577E+02  0.43720808811E+02  0.41800000000E+01 0. -1.
         -5    1    4    4    0  501 -0.61244394120E+02 -0.30076150095E+02 -0.63801109381E+02  0.93506708711E+02  0.41800000000E+01 0. -1.
</event>
<event>
11    1  0.8328696E-009  0.1650442E+03  0.7561462E-02  0.1082427E+00
         22   -1    0    0    0    0  0.00000000000E+00  0.00000000000E+00  0.27241102599E+04  0.27241102599E+04  0.00000000000E+00 0.  1.
         22   -1    0    0    0    0 -0.00000000000E+00 -0.00000000000E+00 -0.10731000230E+04  0.10731000230E+04  0.00000000000E+00 0.  1.
        -24    2    1    2    0    0 -0.60876161537E+02 -0.88023132239E+02 -0.10354283444E+04  0.10440732013E+04  0.80765181092E+02 0.  0.
         25    2    1    2    0    0  0.76780053991E+02  0.13213845306E+03  0.26849316094E+03  0.33330479521E+03  0.12509101315E+03 0.  0.
         24    2    1    2    0    0 -0.15903892454E+02 -0.44115320817E+02  0.24179454204E+04  0.24198322864E+04  0.83241474350E+02 0.  0.
        -11    1    5    5    0    0 -0.10617890221E+02 -0.46668696835E+02  0.24064388021E+04  0.24069147087E+04  0.00000000000E+00 0.  1.
         12    1    5    5    0    0 -0.52860022328E+01  0.25533760184E+01  0.11506618304E+02  0.12917577694E+02  0.00000000000E+00 0. -1.
         11    1    3    3    0    0  0.13915766065E+02 -0.31569816248E+01 -0.45057183847E+02  0.47262722037E+02  0.00000000000E+00 0. -1.
        -12    1    3    3    0    0 -0.74791927602E+02 -0.84866150614E+02 -0.99037116051E+03  0.99681047924E+03  0.00000000000E+00 0.  1.
          5    1    4    4  501    0  0.28354394922E+02  0.43694676580E+02  0.21054153993E+03  0.21692950217E+03  0.41800000000E+01 0.  1.
         -5    1    4    4    0  501  0.48425659069E+02  0.88443776475E+02  0.57951621011E+02  0.11637529304E+03  0.41800000000E+01 0.  1.
</event>
<event>
11    1  0.8328696E-009  0.4756829E+03  0.7561462E-02  0.9449563E-01
         22   -1    0    0    0    0  0.00000000000E+00  0.00000000000E+00  0.21642375767E+04  0.21642375767E+04  0.00000000000E+00 0.  1.
         22   -1    0    0    0    0 -0.00000000000E+00 -0.00000000000E+00 -0.84286025916E+03  0.84286025916E+03  0.00000000000E+00 0. -1.
         24    2    1    2    0    0  0.11435556823E+03 -0.44187193744E+03 -0.71688001196E+03  0.85365270243E+03  0.80485897766E+02 0.  0.
         25    2    1    2    0    0 -0.13412718624E+03  0.48577371421E+03  0.11689519381E+04  0.12790865049E+04  0.12508976757E+03 0.  0.
        -24    2    1    2    0    0  0.19771618007E+02 -0.43901776767E+02  0.86930539139E+03  0.87435862851E+03  0.80578315085E+02 0.  0.
        -11    1    3    3    0    0 -0.16347125996E+01 -0.13852097602E+03 -0.20384152125E+03  0.24645912210E+03  0.00000000000E+00 0.  1.
         12    1    3    3    0    0  0.11599028083E+03 -0.30335096143E+03 -0.51303849071E+03  0.60719358033E+03  0.00000000000E+00 0. -1.
         11    1    5    5    0    0 -0.11951524469E+02 -0.82604412424E+01  0.26645276692E+02  0.30348716556E+02  0.00000000000E+00 0. -1.
        -12    1    5    5    0    0  0.31723142475E+02 -0.35641335524E+02  0.84266011470E+03  0.84400991195E+03  0.00000000000E+00 0.  1.
          5    1    4    4  501    0 -0.33100021781E+02  0.26322549959E+03  0.72905196899E+03  0.77583343635E+03  0.41800000000E+01 0. -1.
         -5    1    4    4    0  501 -0.10102716446E+03  0.22254821462E+03  0.43989996911E+03  0.50325306856E+03  0.41800000000E+01 0. -1.
</event>
<event>
11    1  0.8328696E-009  0.1631755E+03  0.7561462E-02  0.1084128E+00
         22   -1    0    0    0    0  0.00000000000E+00  0.00000000000E+00  0.63555262453E+03  0.63555262453E+03  0.00000000000E+00 0. -1.
         22   -1    0    0    0    0 -0.00000000000E+00 -0.00000000000E+00 -0.16844999931E+04  0.16844999931E+04  0.00000000000E+00 0. -1.
        -24    2    1    2    0    0 -0.40626837141E+02 -0.58294505240E+02 -0.14092529119E+04  0.14133452635E+04  0.80636683736E+02 0.  0.
         25    2    1    2    0    0  0.83140943304E+02  0.15203959423E+03 -0.22305700810E+03  0.30891782972E+03  0.12508933602E+03 0.  0.
         24    2    1    2    0    0 -0.42514106163E+02 -0.93745088987E+02  0.58336255143E+03  0.59778952447E+03  0.80279874311E+02 0.  0.
        -11    1    5    5    0    0 -0.25185626807E+02 -0.13191551744E+01  0.47912898290E+02  0.54145191758E+02  0.00000000000E+00 0.  1.
         12    1    5    5    0    0 -0.17328479356E+02 -0.92425933813E+02  0.53544965314E+03  0.54364433271E+03  0.00000000000E+00 0. -1.
         13    1    3    3    0    0  0.19840418011E+02 -0.39272553802E+02 -0.60565246563E+03  0.60724861860E+03  0.00000000000E+00 0. -1.
        -14    1    3    3    0    0 -0.60467255152E+02 -0.19021951437E+02 -0.80360044628E+03  0.80609664486E+03  0.00000000000E+00 0.  1.
          5    1    4    4  501    0  0.63933223574E+02  0.12553335392E+03 -0.23483308185E+03  0.27387977062E+03  0.41800000000E+01 0.  1.
         -5    1    4    4    0  501  0.19207719730E+02  0.26506240311E+02  0.11776073746E+02  0.35038059101E+02  0.41800000000E+01 0.  1.
</event>
<event>
11    1  0.8328696E-009  0.1304778E+03  0.7561462E-02  0.1118683E+00
         22   -1    0    0    0    0  0.00000000000E+00  0.00000000000E+00  0.21986527014E+03  0.21986527014E+03  0.00000000000E+00 0.  1.
         22   -1    0    0    0    0 -0.00000000000E+00 -0.00000000000E+00 -0.28628414179E+03  0.28628414179E+03  0.00000000000E+00 0. -1.
         24    2    1    2    0    0 -0.96134304073E+01  0.41078184536E+02 -0.17143243163E+03  0.19538264886E+03  0.83698659320E+02 0.  0.
         25    2    1    2    0    0  0.34578794584E+01 -0.18583353816E+02 -0.50014502429E+02  0.13603615462E+03  0.12508831656E+03 0.  0.
        -24    2    1    2    0    0  0.61555509489E+01 -0.22494830720E+02  0.15502806242E+03  0.17473060844E+03  0.77156834907E+02 0.  0.
        -11    1    3    3    0    0 -0.26824850216E+02 -0.15171089957E+02 -0.33987290619E+02  0.45878867502E+02  0.00000000000E+00 0.  1.
         12    1    3    3    0    0  0.17211419809E+02  0.56249274494E+02 -0.13744514102E+03  0.14950378136E+03  0.00000000000E+00 0. -1.
         11    1    5    5    0    0  0.15220879095E+02 -0.11687729407E+02  0.12940982796E+00  0.19191011595E+02  0.00000000000E+00 0. -1.
        -12    1    5    5    0    0 -0.90653281462E+01 -0.10807101313E+02  0.15489865259E+03  0.15553959685E+03  0.00000000000E+00 0.  1.
          5    1    4    4  501    0  0.62315788501E+02 -0.26303660283E+00 -0.37957120173E+02  0.73085854011E+02  0.41800000000E+01 0. -1.
         -5    1    4    4    0  501 -0.58857909042E+02 -0.18320317213E+02 -0.12057382256E+02  0.62950300607E+02  0.41800000000E+01 0. -1.
</event>
<event>
11    1  0.8328696E-009  0.1415733E+03  0.7561462E-02  0.1105814E+00
         22   -1    0    0    0    0  0.00000000000E+00  0.00000000000E+00  0.88647761752E+03  0.88647761752E+03  0.00000000000E+00 0. -1.
         22   -1    0    0    0    0 -0.00000000000E+00 -0.00000000000E+00 -0.92697329307E+03  0.92697329307E+03  0.00000000000E+00 0. -1.
        -24    2    1    2    0    0  0.35508233057E+02 -0.33278062798E+01 -0.89777359997E+03  0.90225376683E+03  0.82416709764E+02 0.  0.
         25    2    1    2    0    0 -0.20851214045E+02  0.68469777102E+02  0.20416886650E+03  0.24991067387E+03  0.12509010897E+03 0.  0.
         24    2    1    2    0    0 -0.14657019011E+02 -0.65141970822E+02  0.65310905792E+03  0.66128646990E+03  0.79309830169E+02 0.  0.
        -11    1    5    5    0    0 -0.39658098376E+02 -0.81630658057E+01  0.21479088073E+03  0.21857383845E+03  0.00000000000E+00 0.  1.
         12    1    5    5    0    0  0.25001079365E+02 -0.56978905017E+02  0.43831817719E+03  0.44271263145E+03  0.00000000000E+00 0. -1.
         13    1    3    3    0    0  0.51560838184E+02 -0.78887268227E+01 -0.85091584735E+03  0.85251306812E+03  0.00000000000E+00 0. -1.
        -14    1    3    3    0    0 -0.16052605127E+02  0.45609205429E+01 -0.46857752614E+02  0.49740698704E+02  0.00000000000E+00 0.  1.
          5    1    4    4  501    0 -0.55161354371E+02  0.42146997746E+02  0.19286139885E+03  0.20501740414E+03  0.41800000000E+01 0. -1.
         -5    1    4    4    0  501  0.34310140326E+02  0.26322779357E+02  0.11307467650E+02  0.44893269728E+02  0.41800000000E+01 0. -1.
</event>
<event>
11    1  0.8328696E-009  0.1669356E+03  0.7561462E-02  0.1080730E+00
         22   -1    0    0    0    0  0.00000000000E+00  0.00000000000E+00  0.90736709315E+03  0.90736709315E+03  0.00000000000E+00 0.  1.
         22   -1    0    0    0    0 -0.00000000000E+00 -0.00000000000E+00 -0.40662724478E+03  0.40662724478E+03  0.00000000000E+00 0. -1.
         24    2    1    2    0    0  0.89373254214E+02 -0.46968718119E+02 -0.24904918850E+03  0.28043269715E+03  0.80145868819E+02 0.  0.
         25    2    1    2    0    0 -0.14007792552E+03  0.63711518290E+02 -0.68325761582E+02  0.20975625497E+03  0.12509314140E+03 0.  0.
        -24    2    1    2    0    0  0.50704671304E+02 -0.16742800170E+02  0.81811479845E+03  0.82380538580E+03  0.80574221625E+02 0.  0.
        -13    1    3    3    0    0  0.25268068936E+02 -0.40839603772E+00 -0.15682809227E+03  0.15885116499E+03  0.00000000000E+00 0.  1.
         14    1    3    3    0    0  0.64105185278E+02 -0.46560322082E+02 -0.92221096231E+02  0.12158153216E+03  0.00000000000E+00 0. -1.
         13    1    5    5    0    0  0.50154781528E+02  0.23229788456E+02  0.40357832360E+03  0.40734578489E+03  0.00000000000E+00 0. -1.
        -14    1    5    5    0    0  0.54988977609E+00 -0.39972588626E+02  0.41453647485E+03  0.41645960092E+03  0.00000000000E+00 0.  1.
          5    1    4    4  501    0 -0.98037919572E+01 -0.25837145624E+01 -0.62450440017E+02  0.63405991642E+02  0.41800000000E+01 0. -1.
         -5    1    4    4    0  501 -0.13027413356E+03  0.66295232852E+02 -0.58753215643E+01  0.14635026333E+03  0.41800000000E+01 0. -1.
</event>
<event>
11    1  0.8328696E-009  0.1511389E+03  0.7561462E-02  0.1095721E+00
         22   -1    0    0    0    0  0.00000000000E+00  0.00000000000E+00  0.83841235242E+03  0.83841235242E+03  0.00000000000E+00 0.  1.
         22   -1    0    0    0    0 -0.00000000000E+00 -0.00000000000E+00 -0.95281903010E+02  0.95281903010E+02  0.00000000000E+00 0. -1.
         24    2    1    2    0    0  0.79744516742E+02 -0.22465028635E+02 -0.24647072409E+02  0.11928320491E+03  0.82201820736E+02 0.  0.
         25    2    1    2    0    0 -0.95116068996E+02  0.24071635769E+02  0.29674086239E+03  0.33664318444E+03  0.12508790505E+03 0.  0.
        -24    2    1    2    0    0  0.15371552255E+02 -0.16066071336E+01  0.47103665943E+03  0.47776786608E+03  0.78407483884E+02 0.  0.
        -13    1    3    3    0    0  0.13000713776E+01 -0.19371288849E+02  0.20896369854E+02  0.28523591820E+02  0.00000000000E+00 0.  1.
         14    1    3    3    0    0  0.78444445364E+02 -0.30937397861E+01 -0.45543442263E+02  0.90759613086E+02  0.00000000000E+00 0. -1.
         13    1    5    5    0    0  0.34559808582E+01 -0.41953025052E+01 -0.10397329969E+01  0.55340230852E+01  0.00000000000E+00 0. -1.
        -14    1    5    5    0    0  0.11915571397E+02  0.25886953717E+01  0.47207639243E+03  0.47223384300E+03  0.00000000000E+00 0.  1.
          5    1    4    4  501    0  0.18127475235E+02  0.30789742413E+02  0.30323984329E+02  0.47049229768E+02  0.41800000000E+01 0.  1.
         -5    1    4    4    0  501 -0.11324354423E+03 -0.67181066439E+01  0.26641687806E+03  0.28959395467E+03  0.41800000000E+01 0.  1.
</event>
<event>
11    1  0.8328696E-009  0.1435365E+03  0.7561462E-02  0.1103672E+00
         22   -1    0    0    0    0  0.00000000000E+00  0.00000000000E+00  0.65382337802E+03  0.65382337802E+03  0.00000000000E+00 0.  1.
         22   -1    0    0    0    0 -0.00000000000E+00 -0.00000000000E+00 -0.56285983223E+03  0.56285983223E+03  0.00000000000E+00 0.  1.
         24    2    1    2    0    0  0.58348095783E+01 -0.51104821513E+02 -0.42143370833E+03  0.43228176136E+03  0.81335127118E+02 0.  0.
         25    2    1    2    0    0 -0.75466944387E+02  0.58198499011E+02 -0.84341613917E+02  0.17845026193E+03  0.12509461685E+03 0.  0.
        -24    2    1    2    0    0  0.69632134808E+02 -0.70936774977E+01  0.59673886803E+03  0.60595118695E+03  0.78616855019E+02 0.  0.
        -11    1    3    3    0    0  0.32049287580E+01 -0.46658887445E+02 -0.42395981305E+03  0.42653164763E+03  0.00000000000E+00 0.  1.
         12    1    3    3    0    0  0.26298808204E+01 -0.44459340681E+01  0.25261047214E+01  0.57501137320E+01  0.00000000000E+00 0. -1.
         13    1    5    5    0    0  0.69204916174E+02  0.65356142489E+01  0.26604557678E+03  0.27497687831E+03  0.00000000000E+00 0. -1.
        -14    1    5    5    0    0  0.42721863396E+00 -0.13629291747E+02  0.33069329125E+03  0.33097430865E+03  0.00000000000E+00 0.  1.
          5    1    4    4  501    0 -0.95724940728E+02  0.11049554494E+02 -0.24512393221E+02  0.99517268619E+02  0.41800000000E+01 0. -1.
         -5    1    4    4    0  501  0.20257996341E+02  0.47148944516E+02 -0.59829220696E+02  0.78932993316E+02  0.41800000000E+01 0. -1.
</event>
<event>
11    1  0.8328696E-009  0.1998950E+04  0.7561462E-02  0.8067411E-01
         22   -1    0    0    0    0  0.00000000000E+00  0.00000000000E+00  0.95879084651E+03  0.95879084651E+03  0.00000000000E+00 0. -1.
         22   -1    0    0    0    0 -0.00000000000E+00 -0.00000000000E+00 -0.10418859843E+04  0.10418859843E+04  0.00000000000E+00 0. -1.
         24    2    1    2    0    0  0.10907842985E+03  0.19598453311E+02 -0.88649551766E+02  0.16367014800E+03  0.81528958589E+02 0.  0.
         25    2    1    2    0    0 -0.95336455607E+03 -0.16672602616E+03 -0.53527731910E+01  0.97589761518E+03  0.12508380619E+03 0.  0.
        -24    2    1    2    0    0  0.84428612622E+03  0.14712757285E+03  0.10907187210E+02  0.86110906757E+03  0.83212222118E+02 0.  0.
        -11    1    3    3    0    0  0.11220127556E+03  0.34186104103E+02 -0.60891908531E+02  0.13215763495E+03  0.00000000000E+00 0.  1.
         12    1    3    3    0    0 -0.31228457119E+01 -0.14587650791E+02 -0.27757643235E+02  0.31512513053E+02  0.00000000000E+00 0. -1.
         13    1    5    5    0    0  0.29725842670E+03  0.92361243204E+02  0.33301535053E+01  0.31129449306E+03  0.00000000000E+00 0. -1.
        -14    1    5    5    0    0  0.54702769952E+03  0.54766329642E+02  0.75770337052E+01  0.54981457451E+03  0.00000000000E+00 0.  1.
          5    1    4    4  501    0 -0.65723640649E+03 -0.12311827271E+03 -0.60853851354E+02  0.67144505860E+03  0.41800000000E+01 0. -1.
         -5    1    4    4    0  501 -0.29612814958E+03 -0.43607753445E+02  0.55501078163E+02  0.30445255658E+03  0.41800000000E+01 0. -1.
</event>
<event>
11    1  0.8328696E-009  0.1322449E+03  0.7561462E-02  0.1116541E+00
         22   -1    0    0    0    0  0.00000000000E+00  0.00000000000E+00  0.28779587912E+03  0.28779587912E+03  0.00000000000E+00 0.  1.
         22   -1    0    0    0    0 -0.00000000000E+00 -0.00000000000E+00 -0.69479008799E+03  0.69479008799E+03  0.00000000000E+00 0. -1.
         24    2    1    2    0    0  0.25040927041E+02 -0.35822382044E+02 -0.62005414852E+03  0.62683791367E+03  0.80921763657E+02 0.  0.
         25    2    1    2    0    0  0.17762897649E+02  0.42982039171E+02  0.10030137371E+02  0.13383424956E+03  0.12509207199E+03 0.  0.
        -24    2    1    2    0    0 -0.42803824689E+02 -0.71596571272E+01  0.20302980227E+03  0.22191380387E+03  0.78365857617E+02 0.  0.
        -13    1    3    3    0    0 -0.24752062036E+02 -0.30535932982E+02 -0.20141152725E+03  0.20521138148E+03  0.00000000000E+00 0.  1.
         14    1    3    3    0    0  0.49792989077E+02 -0.52864490612E+01 -0.41864262127E+03  0.42162653219E+03  0.00000000000E+00 0. -1.
         11    1    5    5    0    0  0.12497875995E+02 -0.26482872872E+02  0.89377291658E+02  0.94052324395E+02  0.00000000000E+00 0. -1.
        -12    1    5    5    0    0 -0.55301700684E+02  0.19323215745E+02  0.11365251062E+03  0.12786147948E+03  0.00000000000E+00 0.  1.
          5    1    4    4  501    0  0.42779873964E+02  0.46968270715E+01 -0.44832960980E+02  0.62286793072E+02  0.41800000000E+01 0. -1.
         -5    1    4    4    0  501 -0.25016976316E+02  0.38285212099E+02  0.54863098351E+02  0.71547456490E+02  0.41800000000E+01 0. -1.
</event>
<event>
11    1  0.9436404E-009  0.1996542E+03  0.7561462E-02  0.1054768E+00
         22   -1    0    0    0    0  0.00000000000E+00  0.00000000000E+00  0.10944529706E+04  0.10944529706E+04  0.00000000000E+00 0.  1.
         22   -1    0    0    0    0 -0.00000000000E+00 -0.00000000000E+00 -0.66756053792E+03  0.66756053792E+03  0.00000000000E+00 0. -1.
        -24    2    1    2    0    0 -0.12980880717E+01 -0.88470608279E+01 -0.43021310245E+03  0.43786768629E+03  0.81023710434E+02 0.  0.
         25    2    1    2    0    0 -0.93626731016E+02  0.13192249092E+03 -0.18003196670E+03  0.27244122958E+03  0.12507280348E+03 0.  0.
         24    2    1    2    0    0  0.94924819088E+02 -0.12307543010E+03  0.10371375018E+04  0.10517045926E+04  0.79183771880E+02 0.  0.
        -11    1    5    5    0    0  0.28955678006E+01 -0.66094529133E+02  0.38285311635E+03  0.38852719312E+03  0.00000000000E+00 0.  1.
         12    1    5    5    0    0  0.92029251287E+02 -0.56980900964E+02  0.65428438545E+03  0.66317739951E+03  0.00000000000E+00 0. -1.
         13    1    3    3    0    0  0.21255745003E+02 -0.35568887716E+02 -0.30717499165E+03  0.30995713892E+03  0.00000000000E+00 0. -1.
        -14    1    3    3    0    0 -0.22553833075E+02  0.26721826888E+02 -0.12303811080E+03  0.12791054737E+03  0.00000000000E+00 0.  1.
          5    1    4    4  501    0 -0.35746297084E+02 -0.19126677889E+02 -0.52200916737E+02  0.66227152063E+02  0.41800000000E+01 0.  1.
         -5    1    4    4    0  501 -0.57880433932E+02  0.15104916881E+03 -0.12783104996E+03  0.20621407751E+03  0.41800000000E+01 0.  1.
</event>
<event>
11    1  0.8328696E-009  0.2615572E+03  0.7561462E-02  0.1017916E+00
         22   -1    0    0    0    0  0.00000000000E+00  0.00000000000E+00  0.11289219409E+04  0.11289219409E+04  0.00000000000E+00 0. -1.
         22   -1    0    0    0    0 -0.00000000000E+00 -0.00000000000E+00 -0.72544067215E+03  0.72544067215E+03  0.00000000000E+00 0. -1.
        -24    2    1    2    0    0  0.13768385361E+03  0.18345362478E+03 -0.67113973139E+03  0.71361403711E+03  0.78767879948E+02 0.  0.
         25    2    1    2    0    0 -0.16545861412E+03 -0.18209929872E+03  0.95469439690E+03  0.99379337974E+03  0.12508869877E+03 0.  0.
         24    2    1    2    0    0  0.27774760513E+02 -0.13543260651E+01  0.11992660323E+03  0.14695519620E+03  0.80250657358E+02 0.  0.
        -13    1    5    5    0    0  0.19601115853E+02  0.33662090624E+02  0.27225050049E+02  0.47524135321E+02  0.00000000000E+00 0.  1.
         14    1    5    5    0    0  0.81736446603E+01 -0.35016416689E+02  0.92701553182E+02  0.99431060877E+02  0.00000000000E+00 0. -1.
         13    1    3    3    0    0  0.51756896534E+02  0.13336836817E+03 -0.39780003353E+03  0.42274195988E+03  0.00000000000E+00 0. -1.
        -14    1    3    3    0    0  0.85926957072E+02  0.50085256608E+02 -0.27333969786E+03  0.29087207722E+03  0.00000000000E+00 0.  1.
          5    1    4    4  501    0 -0.17027952377E+03 -0.14403300785E+03  0.89741988920E+03  0.92472728602E+03  0.41800000000E+01 0.  1.
         -5    1    4    4    0  501  0.48209096484E+01 -0.38066290865E+02  0.57274507698E+02  0.69066093723E+02  0.41800000000E+01 0.  1.
</event>
<event>
11    1  0.8328696E-009  0.1491155E+03  0.7561462E-02  0.1097786E+00
         22   -1    0    0    0    0  0.00000000000E+00  0.00000000000E+00  0.10410234977E+04  0.10410234977E+04  0.00000000000E+00 0.  1.
         22   -1    0    0    0    0 -0.00000000000E+00 -0.00000000000E+00 -0.80086964886E+03  0.80086964886E+03  0.00000000000E+00 0. -1.
        -24    2    1    2    0    0 -0.13314184054E+02 -0.49061629155E+02 -0.75523852320E+03  0.76096704141E+03  0.78110820290E+02 0.  0.
         25    2    1    2    0    0 -0.32184770355E+02  0.11274621146E+03  0.14920968210E+03  0.22729339552E+03  0.12510471922E+03 0.  0.
         24    2    1    2    0    0  0.45498954409E+02 -0.63684582303E+02  0.84618268992E+03  0.85363270961E+03  0.80856523037E+02 0.  0.
        -11    1    5    5    0    0  0.46927495287E+02 -0.68360630892E+02  0.84434922636E+03  0.84841085668E+03  0.00000000000E+00 0.  1.
         12    1    5    5    0    0 -0.14285408783E+01  0.46760485884E+01  0.18334635620E+01  0.52218529351E+01  0.00000000000E+00 0. -1.
         13    1    3    3    0    0 -0.39427139854E+02 -0.31570917730E+02 -0.62302883146E+03  0.62507291338E+03  0.00000000000E+00 0. -1.
        -14    1    3    3    0    0  0.26112955800E+02 -0.17490711425E+02 -0.13220969173E+03  0.13589412804E+03  0.00000000000E+00 0.  1.
          5    1    4    4  501    0  0.46197919579E+02  0.21616231008E+02  0.45665445098E+02  0.68588005456E+02  0.41800000000E+01 0.  1.
         -5    1    4    4    0  501 -0.78382689934E+02  0.91129980450E+02  0.10354423700E+03  0.15870539006E+03  0.41800000000E+01 0.  1.
</event>
<event>
11    1  0.8374562E-009  0.1957600E+03  0.7561462E-02  0.1057563E+00
         22   -1    0    0    0    0  0.00000000000E+00  0.00000000000E+00  0.24230887339E+04  0.24230887339E+04  0.00000000000E+00 0. -1.
         22   -1    0    0    0    0 -0.00000000000E+00 -0.00000000000E+00 -0.78097842619E+03  0.78097842619E+03  0.00000000000E+00 0. -1.
         24    2    1    2    0    0 -0.99412400307E+01  0.19465421760E+02 -0.68006607155E+03  0.68516222763E+03  0.80496494367E+02 0.  0.
         25    2    1    2    0    0  0.14021825672E+03  0.56129084535E+02  0.57658171969E+01  0.19619136074E+03  0.12508465826E+03 0.  0.
        -24    2    1    2    0    0 -0.13027701669E+03 -0.75594506295E+02  0.23164105620E+04  0.23227135717E+04  0.80955628131E+02 0.  0.
        -11    1    3    3    0    0 -0.24849244670E+01  0.16143035506E+02 -0.23914603923E+02  0.28959984906E+02  0.00000000000E+00 0.  1.
         12    1    3    3    0    0 -0.74563155637E+01  0.33223862536E+01 -0.65615146763E+03  0.65620224273E+03  0.00000000000E+00 0. -1.
         13    1    5    5    0    0 -0.60336306919E+02 -0.39572563546E+02  0.16660753274E+04  0.16676370871E+04  0.00000000000E+00 0. -1.
        -14    1    5    5    0    0 -0.69940709768E+02 -0.36021942749E+02  0.65033523464E+03  0.65507648459E+03  0.00000000000E+00 0.  1.
          5    1    4    4  501    0 -0.18279698728E+02 -0.13313755501E+02 -0.12357030885E+00  0.22997633373E+02  0.41800000000E+01 0. -1.
         -5    1    4    4    0  501  0.15849795544E+03  0.69442840036E+02  0.58893875058E+01  0.17319372736E+03  0.41800000000E+01 0. -1.
</event>
<event>
11    1  0.8328696E-009  0.1342092E+03  0.7561462E-02  0.1114203E+00
         22   -1    0    0    0    0  0.00000000000E+00  0.00000000000E+00  0.78408217868E+03  0.78408217868E+03  0.00000000000E+00 0.  1.
         22   -1    0    0    0    0 -0.00000000000E+00 -0.00000000000E+00 -0.16251889242E+03  0.16251889242E+03  0.00000000000E+00 0. -1.
         24    2    1    2    0    0 -0.46534336894E+02 -0.26780608105E+02 -0.82111273957E+02  0.12773964421E+03  0.81807761932E+02 0.  0.
         25    2    1    2    0    0  0.29860244899E+02  0.11926751186E+02  0.20520190388E+02  0.13077296942E+03  0.12508640893E+03 0.  0.
        -24    2    1    2    0    0  0.16674091995E+02  0.14853856920E+02  0.68315436983E+03  0.68808845746E+03  0.79165458780E+02 0.  0.
        -13    1    3    3    0    0 -0.56086003777E+02  0.70897444855E+01 -0.27735360471E+02  0.62969472897E+02  0.00000000000E+00 0.  1.
         14    1    3    3    0    0  0.95516668831E+01 -0.33870352591E+02 -0.54375913486E+02  0.64770171316E+02  0.00000000000E+00 0. -1.
         11    1    5    5    0    0 -0.20877740685E+02 -0.17246200857E+02  0.13352054012E+03  0.13623893032E+03  0.00000000000E+00 0. -1.
        -12    1    5    5    0    0  0.37551832679E+02  0.32100057777E+02  0.54963382971E+03  0.55184952714E+03  0.00000000000E+00 0.  1.
          5    1    4    4  501    0 -0.36667203132E+02  0.42031589624E+02  0.11138836883E+02  0.57032310131E+02  0.41800000000E+01 0. -1.
         -5    1    4    4    0  501  0.66527448031E+02 -0.30104838438E+02  0.93813535049E+01  0.73740659290E+02  0.41800000000E+01 0. -1.
</event>
<event>
11    1  0.8328696E-009  0.3693294E+03  0.7561462E-02  0.9744856E-01
         22   -1    0    0    0    0  0.00000000000E+00  0.00000000000E+00  0.33033135272E+04  0.33033135272E+04  0.00000000000E+00 0. -1.
         22   -1    0    0    0    0 -0.00000000000E+00 -0.00000000000E+00 -0.83300557327E+02  0.83300557327E+02  0.00000000000E+00 0. -1.
         24    2    1    2    0    0 -0.77199016684E+01  0.61745687628E+02  0.98425148932E+02  0.14156780965E+03  0.80509676209E+02 0.  0.
         25    2    1    2    0    0  0.84668753779E+02 -0.38738802831E+03  0.83555657171E+03  0.93329520994E+03  0.12508749746E+03 0.  0.
        -24    2    1    2    0    0 -0.76948852110E+02  0.32564234068E+03  0.22860312493E+04  0.23117510650E+04  0.79309860167E+02 0.  0.
        -11    1    3    3    0    0  0.28666571677E+02  0.48826576234E+01  0.52189615550E+02  0.59744193428E+02  0.00000000000E+00 0.  1.
         12    1    3    3    0    0 -0.36386473345E+02  0.56863030004E+02  0.46235533382E+02  0.81823616217E+02  0.00000000000E+00 0. -1.
         11    1    5    5    0    0 -0.69652077143E+02  0.17875519053E+03  0.10956235504E+04  0.11122930343E+04  0.00000000000E+00 0. -1.
        -12    1    5    5    0    0 -0.72967749672E+01  0.14688715015E+03  0.11904076989E+04  0.11994580307E+04  0.00000000000E+00 0.  1.
          5    1    4    4  501    0  0.70734370075E+01 -0.63318432235E+02  0.53885621036E+02  0.83548727855E+02  0.41800000000E+01 0. -1.
         -5    1    4    4    0  501  0.77595316771E+02 -0.32406959607E+03  0.78167095067E+03  0.84974648208E+03  0.41800000000E+01 0. -1.
</event>
<event>
11    1  0.8328696E-009  0.1339062E+03  0.7561462E-02  0.1114561E+00
         22   -1    0    0    0    0  0.00000000000E+00  0.00000000000E+00  0.75652596677E+02  0.75652596677E+02  0.00000000000E+00 0. -1.
         22   -1    0    0    0    0 -0.00000000000E+00 -0.00000000000E+00 -0.26174787418E+04  0.26174787418E+04  0.00000000000E+00 0.  1.
         24    2    1    2    0    0 -0.17941813379E+02  0.15351733771E+02 -0.19939259718E+04  0.19957019860E+04  0.80796357697E+02 0.  0.
         25    2    1    2    0    0 -0.10194940649E+02 -0.53844967372E+02 -0.58131463919E+03  0.59714028990E+03  0.12508636518E+03 0.  0.
        -24    2    1    2    0    0  0.28136754028E+02  0.38493233601E+02  0.33414465899E+02  0.10028906257E+03  0.81657599645E+02 0.  0.
        -11    1    3    3    0    0 -0.22219928855E+01  0.45907336843E+02 -0.14236431221E+04  0.14243848356E+04  0.00000000000E+00 0.  1.
         12    1    3    3    0    0 -0.15719820494E+02 -0.30555603072E+02 -0.57028284968E+03  0.57131715034E+03  0.00000000000E+00 0. -1.
         13    1    5    5    0    0 -0.18336204706E+02  0.43328513976E+01  0.38015680316E+02  0.42428551167E+02  0.00000000000E+00 0. -1.
        -14    1    5    5    0    0  0.46472958734E+02  0.34160382203E+02 -0.46012144175E+01  0.57860511404E+02  0.00000000000E+00 0.  1.
          5    1    4    4  501    0 -0.15579986975E+02 -0.44795242941E+02 -0.58363614687E+03  0.58557490905E+03  0.41800000000E+01 0.  1.
         -5    1    4    4    0  501  0.53850463261E+01 -0.90497244309E+01  0.23215076742E+01  0.11565380845E+02  0.41800000000E+01 0.  1.
</event>
<event>
11    1  0.8328696E-009  0.2516884E+03  0.7561462E-02  0.1023004E+00
         22   -1    0    0    0    0  0.00000000000E+00  0.00000000000E+00  0.26119978770E+04  0.26119978770E+04  0.00000000000E+00 0. -1.
         22   -1    0    0    0    0 -0.00000000000E+00 -0.00000000000E+00 -0.19221622386E+03  0.19221622386E+03  0.00000000000E+00 0.  1.
        -24    2    1    2    0    0 -0.15434645693E+02  0.21983145659E+03 -0.98567079674E+02  0.25429978385E+03  0.79930052402E+02 0.  0.
         25    2    1    2    0    0 -0.61900502917E+02 -0.19593792212E+03  0.10276731609E+04  0.10554541583E+04  0.12509201840E+03 0.  0.
         24    2    1    2    0    0  0.77335148610E+02 -0.23893534479E+02  0.14906755718E+04  0.14944601586E+04  0.68890340705E+02 0.  0.
        -11    1    5    5    0    0  0.38540621701E+02 -0.37089339998E+02  0.48317482269E+03  0.48612643206E+03  0.00000000000E+00 0.  1.
         12    1    5    5    0    0  0.38794526909E+02  0.13195805519E+02  0.10075007492E+04  0.10083337266E+04  0.00000000000E+00 0. -1.
         13    1    3    3    0    0 -0.13797908925E+02  0.95357737098E+00 -0.13907218049E+02  0.19613829671E+02  0.00000000000E+00 0. -1.
        -14    1    3    3    0    0 -0.16367367680E+01  0.21887787922E+03 -0.84659861625E+02  0.23468595418E+03  0.00000000000E+00 0.  1.
          5    1    4    4  501    0 -0.77545171228E+02 -0.11465022722E+03  0.82412001048E+03  0.83567289789E+03  0.41800000000E+01 0.  1.
         -5    1    4    4    0  501  0.15644668310E+02 -0.81287694898E+02  0.20355315046E+03  0.21978126046E+03  0.41800000000E+01 0.  1.
</event>
<event>
11    1  0.8328696E-009  0.1571297E+03  0.7561462E-02  0.1089808E+00
         22   -1    0    0    0    0  0.00000000000E+00  0.00000000000E+00  0.70815597578E+03  0.70815597578E+03  0.00000000000E+00 0.  1.
         22   -1    0    0    0    0 -0.00000000000E+00 -0.00000000000E+00 -0.10415047141E+04  0.10415047141E+04  0.00000000000E+00 0.  1.
        -24    2    1    2    0    0 -0.89720914891E+02  0.21006396825E+02 -0.90017769367E+03  0.90851416377E+03  0.81160300111E+02 0.  0.
         25    2    1    2    0    0  0.14055124081E+03 -0.25800951322E+02 -0.66199555685E+02  0.20112193648E+03  0.12508921528E+03 0.  0.
         24    2    1    2    0    0 -0.50830325920E+02  0.47945544970E+01  0.63302851100E+03  0.64002458966E+03  0.79370459494E+02 0.  0.
        -13    1    5    5    0    0 -0.14208758457E+02  0.24069550238E+02  0.49830133102E+03  0.49908461062E+03  0.00000000000E+00 0.  1.
         14    1    5    5    0    0 -0.36621567464E+02 -0.19274995741E+02  0.13472717998E+03  0.14093997903E+03  0.00000000000E+00 0. -1.
         13    1    3    3    0    0 -0.37348853283E+02  0.58312681690E+01 -0.10730244613E+03  0.11376623170E+03  0.00000000000E+00 0. -1.
        -14    1    3    3    0    0 -0.52372061608E+02  0.15175128656E+02 -0.79287524754E+03  0.79474793207E+03  0.00000000000E+00 0.  1.
          5    1    4    4  501    0 -0.11928037894E+02 -0.30324086664E+02  0.40941849047E+01  0.33106843251E+02  0.41800000000E+01 0.  1.
         -5    1    4    4    0  501  0.15247927871E+03  0.45231353423E+01 -0.70293740589E+02  0.16801509323E+03  0.41800000000E+01 0.  1.
</event>
<event>
11    1  0.8328696E-009  0.1489661E+03  0.7561462E-02  0.1097940E+00
         22   -1    0    0    0    0  0.00000000000E+00  0.00000000000E+00  0.13250433129E+04  0.13250433129E+04  0.00000000000E+00 0. -1.
         22   -1    0    0    0    0 -0.00000000000E+00 -0.00000000000E+00 -0.17366343310E+03  0.17366343310E+03  0.00000000000E+00 0.  1.
        -24    2    1    2    0    0 -0.79555936776E+02 -0.33019493847E+02 -0.13474751422E+03  0.17926369199E+03  0.80988546271E+02 0.  0.
         25    2    1    2    0    0  0.17308851897E+02 -0.25440352390E+02  0.30185230737E+03  0.32819157662E+03  0.12509231637E+03 0.  0.
         24    2    1    2    0    0  0.62247084879E+02  0.58459846236E+02  0.98427508663E+03  0.99125147736E+03  0.80559245358E+02 0.  0.
        -11    1    5    5    0    0  0.80601184452E+02  0.55206298754E+02  0.77137359501E+03  0.77753553580E+03  0.00000000000E+00 0.  1.
         12    1    5    5    0    0 -0.18354099573E+02  0.32535474824E+01  0.21290149162E+03  0.21371594156E+03  0.00000000000E+00 0. -1.
         11    1    3    3    0    0  0.11088295905E+02 -0.10042642042E+02  0.34521302442E+00  0.14964094937E+02  0.00000000000E+00 0. -1.
        -12    1    3    3    0    0 -0.90644232681E+02 -0.22976851804E+02 -0.13509272725E+03  0.16429959705E+03  0.00000000000E+00 0.  1.
          5    1    4    4  501    0 -0.34944177458E+02  0.17887064547E+01  0.24033945802E+03  0.24290908276E+03  0.41800000000E+01 0. -1.
         -5    1    4    4    0  501  0.52253029355E+02 -0.27229058844E+02  0.61512849354E+02  0.85282493854E+02  0.41800000000E+01 0. -1.
</event>
<event>
11    1  0.8328696E-009  0.2129856E+03  0.7561462E-02  0.1045703E+00
         22   -1    0    0    0    0  0.00000000000E+00  0.00000000000E+00  0.19048791482E+03  0.19048791482E+03  0.00000000000E+00 0.  1.
         22   -1    0    0    0    0 -0.00000000000E+00 -0.00000000000E+00 -0.93142797479E+03  0.93142797479E+03  0.00000000000E+00 0.  1.
         24    2    1    2    0    0 -0.44034910802E+02 -0.57936412967E+02 -0.27005573967E+03  0.29321027795E+03  0.88013994627E+02 0.  0.
         25    2    1    2    0    0  0.16106940569E+03 -0.70026833070E+02 -0.57287485901E+03  0.61211220922E+03  0.12509453143E+03 0.  0.
        -24    2    1    2    0    0 -0.11703449489E+03  0.12796324604E+03  0.10199053872E+03  0.21659340244E+03  0.80243172044E+02 0.  0.
        -13    1    3    3    0    0 -0.40330236401E+02  0.77566242786E+01 -0.57199301607E+02  0.70416285707E+02  0.00000000000E+00 0.  1.
         14    1    3    3    0    0 -0.37046744011E+01 -0.65693037246E+02 -0.21285643807E+03  0.22279399225E+03  0.00000000000E+00 0. -1.
         11    1    5    5    0    0 -0.64455816610E+01  0.43580481451E+02 -0.84272555127E-01  0.44054636400E+02  0.00000000000E+00 0. -1.
        -12    1    5    5    0    0 -0.11058891323E+03  0.84382764586E+02  0.10207481128E+03  0.17253876604E+03  0.00000000000E+00 0.  1.
          5    1    4    4  501    0  0.38612024427E+02 -0.61991860199E+02 -0.35083997018E+03  0.35838531811E+03  0.41800000000E+01 0.  1.
         -5    1    4    4    0  501  0.12245738126E+03 -0.80349728704E+01 -0.22203488883E+03  0.25372689111E+03  0.41800000000E+01 0.  1.
</event>
<event>
11    1  0.8328696E-009  0.1484922E+03  0.7561462E-02  0.1098429E+00
         22   -1    0    0    0    0  0.00000000000E+00  0.00000000000E+00  0.85664929622E+03  0.85664929622E+03  0.00000000000E+00 0.  1.
         22   -1    0    0    0    0 -0.00000000000E+00 -0.00000000000E+00 -0.35573905084E+03  0.35573905084E+03  0.00000000000E+00 0.  1.
         24    2    1    2    0    0  0.45209410895E+02 -0.70463002032E+02 -0.32098213502E+03  0.34153425540E+03  0.81284630284E+02 0.  0.
         25    2    1    2    0    0 -0.19731645416E+02 -0.64077542358E+01  0.18796111689E+03  0.22672999938E+03  0.12508682589E+03 0.  0.
        -24    2    1    2    0    0 -0.25477765479E+02  0.76870756267E+02  0.63393126351E+03  0.64412409227E+03  0.80428662092E+02 0.  0.
        -13    1    3    3    0    0  0.27844680758E+02 -0.71942394642E+02 -0.31299874869E+03  0.32236508973E+03  0.00000000000E+00 0.  1.
         14    1    3    3    0    0  0.17364730136E+02  0.14793926109E+01 -0.79833863272E+01  0.19169165669E+02  0.00000000000E+00 0. -1.
         13    1    5    5    0    0 -0.30316996800E+02  0.35834961430E+02  0.12507160982E+03  0.13358956673E+03  0.00000000000E+00 0. -1.
        -14    1    5    5    0    0  0.48392313213E+01  0.41035794837E+02  0.50885965369E+03  0.51053452555E+03  0.00000000000E+00 0.  1.
          5    1    4    4  501    0  0.41389877501E+02 -0.37188016862E+02  0.62706607664E+02  0.83938439361E+02  0.41800000000E+01 0.  1.
         -5    1    4    4    0  501 -0.61121522917E+02  0.30780262626E+02  0.12525450923E+03  0.14279156002E+03  0.41800000000E+01 0.  1.
</event>
<event>
11    1  0.8328696E-009  0.1809500E+03  0.7561462E-02  0.1068877E+00
         22   -1    0    0    0    0  0.00000000000E+00  0.00000000000E+00  0.54432592123E+03  0.54432592123E+03  0.00000000000E+00 0.  1.
         22   -1    0    0    0    0 -0.00000000000E+00 -0.00000000000E+00 -0.58767320151E+03  0.58767320151E+03  0.00000000000E+00 0.  1.
         24    2    1    2    0    0  0.19482790659E+02  0.24581020661E+02 -0.37758785813E+03  0.38717631544E+03  0.79681258289E+02 0.  0.
         25    2    1    2    0    0 -0.14906230554E+03 -0.19620620211E+02 -0.14388526440E+03  0.24280019803E+03  0.12507768459E+03 0.  0.
        -24    2    1    2    0    0  0.12957951488E+03 -0.49604004498E+01  0.47812584224E+03  0.50202260927E+03  0.81282980665E+02 0.  0.
        -11    1    3    3    0    0  0.25034179053E+02 -0.16415022756E+02 -0.61568027102E+02  0.68460098263E+02  0.00000000000E+00 0.  1.
         12    1    3    3    0    0 -0.55513883947E+01  0.40996043417E+02 -0.31601983103E+03  0.31871621718E+03  0.00000000000E+00 0. -1.
         11    1    5    5    0    0  0.19454035096E+02  0.13814719190E+02  0.22134290941E+02  0.32545856623E+02  0.00000000000E+00 0. -1.
        -12    1    5    5    0    0  0.11012547978E+03 -0.18775119640E+02  0.45599155130E+03  0.46947675264E+03  0.00000000000E+00 0.  1.
          5    1    4    4  501    0 -0.80520530100E+02  0.43362370945E+02 -0.11123976482E+03  0.14406806953E+03  0.41800000000E+01 0.  1.
         -5    1    4    4    0  501 -0.68541775440E+02 -0.62982991156E+02 -0.32645499585E+02  0.98732128502E+02  0.41800000000E+01 0.  1.
</event>
<event>
11    1  0.8328696E-009  0.1814764E+03  0.7561462E-02  0.1068455E+00
         22   -1    0    0    0    0  0.00000000000E+00  0.00000000000E+00  0.41431027024E+03  0.41431027024E+03  0.00000000000E+00 0.  1.
         22   -1    0    0    0    0 -0.00000000000E+00 -0.00000000000E+00 -0.90276425937E+03  0.90276425937E+03  0.00000000000E+00 0. -1.
        -24    2    1    2    0    0 -0.87927729997E+01  0.85331439773E+02 -0.78392870719E+03  0.79308921863E+03  0.84187429545E+02 0.  0.
         25    2    1    2    0    0 -0.74206878042E+02 -0.17402216941E+03  0.40637009830E+02  0.23041436953E+03  0.12509611873E+03 0.  0.
         24    2    1    2    0    0  0.82999651041E+02  0.88690729639E+02  0.25483770823E+03  0.29357094145E+03  0.80539757428E+02 0.  0.
        -11    1    5    5    0    0  0.52961613511E+02  0.85470214120E+02  0.23937114806E+03  0.25963173252E+03  0.00000000000E+00 0.  1.
         12    1    5    5    0    0  0.30038037530E+02  0.32205155185E+01  0.15466560171E+02  0.33939208924E+02  0.00000000000E+00 0. -1.
         13    1    3    3    0    0  0.11350313880E+02  0.80795616689E+02 -0.38129522459E+03  0.38992667208E+03  0.00000000000E+00 0. -1.
        -14    1    3    3    0    0 -0.20143086880E+02  0.45358230845E+01 -0.40263348259E+03  0.40316254656E+03  0.00000000000E+00 0.  1.
          5    1    4    4  501    0 -0.64757014257E+02 -0.14821449592E+02  0.20288322645E+02  0.69586167441E+02  0.41800000000E+01 0.  1.
         -5    1    4    4    0  501 -0.94498637850E+01 -0.15920071982E+03  0.20348687185E+02  0.16082820209E+03  0.41800000000E+01 0.  1.
</event>
<event>
11    1  0.8328696E-009  0.1366136E+03  0.7561462E-02  0.1111400E+00
         22   -1    0    0    0    0  0.00000000000E+00  0.00000000000E+00  0.65703860807E+03  0.65703860807E+03  0.00000000000E+00 0. -1.
         22   -1    0    0    0    0 -0.00000000000E+00 -0.00000000000E+00 -0.32621231107E+03  0.32621231107E+03  0.00000000000E+00 0. -1.
        -24    2    1    2    0    0  0.26908154456E+02 -0.46848133168E+02 -0.28067604694E+03  0.29588563104E+03  0.76488345361E+02 0.  0.
         25    2    1    2    0    0 -0.29806078823E+02  0.70067500000E+02  0.12101427756E+03  0.18993916889E+03  0.12503829660E+03 0.  0.
         24    2    1    2    0    0  0.28979243674E+01 -0.23219366832E+02  0.49048806637E+03  0.49742611920E+03  0.79414506563E+02 0.  0.
        -13    1    5    5    0    0  0.18682613561E+02 -0.11633183904E+02  0.33894925613E+02  0.40413327004E+02  0.00000000000E+00 0.  1.
         14    1    5    5    0    0 -0.15784689193E+02 -0.11586182927E+02  0.45659314076E+03  0.45701279220E+03  0.00000000000E+00 0. -1.
         13    1    3    3    0    0  0.34497177010E+02 -0.47878865586E+02 -0.28200431077E+03  0.28811260348E+03  0.00000000000E+00 0. -1.
        -14    1    3    3    0    0 -0.75890225542E+01  0.10307324187E+01  0.13282638346E+01  0.77730275608E+01  0.00000000000E+00 0.  1.
          5    1    4    4  501    0  0.44764253651E+02  0.50413281663E+02  0.70606013571E+02  0.97713964843E+02  0.41800000000E+01 0.  1.
         -5    1    4    4    0  501 -0.74570332475E+02  0.19654218337E+02  0.50408263989E+02  0.92225204051E+02  0.41800000000E+01 0.  1.
</event>
<event>
11    1  0.8328696E-009  0.1426821E+03  0.7561462E-02  0.1104600E+00
         22   -1    0    0    0    0  0.00000000000E+00  0.00000000000E+00  0.13034607336E+04  0.13034607336E+04  0.00000000000E+00 0. -1.
         22   -1    0    0    0    0 -0.00000000000E+00 -0.00000000000E+00 -0.14476719485E+04  0.14476719485E+04  0.00000000000E+00 0.  1.
        -24    2    1    2    0    0 -0.18666573047E+02  0.72070117617E+01 -0.14187924674E+04  0.14213059913E+04  0.82086985963E+02 0.  0.
         25    2    1    2    0    0 -0.33522100345E+02 -0.53023044720E+02  0.17013280653E+03  0.22029713462E+03  0.12510188321E+03 0.  0.
         24    2    1    2    0    0  0.52188673391E+02  0.45816032959E+02  0.11044484460E+04  0.11095295562E+04  0.80166699978E+02 0.  0.
        -13    1    5    5    0    0 -0.14202275197E+02 -0.92625237601E+01  0.29764279272E+03  0.29812536126E+03  0.00000000000E+00 0.  1.
         14    1    5    5    0    0  0.66390948588E+02  0.55078556719E+02  0.80680565326E+03  0.81140419496E+03  0.00000000000E+00 0. -1.
         11    1    3    3    0    0  0.21289472237E-01 -0.26816104062E+02 -0.18814014388E+03  0.19004162079E+03  0.00000000000E+00 0. -1.
        -12    1    3    3    0    0 -0.18687862519E+02  0.34023115824E+02 -0.12306523235E+04  0.12312643705E+04  0.00000000000E+00 0.  1.
          5    1    4    4  501    0 -0.41652792577E+02  0.28387204006E+02  0.10158186556E+03  0.11347747042E+03  0.41800000000E+01 0. -1.
         -5    1    4    4    0  501  0.81306922319E+01 -0.81410248726E+02  0.68550940969E+02  0.10681966421E+03  0.41800000000E+01 0. -1.
</event>
<event>
11    1  0.1568147E-008  0.1933022E+03  0.7561462E-02  0.1059364E+00
         22   -1    0    0    0    0  0.00000000000E+00  0.00000000000E+00  0.16303949677E+04  0.16303949677E+04  0.00000000000E+00 0.  1.
         22   -1    0    0    0    0 -0.00000000000E+00 -0.00000000000E+00 -0.10477189329E+04  0.10477189329E+04  0.00000000000E+00 0.  1.
         24    2    1    2    0    0 -0.10520161496E+03 -0.87525809993E+02 -0.74287391340E+03  0.75954015875E+03  0.79444662122E+02 0.  0.
         25    2    1    2    0    0  0.12577210348E+03  0.18956125812E+03 -0.23642698766E+03  0.35113834916E+03  0.12509327384E+03 0.  0.
        -24    2    1    2    0    0 -0.20570488520E+02 -0.10203544813E+03  0.15619769359E+04  0.15674353927E+04  0.79040398184E+02 0.  0.
        -11    1    3    3    0    0 -0.88610062166E+02 -0.99159350550E+02 -0.69410151048E+03  0.70672570830E+03  0.00000000000E+00 0.  1.
         12    1    3    3    0    0 -0.16591552796E+02  0.11633540557E+02 -0.48772402919E+02  0.52814450452E+02  0.00000000000E+00 0. -1.
         13    1    5    5    0    0  0.34518289783E+01 -0.11841555139E+02  0.75155056386E+03  0.75165177283E+03  0.00000000000E+00 0. -1.
        -14    1    5    5    0    0 -0.24022317499E+02 -0.90193892986E+02  0.81042637201E+03  0.81578361991E+03  0.00000000000E+00 0.  1.
          5    1    4    4  501    0  0.38865460741E+02  0.16204490793E+03 -0.13332792495E+03  0.21345464201E+03  0.41800000000E+01 0. -1.
         -5    1    4    4    0  501  0.86906642742E+02  0.27516350184E+02 -0.10309906271E+03  0.13768370714E+03  0.41800000000E+01 0. -1.
</event>
<event>
11    1  0.8328696E-009  0.1784685E+03  0.7561462E-02  0.1070888E+00
         22   -1    0    0    0    0  0.00000000000E+00  0.00000000000E+00  0.33802924304E+03  0.33802924304E+03  0.00000000000E+00 0. -1.
         22   -1    0    0    0    0 -0.00000000000E+00 -0.00000000000E+00 -0.99529773039E+03  0.99529773039E+03  0.00000000000E+00 0. -1.
        -24    2    1    2    0    0 -0.74841305915E+02  0.10328290124E+03 -0.91085221681E+03  0.92336353914E+03  0.81730568272E+02 0.  0.
         25    2    1    2    0    0  0.13759616502E+02 -0.13907421453E+03  0.75910286297E+02  0.20234076131E+03  0.12509375656E+03 0.  0.
         24    2    1    2    0    0  0.61081689413E+02  0.35791313286E+02  0.17767344316E+03  0.20762267297E+03  0.80791899598E+02 0.  0.
        -13    1    5    5    0    0  0.71617078507E+02  0.38386656132E+02  0.98413541968E+02  0.12762353445E+03  0.00000000000E+00 0.  1.
         14    1    5    5    0    0 -0.10535389094E+02 -0.25953428459E+01  0.79259901189E+02  0.79999138522E+02  0.00000000000E+00 0. -1.
         11    1    3    3    0    0 -0.54574390617E+02  0.68987058312E+02 -0.81253195586E+03  0.81727948562E+03  0.00000000000E+00 0. -1.
        -12    1    3    3    0    0 -0.20266915298E+02  0.34295842929E+02 -0.98320260947E+02  0.10608405352E+03  0.00000000000E+00 0.  1.
          5    1    4    4  501    0 -0.30337643749E+02 -0.10689375975E+03  0.93027655938E+02  0.14497677632E+03  0.41800000000E+01 0.  1.
         -5    1    4    4    0  501  0.44097260251E+02 -0.32180454774E+02 -0.17117369641E+02  0.57363984995E+02  0.41800000000E+01 0.  1.
</event>
<event>
11    1  0.8328696E-009  0.1296757E+03  0.7561462E-02  0.1119668E+00
         22   -1    0    0    0    0  0.00000000000E+00  0.00000000000E+00  0.13347190720E+04  0.13347190720E+04  0.00000000000E+00 0.  1.
         22   -1    0    0    0    0 -0.00000000000E+00 -0.00000000000E+00 -0.37892901197E+03  0.37892901197E+03  0.00000000000E+00 0.  1.
         24    2    1    2    0    0  0.23429034382E+02  0.25706500075E+02 -0.36300441992E+03  0.37348699225E+03  0.80688169498E+02 0.  0.
         25    2    1    2    0    0 -0.12892535189E+01  0.10140028778E+02  0.47004287496E+03  0.48650105629E+03  0.12505395279E+03 0.  0.
        -24    2    1    2    0    0 -0.22139780863E+02 -0.35846528853E+02  0.84875160496E+03  0.85366003539E+03  0.81123520500E+02 0.  0.
        -11    1    3    3    0    0 -0.25743415853E+02  0.18051402955E+02 -0.21626586875E+03  0.21853947605E+03  0.00000000000E+00 0.  1.
         12    1    3    3    0    0  0.49172450235E+02  0.76550971208E+01 -0.14673855118E+03  0.15494751620E+03  0.00000000000E+00 0. -1.
         11    1    5    5    0    0  0.94565133566E+01  0.24965372637E+01  0.12209755149E+02  0.15644055228E+02  0.00000000000E+00 0. -1.
        -12    1    5    5    0    0 -0.31596294220E+02 -0.38343066117E+02  0.83654184981E+03  0.83801598017E+03  0.00000000000E+00 0.  1.
          5    1    4    4  501    0 -0.35393631100E+01 -0.48786158520E+02  0.96092937361E+02  0.10790709599E+03  0.41800000000E+01 0. -1.
         -5    1    4    4    0  501  0.22501095911E+01  0.58926187298E+02  0.37394993760E+03  0.37859396030E+03  0.41800000000E+01 0. -1.
</event>
<event>
11    1  0.8328696E-009  0.1524201E+03  0.7561462E-02  0.1094431E+00
         22   -1    0    0    0    0  0.00000000000E+00  0.00000000000E+00  0.11528058953E+04  0.11528058953E+04  0.00000000000E+00 0. -1.
         22   -1    0    0    0    0 -0.00000000000E+00 -0.00000000000E+00 -0.56277268304E+03  0.56277268304E+03  0.00000000000E+00 0. -1.
         24    2    1    2    0    0  0.30592594356E+02 -0.10921778520E+03 -0.53452142166E+03  0.55235804761E+03  0.80757854798E+02 0.  0.
         25    2    1    2    0    0  0.64334097909E+02  0.46992282795E+02  0.43073854675E+03  0.45555477167E+03  0.12508918236E+03 0.  0.
        -24    2    1    2    0    0 -0.94926692265E+02  0.62225502402E+02  0.69381608716E+03  0.70766575906E+03  0.80789687965E+02 0.  0.
        -11    1    3    3    0    0 -0.20573711257E+02 -0.24868181889E+01 -0.70926459007E+02  0.73891978230E+02  0.00000000000E+00 0.  1.
         12    1    3    3    0    0  0.51166305613E+02 -0.10673096701E+03 -0.46359496265E+03  0.47846606938E+03  0.00000000000E+00 0. -1.
         13    1    5    5    0    0 -0.56537755350E+02  0.39803616215E+02  0.59862375953E+03  0.60260372644E+03  0.00000000000E+00 0. -1.
        -14    1    5    5    0    0 -0.38388936915E+02  0.22421886186E+02  0.95192327632E+02  0.10506203262E+03  0.00000000000E+00 0.  1.
          5    1    4    4  501    0 -0.61705724032E+01 -0.14314199617E+02  0.14574551318E+01  0.16203976361E+02  0.41800000000E+01 0.  1.
         -5    1    4    4    0  501  0.70504670312E+02  0.61306482412E+02  0.42928109162E+03  0.43935079531E+03  0.41800000000E+01 0.  1.
</event>
<event>
11    1  0.8328696E-009  0.2050852E+03  0.7561462E-02  0.1050985E+00
         22   -1    0    0    0    0  0.00000000000E+00  0.00000000000E+00  0.20335710815E+03  0.20335710815E+03  0.00000000000E+00 0.  1.
         22   -1    0    0    0    0 -0.00000000000E+00 -0.00000000000E+00 -0.15601209851E+04  0.15601209851E+04  0.00000000000E+00 0. -1.
        -24    2    1    2    0    0  0.42772429969E+02 -0.15320851509E+03 -0.13553558360E+04  0.13670897910E+04  0.81502911032E+02 0.  0.
         25    2    1    2    0    0 -0.10628695360E+03  0.19979314335E+03 -0.65394560184E+02  0.26672858211E+03  0.12511383368E+03 0.  0.
         24    2    1    2    0    0  0.63514523632E+02 -0.46584628252E+02  0.63986519216E+02  0.12965972020E+03  0.80704064958E+02 0.  0.
        -11    1    5    5    0    0  0.15770149363E+02 -0.50111969125E+02  0.62656978217E+02  0.81766765741E+02  0.00000000000E+00 0.  1.
         12    1    5    5    0    0  0.47744374269E+02  0.35273408734E+01  0.13295409989E+01  0.47892954463E+02  0.00000000000E+00 0. -1.
         11    1    3    3    0    0  0.51613647911E+01 -0.12945178073E+03 -0.11285902159E+04  0.11360018832E+04  0.00000000000E+00 0. -1.
        -12    1    3    3    0    0  0.37611065178E+02 -0.23756734363E+02 -0.22676562011E+03  0.23108790776E+03  0.00000000000E+00 0.  1.
          5    1    4    4  501    0 -0.67665113601E+02  0.38142304231E+02 -0.63580233892E+02  0.10046552400E+03  0.41800000000E+01 0.  1.
         -5    1    4    4    0  501 -0.38621839999E+02  0.16165083911E+03 -0.18143262921E+01  0.16626305811E+03  0.41800000000E+01 0.  1.
</event>
<event>
11    1  0.8328696E-009  0.1494217E+03  0.7561462E-02  0.1097471E+00
         22   -1    0    0    0    0  0.00000000000E+00  0.00000000000E+00  0.13333738733E+04  0.13333738733E+04  0.00000000000E+00 0. -1.
         22   -1    0    0    0    0 -0.00000000000E+00 -0.00000000000E+00 -0.55848750393E+03  0.55848750393E+03  0.00000000000E+00 0. -1.
         24    2    1    2    0    0 -0.57159360885E+02  0.38529989794E+02 -0.20613710954E+03  0.23539527349E+03  0.90369653106E+02 0.  0.
         25    2    1    2    0    0  0.10766544638E+03 -0.23403081856E+01 -0.31543375017E+03  0.35600922362E+03  0.12508713430E+03 0.  0.
        -24    2    1    2    0    0 -0.50506085493E+02 -0.36189681609E+02  0.12964572291E+04  0.13004568802E+04  0.80784852976E+02 0.  0.
        -11    1    3    3    0    0 -0.16280279455E+02 -0.21639830034E+02 -0.15162945542E+02  0.31036183086E+02  0.00000000000E+00 0.  1.
         12    1    3    3    0    0 -0.40879081430E+02  0.60169819828E+02 -0.19097416400E+03  0.20435909041E+03  0.00000000000E+00 0. -1.
         11    1    5    5    0    0 -0.31799387137E+02 -0.52458727242E+02  0.11691468185E+04  0.11707550565E+04  0.00000000000E+00 0. -1.
        -12    1    5    5    0    0 -0.18706698356E+02  0.16269045633E+02  0.12731041061E+03  0.12970182366E+03  0.00000000000E+00 0.  1.
          5    1    4    4  501    0  0.59662133104E+02 -0.24464953065E+02 -0.41062486626E+02  0.76561767632E+02  0.41800000000E+01 0.  1.
         -5    1    4    4    0  501  0.48003313273E+02  0.22124644879E+02 -0.27437126355E+03  0.27944745599E+03  0.41800000000E+01 0.  1.
</event>
<event>
11    1  0.8328696E-009  0.1401796E+03  0.7561462E-02  0.1107358E+00
         22   -1    0    0    0    0  0.00000000000E+00  0.00000000000E+00  0.25940849643E+04  0.25940849643E+04  0.00000000000E+00 0. -1.
         22   -1    0    0    0    0 -0.00000000000E+00 -0.00000000000E+00 -0.35463417940E+03  0.35463417940E+03  0.00000000000E+00 0. -1.
         24    2    1    2    0    0 -0.30475499134E+02 -0.28275490078E+02 -0.33640168708E+03  0.34840073541E+03  0.80552578937E+02 0.  0.
         25    2    1    2    0    0  0.90475435709E+02  0.30123609324E+02  0.55171936785E+03  0.57370284644E+03  0.12508980315E+03 0.  0.
        -24    2    1    2    0    0 -0.59999936574E+02 -0.18481192455E+01  0.20241331041E+04  0.20266155618E+04  0.80326859305E+02 0.  0.
        -13    1    3    3    0    0  0.26023865241E+02 -0.17862368708E+02 -0.15257086091E+03  0.15580171173E+03  0.00000000000E+00 0.  1.
         14    1    3    3    0    0 -0.56499364376E+02 -0.10413121370E+02 -0.18383082617E+03  0.19259902368E+03  0.00000000000E+00 0. -1.
         13    1    5    5    0    0 -0.20901933612E+02  0.36981195663E+02  0.11196138742E+04  0.11204194424E+04  0.00000000000E+00 0. -1.
        -14    1    5    5    0    0 -0.39098002962E+02 -0.38829314909E+02  0.90451922995E+03  0.90619611944E+03  0.00000000000E+00 0.  1.
          5    1    4    4  501    0  0.79491557762E+02 -0.47951909698E+01  0.51688037153E+03  0.52299588190E+03  0.41800000000E+01 0. -1.
         -5    1    4    4    0  501  0.10983877946E+02  0.34918800293E+02  0.34838996320E+02  0.50706964544E+02  0.41800000000E+01 0. -1.
</event>
<event>
11    1  0.8328696E-009  0.1296955E+03  0.7561462E-02  0.1119644E+00
         22   -1    0    0    0    0  0.00000000000E+00  0.00000000000E+00  0.62723513213E+03  0.62723513213E+03  0.00000000000E+00 0. -1.
         22   -1    0    0    0    0 -0.00000000000E+00 -0.00000000000E+00 -0.16044194653E+03  0.16044194653E+03  0.00000000000E+00 0.  1.
         24    2    1    2    0    0 -0.29746848356E+02  0.87307574993E+01 -0.84692467431E+02  0.12194406009E+03  0.82075810312E+02 0.  0.
         25    2    1    2    0    0  0.46088890267E+02 -0.16186671566E+02  0.28845656414E+02  0.13735138922E+03  0.12508852100E+03 0.  0.
        -24    2    1    2    0    0 -0.16342041911E+02  0.74559140671E+01  0.52263999662E+03  0.52838162935E+03  0.75577292763E+02 0.  0.
        -11    1    3    3    0    0  0.14380292351E+02 -0.14191972449E+02 -0.65663647412E+02  0.68701670151E+02  0.00000000000E+00 0.  1.
         12    1    3    3    0    0 -0.44127140707E+02  0.22922729948E+02 -0.19028820019E+02  0.53242389941E+02  0.00000000000E+00 0. -1.
         11    1    5    5    0    0 -0.36294095842E+02  0.27417722873E+02  0.23509910004E+03  0.23945893126E+03  0.00000000000E+00 0. -1.
        -12    1    5    5    0    0  0.19952053931E+02 -0.19961808805E+02  0.28754089657E+03  0.28892269809E+03  0.00000000000E+00 0.  1.
          5    1    4    4  501    0 -0.31101623873E+02 -0.39594483340E+02  0.25301624322E+02  0.56503793783E+02  0.41800000000E+01 0.  1.
         -5    1    4    4    0  501  0.77190514140E+02  0.23407811773E+02  0.35440320920E+01  0.80847595442E+02  0.41800000000E+01 0.  1.
</event>
<event>
11    1  0.8328696E-009  0.1554948E+03  0.7561462E-02  0.1091393E+00
         22   -1    0    0    0    0  0.00000000000E+00  0.00000000000E+00  0.18069071848E+04  0.18069071848E+04  0.00000000000E+00 0. -1.
         22   -1    0    0    0    0 -0.00000000000E+00 -0.00000000000E+00 -0.11424921964E+04  0.11424921964E+04  0.00000000000E+00 0. -1.
        -24    2    1    2    0    0 -0.40278783102E+02  0.46883169347E+02 -0.10195357380E+04  0.10246052503E+04  0.80885017047E+02 0.  0.
         25    2    1    2    0    0 -0.30760792394E+02 -0.10593904366E+03 -0.59678244706E+02  0.17713621361E+03  0.12508572245E+03 0.  0.
         24    2    1    2    0    0  0.71039575495E+02  0.59055874317E+02  0.17436289711E+04  0.17476579172E+04  0.74377342660E+02 0.  0.
        -11    1    5    5    0    0  0.17438690846E+02 -0.16781624217E+02  0.48771718857E+03  0.48831730143E+03  0.00000000000E+00 0.  1.
         12    1    5    5    0    0  0.53600884649E+02  0.75837498534E+02  0.12559117825E+04  0.12593406158E+04  0.00000000000E+00 0. -1.
         11    1    3    3    0    0 -0.39253652592E+00  0.50995732317E+02 -0.78595915335E+03  0.78761190287E+03  0.00000000000E+00 0. -1.
        -12    1    3    3    0    0 -0.39886246576E+02 -0.41125629702E+01 -0.23357658464E+03  0.23699334745E+03  0.00000000000E+00 0.  1.
          5    1    4    4  501    0 -0.36317949723E+02 -0.18825145738E+02  0.30776292282E+02  0.51361777138E+02  0.41800000000E+01 0.  1.
         -5    1    4    4    0  501  0.55571573295E+01 -0.87113897926E+02 -0.90454536988E+02  0.12577443648E+03  0.41800000000E+01 0.  1.
</event>
<event>
11    1  0.8328696E-009  0.2063546E+03  0.7561462E-02  0.1050119E+00
         22   -1    0    0    0    0  0.00000000000E+00  0.00000000000E+00  0.63015825470E+03  0.63015825470E+03  0.00000000000E+00 0.  1.
         22   -1    0    0    0    0 -0.00000000000E+00 -0.00000000000E+00 -0.31343223543E+03  0.31343223543E+03  0.00000000000E+00 0.  1.
         24    2    1    2    0    0 -0.48528714735E+02  0.90529508600E+02 -0.22999049613E+03  0.26480058959E+03  0.81689019166E+02 0.  0.
         25    2    1    2    0    0  0.10132279684E+03  0.96717437405E+02  0.20889538464E+03  0.28089025505E+03  0.12506590982E+03 0.  0.
        -24    2    1    2    0    0 -0.52794082109E+02 -0.18724694600E+03  0.33782113076E+03  0.39789964550E+03  0.79701804287E+02 0.  0.
        -11    1    3    3    0    0 -0.62109713854E+02  0.96034417092E+02 -0.18513988031E+03  0.21761663793E+03  0.00000000000E+00 0.  1.
         12    1    3    3    0    0  0.13580999119E+02 -0.55049084918E+01 -0.44850615818E+02  0.47183951655E+02  0.00000000000E+00 0. -1.
         11    1    5    5    0    0  0.45112203249E+01  0.52171798218E+01  0.26874494477E+02  0.27745423542E+02  0.00000000000E+00 0. -1.
        -12    1    5    5    0    0 -0.57305302434E+02 -0.19246412583E+03  0.31094663628E+03  0.37015422196E+03  0.00000000000E+00 0.  1.
          5    1    4    4  501    0 -0.20139254805E+02  0.55056883233E+02  0.75600713606E+02  0.95759021890E+02  0.41800000000E+01 0. -1.
         -5    1    4    4    0  501  0.12146205165E+03  0.41660554171E+02  0.13329467103E+03  0.18513123316E+03  0.41800000000E+01 0. -1.
</event>
<event>
11    1  0.8328696E-009  0.1547808E+03  0.7561462E-02  0.1092091E+00
         22   -1    0    0    0    0  0.00000000000E+00  0.00000000000E+00  0.17662288845E+04  0.17662288845E+04  0.00000000000E+00 0.  1.
         22   -1    0    0    0    0 -0.00000000000E+00 -0.00000000000E+00 -0.25116728075E+03  0.25116728075E+03  0.00000000000E+00 0.  1.
        -24    2    1    2    0    0  0.83247985779E+02 -0.63811560307E+01 -0.21609923293E+03  0.24575637878E+03  0.82014467923E+02 0.  0.
         25    2    1    2    0    0 -0.20054132242E+02 -0.71229071183E+02  0.29544000330E+03  0.32925302591E+03  0.12508801189E+03 0.  0.
         24    2    1    2    0    0 -0.63193853537E+02  0.77610227214E+02  0.14357208334E+04  0.14423867605E+04  0.95751998058E+02 0.  0.
        -13    1    5    5    0    0 -0.74121511265E+02  0.89225302627E+02  0.10600498032E+04  0.10663773902E+04  0.00000000000E+00 0.  1.
         14    1    5    5    0    0  0.10927657728E+02 -0.11615075413E+02  0.37567103019E+03  0.37600937037E+03  0.00000000000E+00 0. -1.
         11    1    3    3    0    0 -0.16164629798E+02 -0.31673566279E+01 -0.43993963844E+02  0.46976550099E+02  0.00000000000E+00 0. -1.
        -12    1    3    3    0    0  0.99412615577E+02 -0.32137994028E+01 -0.17210526909E+03  0.19877982868E+03  0.00000000000E+00 0.  1.
          5    1    4    4  501    0  0.40610060244E+02  0.51986403054E+01  0.13775976127E+03  0.14377561365E+03  0.41800000000E+01 0. -1.
         -5    1    4    4    0  501 -0.60664192486E+02 -0.76427711488E+02  0.15768024203E+03  0.18547741226E+03  0.41800000000E+01 0. -1.
</event>
<event>
11    1  0.8328696E-009  0.1652418E+03  0.7561462E-02  0.1082248E+00
         22   -1    0    0    0    0  0.00000000000E+00  0.00000000000E+00  0.46194741126E+03  0.46194741126E+03  0.00000000000E+00 0. -1.
         22   -1    0    0    0    0 -0.00000000000E+00 -0.00000000000E+00 -0.11161442312E+04  0.11161442312E+04  0.00000000000E+00 0. -1.
         24    2    1    2    0    0  0.38274861511E+02  0.80839024667E+00 -0.10225564469E+04  0.10263574724E+04  0.79513240818E+02 0.  0.
         25    2    1    2    0    0 -0.10577857121E+03  0.79308079043E+02  0.24164671231E+02  0.18360190819E+03  0.12508737677E+03 0.  0.
        -24    2    1    2    0    0  0.67503709699E+02 -0.80116469290E+02  0.34419495571E+03  0.36813226192E+03  0.77947387722E+02 0.  0.
        -11    1    3    3    0    0  0.40525887008E-01  0.21087435578E+02 -0.77710586475E+02  0.80520909284E+02  0.00000000000E+00 0.  1.
         12    1    3    3    0    0  0.38234335624E+02 -0.20279045331E+02 -0.94484586044E+03  0.94583656310E+03  0.00000000000E+00 0. -1.
         11    1    5    5    0    0  0.16396001538E+02 -0.54768975866E+02  0.26144841861E+03  0.26762612948E+03  0.00000000000E+00 0. -1.
        -12    1    5    5    0    0  0.51107708161E+02 -0.25347493423E+02  0.82746537100E+02  0.10050613244E+03  0.00000000000E+00 0.  1.
          5    1    4    4  501    0 -0.38271089096E+02  0.10318030020E+03  0.10985846886E+02  0.11067525397E+03  0.41800000000E+01 0. -1.
         -5    1    4    4    0  501 -0.67507482114E+02 -0.23872221158E+02  0.13178824345E+02  0.72926654219E+02  0.41800000000E+01 0. -1.
</event>
<event>
11    1  0.8328696E-009  0.1786605E+03  0.7561462E-02  0.1070731E+00
         22   -1    0    0    0    0  0.00000000000E+00  0.00000000000E+00  0.82169220698E+02  0.82169220698E+02  0.00000000000E+00 0.  1.
         22   -1    0    0    0    0 -0.00000000000E+00 -0.00000000000E+00 -0.13592299279E+04  0.13592299279E+04  0.00000000000E+00 0.  1.
        -24    2    1    2    0    0 -0.54823584333E+02 -0.27908253411E+02 -0.92669571868E+03  0.93195305656E+03  0.77376020848E+02 0.  0.
         25    2    1    2    0    0 -0.86198057027E+02  0.30253957694E+02 -0.30300925732E+03  0.34030502614E+03  0.12508994287E+03 0.  0.
         24    2    1    2    0    0  0.14102164136E+03 -0.23457042828E+01 -0.47355731195E+02  0.16914106588E+03  0.80458245263E+02 0.  0.
        -11    1    5    5    0    0  0.13845929305E+03  0.11109703153E+02 -0.59237763847E+02  0.15100832428E+03  0.00000000000E+00 0.  1.
         12    1    5    5    0    0  0.25623483081E+01 -0.13455407435E+02  0.11882032652E+02  0.18132741603E+02  0.00000000000E+00 0. -1.
         13    1    3    3    0    0 -0.59624489614E+01  0.57262622870E+01 -0.85494910918E+01  0.11892631136E+02  0.00000000000E+00 0. -1.
        -14    1    3    3    0    0 -0.48861135372E+02 -0.33634515698E+02 -0.91814622759E+03  0.92006042542E+03  0.00000000000E+00 0.  1.
          5    1    4    4  501    0 -0.62492610055E+02  0.77319720519E+02 -0.16718503312E+03  0.19455583567E+03  0.41800000000E+01 0. -1.
         -5    1    4    4    0  501 -0.23705446972E+02 -0.47065762825E+02 -0.13582422419E+03  0.14574919048E+03  0.41800000000E+01 0. -1.
</event>
<event>
11    1  0.8328696E-009  0.1255428E+03  0.7561462E-02  0.1124870E+00
         22   -1    0    0    0    0  0.00000000000E+00  0.00000000000E+00  0.12558620256E+03  0.12558620256E+03  0.00000000000E+00 0.  1.
         22   -1    0    0    0    0 -0.00000000000E+00 -0.00000000000E+00 -0.24139642974E+04  0.24139642974E+04  0.00000000000E+00 0. -1.
         24    2    1    2    0    0 -0.10929085980E+02 -0.22165315857E+01 -0.22389222952E+04  0.22403497260E+04  0.79180129069E+02 0.  0.
         25    2    1    2    0    0 -0.61994537303E+01  0.19588619708E+00 -0.13423160136E+03  0.18358589386E+03  0.12508871260E+03 0.  0.
        -24    2    1    2    0    0  0.17128539710E+02  0.20206453887E+01  0.84775801662E+02  0.11561488018E+03  0.76696767146E+02 0.  0.
        -11    1    3    3    0    0 -0.61260871254E+01  0.17162734228E+02 -0.12387925678E+03  0.12521245406E+03  0.00000000000E+00 0.  1.
         12    1    3    3    0    0 -0.48029988548E+01 -0.19379265814E+02 -0.21150430384E+04  0.21151372719E+04  0.00000000000E+00 0. -1.
         13    1    5    5    0    0  0.27398332588E+01  0.33746974523E+01 -0.14579627573E+02  0.15213836115E+02  0.00000000000E+00 0. -1.
        -14    1    5    5    0    0  0.14388706452E+02 -0.13540520637E+01  0.99355429235E+02  0.10040104406E+03  0.00000000000E+00 0.  1.
          5    1    4    4  501    0  0.53031601285E+02 -0.45376707358E+01 -0.10373152598E+03  0.11666466077E+03  0.41800000000E+01 0.  1.
         -5    1    4    4    0  501 -0.59231055015E+02  0.47335569329E+01 -0.30500075383E+02  0.66921233086E+02  0.41800000000E+01 0.  1.
</event>
<event>
11    1  0.8328696E-009  0.1262548E+03  0.7561462E-02  0.1123958E+00
         22   -1    0    0    0    0  0.00000000000E+00  0.00000000000E+00  0.39362663617E+03  0.39362663617E+03  0.00000000000E+00 0. -1.
         22   -1    0    0    0    0 -0.00000000000E+00 -0.00000000000E+00 -0.24200657004E+03  0.24200657004E+03  0.00000000000E+00 0.  1.
        -24    2    1    2    0    0  0.26274952033E+02  0.51613670403E+01 -0.17997128143E+03  0.19845682270E+03  0.79236579456E+02 0.  0.
         25    2    1    2    0    0 -0.34945328257E+02  0.79203742650E+01  0.43868808339E+02  0.13731722520E+03  0.12509052601E+03 0.  0.
         24    2    1    2    0    0  0.86703762244E+01 -0.13081741305E+02  0.28772253921E+03  0.29985915830E+03  0.82975585965E+02 0.  0.
        -13    1    5    5    0    0 -0.24649079662E+02 -0.24618589121E+02  0.59657643949E+02  0.69084633168E+02  0.00000000000E+00 0.  1.
         14    1    5    5    0    0  0.33319455887E+02  0.11536847816E+02  0.22806489527E+03  0.23077452513E+03  0.00000000000E+00 0. -1.
         11    1    3    3    0    0  0.45632150822E+02 -0.12579053560E+02 -0.64304843564E+02  0.79847596601E+02  0.00000000000E+00 0. -1.
        -12    1    3    3    0    0 -0.19357198789E+02  0.17740420601E+02 -0.11566643787E+03  0.11860922610E+03  0.00000000000E+00 0.  1.
          5    1    4    4  501    0 -0.31825888555E+01  0.19660886889E+01  0.84807874426E+02  0.84993189970E+02  0.41800000000E+01 0.  1.
         -5    1    4    4    0  501 -0.31762739402E+02  0.59542855761E+01 -0.40939066088E+02  0.52324035234E+02  0.41800000000E+01 0.  1.
</event>
<event>
11    1  0.8328696E-009  0.1548551E+03  0.7561462E-02  0.1092019E+00
         22   -1    0    0    0    0  0.00000000000E+00  0.00000000000E+00  0.74757789995E+03  0.74757789995E+03  0.00000000000E+00 0. -1.
         22   -1    0    0    0    0 -0.00000000000E+00 -0.00000000000E+00 -0.92502930344E+03  0.92502930344E+03  0.00000000000E+00 0.  1.
        -24    2    1    2    0    0 -0.17630923279E+02  0.34150475565E+02 -0.73220883541E+03  0.73757092994E+03  0.80024956119E+02 0.  0.
         25    2    1    2    0    0 -0.24626847586E+02 -0.11438280742E+03 -0.14529807366E+03  0.22460782416E+03  0.12508891322E+03 0.  0.
         24    2    1    2    0    0  0.42257770865E+02  0.80232331858E+02  0.70005550557E+03  0.71042844929E+03  0.80049512280E+02 0.  0.
        -13    1    5    5    0    0  0.21681502842E+02  0.23560648807E+02  0.64404103225E+02  0.71924128426E+02  0.00000000000E+00 0.  1.
         14    1    5    5    0    0  0.20576268023E+02  0.56671683051E+02  0.63565140234E+03  0.63850432087E+03  0.00000000000E+00 0. -1.
         11    1    3    3    0    0  0.25960131842E+02 -0.38901016018E+00 -0.39082596479E+03  0.39168739389E+03  0.00000000000E+00 0. -1.
        -12    1    3    3    0    0 -0.43591055121E+02  0.34539485725E+02 -0.34138287061E+03  0.34588353605E+03  0.00000000000E+00 0.  1.
          5    1    4    4  501    0 -0.74387453138E+02 -0.84735732448E+02 -0.88785607982E+02  0.14357574350E+03  0.41800000000E+01 0.  1.
         -5    1    4    4    0  501  0.49760605552E+02 -0.29647074975E+02 -0.56512465673E+02  0.81032080659E+02  0.41800000000E+01 0.  1.
</event>
<event>
11    1  0.8328696E-009  0.1552864E+03  0.7561462E-02  0.1091596E+00
         22   -1    0    0    0    0  0.00000000000E+00  0.00000000000E+00  0.51154986665E+03  0.51154986665E+03  0.00000000000E+00 0.  1.
         22   -1    0    0    0    0 -0.00000000000E+00 -0.00000000000E+00 -0.18517576447E+04  0.18517576447E+04  0.00000000000E+00 0.  1.
         24    2    1    2    0    0  0.88369825085E+02 -0.17493284606E+02 -0.15821397380E+04  0.15866764020E+04  0.79124036678E+02 0.  0.
         25    2    1    2    0    0 -0.10274750136E+03  0.90600944895E+02 -0.22813295430E+03  0.29403645050E+03  0.12508880499E+03 0.  0.
        -24    2    1    2    0    0  0.14377676277E+02 -0.73107660289E+02  0.47006491428E+03  0.48259465880E+03  0.79907030351E+02 0.  0.
        -11    1    3    3    0    0  0.63274531797E+02 -0.48047459032E+02 -0.11444275218E+04  0.11471820158E+04  0.00000000000E+00 0.  1.
         12    1    3    3    0    0  0.25095293288E+02  0.30554174425E+02 -0.43771221624E+03  0.43949438627E+03  0.00000000000E+00 0. -1.
         11    1    5    5    0    0 -0.30234642455E+02 -0.34969472337E+02  0.14242721607E+03  0.14974147548E+03  0.00000000000E+00 0. -1.
        -12    1    5    5    0    0  0.44612318733E+02 -0.38138187952E+02  0.32763769821E+03  0.33285318333E+03  0.00000000000E+00 0.  1.
          5    1    4    4  501    0  0.16776845102E+02  0.32137535538E+02 -0.11056166000E+03  0.11642867682E+03  0.41800000000E+01 0.  1.
         -5    1    4    4    0  501 -0.11952434646E+03  0.58463409357E+02 -0.11757129430E+03  0.17760777369E+03  0.41800000000E+01 0.  1.
</event>
<event>
11    1  0.8328696E-009  0.1472188E+03  0.7561462E-02  0.1099755E+00
         22   -1    0    0    0    0  0.00000000000E+00  0.00000000000E+00  0.21764068486E+03  0.21764068486E+03  0.00000000000E+00 0.  1.
         22   -1    0    0    0    0 -0.00000000000E+00 -0.00000000000E+00 -0.73729662968E+03  0.73729662968E+03  0.00000000000E+00 0.  1.
         24    2    1    2    0    0 -0.52022762739E+02 -0.57948093416E+02 -0.61492339434E+03  0.62501255372E+03  0.80284257679E+02 0.  0.
         25    2    1    2    0    0  0.34140229667E+02  0.69963390755E+02 -0.55985530160E+02  0.15761450558E+03  0.12509005338E+03 0.  0.
        -24    2    1    2    0    0  0.17882533072E+02 -0.12015297339E+02  0.15125297967E+03  0.17231025524E+03  0.79681916649E+02 0.  0.
        -11    1    3    3    0    0 -0.52786381485E+02 -0.39761034004E+02 -0.22101298443E+03  0.23068177470E+03  0.00000000000E+00 0.  1.
         12    1    3    3    0    0  0.76361874637E+00 -0.18187059412E+02 -0.39391040991E+03  0.39433077902E+03  0.00000000000E+00 0. -1.
         11    1    5    5    0    0  0.12288847708E+02  0.12637433789E+02 -0.13017120931E+01  0.17675264217E+02  0.00000000000E+00 0. -1.
        -12    1    5    5    0    0  0.55936853636E+01 -0.24652731128E+02  0.15255469177E+03  0.15463499102E+03  0.00000000000E+00 0.  1.
          5    1    4    4  501    0 -0.31594816323E+02 -0.26190245137E+01 -0.50085100966E+02  0.59422903384E+02  0.41800000000E+01 0. -1.
         -5    1    4    4    0  501  0.65735045989E+02  0.72582415269E+02 -0.59004291942E+01  0.98191602198E+02  0.41800000000E+01 0. -1.
</event>
<event>
11    1  0.8328696E-009  0.4319802E+03  0.7561462E-02  0.9559843E-01
         22   -1    0    0    0    0  0.00000000000E+00  0.00000000000E+00  0.59115733350E+03  0.59115733350E+03  0.00000000000E+00 0.  1.
         22   -1    0    0    0    0 -0.00000000000E+00 -0.00000000000E+00 -0.88060938926E+03  0.88060938926E+03  0.00000000000E+00 0.  1.
        -24    2    1    2    0    0 -0.38148968135E+03 -0.15927559997E+03 -0.60900776835E+03  0.74046367490E+03  0.80578522093E+02 0.  0.
         25    2    1    2    0    0  0.32377143283E+03  0.29077218281E+03  0.33818790276E+03  0.56514734892E+03  0.12507623839E+03 0.  0.
         24    2    1    2    0    0  0.57718248519E+02 -0.13149658285E+03 -0.18632190165E+02  0.16615569894E+03  0.81472757821E+02 0.  0.
        -11    1    5    5    0    0 -0.13723573327E+02 -0.30368626263E+02  0.16865400689E+02  0.37350122709E+02  0.00000000000E+00 0.  1.
         12    1    5    5    0    0  0.71441821846E+02 -0.10112795658E+03 -0.35497590854E+02  0.12880557623E+03  0.00000000000E+00 0. -1.
         13    1    3    3    0    0 -0.14773382589E+03 -0.75238931157E+02 -0.31164227667E+03  0.35299729274E+03  0.00000000000E+00 0. -1.
        -14    1    3    3    0    0 -0.23375585546E+03 -0.84036668811E+02 -0.29736549168E+03  0.38746638216E+03  0.00000000000E+00 0.  1.
          5    1    4    4  501    0  0.13845031083E+03  0.60619867397E+02  0.15964798652E+03  0.21988226143E+03  0.41800000000E+01 0. -1.
         -5    1    4    4    0  501  0.18532112200E+03  0.23015231542E+03  0.17853991624E+03  0.34526508749E+03  0.41800000000E+01 0. -1.
</event>
<event>
11    1  0.8328696E-009  0.1630843E+03  0.7561462E-02  0.1084212E+00
         22   -1    0    0    0    0  0.00000000000E+00  0.00000000000E+00  0.67545645692E+03  0.67545645692E+03  0.00000000000E+00 0. -1.
         22   -1    0    0    0    0 -0.00000000000E+00 -0.00000000000E+00 -0.16860523792E+03  0.16860523792E+03  0.00000000000E+00 0. -1.
         24    2    1    2    0    0  0.29148785014E+02 -0.72802248584E+02 -0.43554118365E+02  0.12553649379E+03  0.87821586071E+02 0.  0.
         25    2    1    2    0    0 -0.12408821877E+03  0.28429630001E+02  0.29017831882E+02  0.18081530992E+03  0.12508401910E+03 0.  0.
        -24    2    1    2    0    0  0.94939433755E+02  0.44372618583E+02  0.52138750549E+03  0.53770989113E+03  0.79401327312E+02 0.  0.
        -13    1    3    3    0    0  0.34798309931E+02 -0.35334018779E+02  0.18414667130E+02  0.52900994533E+02  0.00000000000E+00 0.  1.
         14    1    3    3    0    0 -0.56495249171E+01 -0.37468229805E+02 -0.61968785496E+02  0.72635499257E+02  0.00000000000E+00 0. -1.
         11    1    5    5    0    0  0.89036894453E+02  0.33803930287E+02  0.51554586748E+03  0.52426883920E+03  0.00000000000E+00 0. -1.
        -12    1    5    5    0    0  0.59025393020E+01  0.10568688295E+02  0.58416380096E+01  0.13441051935E+02  0.00000000000E+00 0.  1.
          5    1    4    4  501    0  0.14918778304E+02  0.32804081909E+02 -0.73200390542E+01  0.37009905535E+02  0.41800000000E+01 0. -1.
         -5    1    4    4    0  501 -0.13900699707E+03 -0.43744519077E+01  0.36337870937E+02  0.14380540438E+03  0.41800000000E+01 0. -1.
</event>
<event>
11    1  0.8328696E-009  0.1320596E+03  0.7561462E-02  0.1116764E+00
         22   -1    0    0    0    0  0.00000000000E+00  0.00000000000E+00  0.35143596224E+03  0.35143596224E+03  0.00000000000E+00 0.  1.
         22   -1    0    0    0    0 -0.00000000000E+00 -0.00000000000E+00 -0.19329478020E+03  0.19329478020E+03  0.00000000000E+00 0. -1.
         24    2    1    2    0    0  0.32384233821E+02  0.16730722578E+02 -0.10028676634E+03  0.13403519436E+03  0.81113144102E+02 0.  0.
         25    2    1    2    0    0 -0.68009997015E+02 -0.15728888395E+02  0.58671416702E+01  0.14337256081E+03  0.12509400552E+03 0.  0.
        -24    2    1    2    0    0  0.35625763194E+02 -0.10018341831E+01  0.25256080672E+03  0.26732298727E+03  0.80027618706E+02 0.  0.
        -13    1    3    3    0    0  0.19713946020E+02  0.95719520963E+01  0.90676061002E+01  0.23716732806E+02  0.00000000000E+00 0.  1.
         14    1    3    3    0    0  0.12670287801E+02  0.71587704822E+01 -0.10935437244E+03  0.11031846155E+03  0.00000000000E+00 0. -1.
         11    1    5    5    0    0  0.52695828381E+02  0.16366784773E+02  0.11416031017E+03  0.12679628697E+03  0.00000000000E+00 0. -1.
        -12    1    5    5    0    0 -0.17070065186E+02 -0.17368618956E+02  0.13840049655E+03  0.14052670029E+03  0.00000000000E+00 0.  1.
          5    1    4    4  501    0 -0.88011450595E+02 -0.34928378468E+02 -0.28542772752E+02  0.98985702678E+02  0.41800000000E+01 0. -1.
         -5    1    4    4    0  501  0.20001453580E+02  0.19199490073E+02  0.34409914423E+02  0.44386858133E+02  0.41800000000E+01 0. -1.
</event>
<event>
11    1  0.8328696E-009  0.1970330E+03  0.7561462E-02  0.1056642E+00
         22   -1    0    0    0    0  0.00000000000E+00  0.00000000000E+00  0.17168349830E+03  0.17168349830E+03  0.00000000000E+00 0.  1.
         22   -1    0    0    0    0 -0.00000000000E+00 -0.00000000000E+00 -0.54033436894E+03  0.54033436894E+03  0.00000000000E+00 0. -1.
         24    2    1    2    0    0 -0.65087675739E+02 -0.96993997680E+02 -0.13449944053E+03  0.19588972206E+03  0.81476638291E+02 0.  0.
         25    2    1    2    0    0  0.38610447462E+02  0.23020074685E+03 -0.24643002221E+03  0.36174134116E+03  0.12508353829E+03 0.  0.
        -24    2    1    2    0    0  0.26477228276E+02 -0.13320674917E+03  0.12278592096E+02  0.15438680403E+03  0.72383974695E+02 0.  0.
        -11    1    3    3    0    0  0.69513010322E+01 -0.57643444806E+02 -0.38916419224E+02  0.69896888346E+02  0.00000000000E+00 0.  1.
         12    1    3    3    0    0 -0.72038976771E+02 -0.39350552873E+02 -0.95583021305E+02  0.12599283371E+03  0.00000000000E+00 0. -1.
         11    1    5    5    0    0  0.35453361837E+02 -0.12817470913E+03 -0.63130022747E+01  0.13313733858E+03  0.00000000000E+00 0. -1.
        -12    1    5    5    0    0 -0.89761335601E+01 -0.50320400402E+01  0.18591594371E+02  0.21249465450E+02  0.00000000000E+00 0.  1.
          5    1    4    4  501    0 -0.27943501360E+02  0.16630318814E+03 -0.12908118548E+03  0.21240766111E+03  0.41800000000E+01 0.  1.
         -5    1    4    4    0  501  0.66553948822E+02  0.63897558709E+02 -0.11734883673E+03  0.14933368004E+03  0.41800000000E+01 0.  1.
</event>
<event>
11    1  0.8328696E-009  0.1351430E+03  0.7561462E-02  0.1113107E+00
         22   -1    0    0    0    0  0.00000000000E+00  0.00000000000E+00  0.22755643649E+03  0.22755643649E+03  0.00000000000E+00 0. -1.
         22   -1    0    0    0    0 -0.00000000000E+00 -0.00000000000E+00 -0.15802651586E+04  0.15802651586E+04  0.00000000000E+00 0. -1.
        -24    2    1    2    0    0 -0.30442250353E+02  0.53171453805E+01 -0.90735175223E+03  0.91171018836E+03  0.83506063488E+02 0.  0.
         25    2    1    2    0    0  0.48409171004E+02  0.42447765846E+02 -0.65173310730E+03  0.66674605860E+03  0.12509597453E+03 0.  0.
         24    2    1    2    0    0 -0.17966920651E+02 -0.47764911226E+02  0.20637613739E+03  0.22936534817E+03  0.86099104967E+02 0.  0.
        -13    1    5    5    0    0  0.17738531392E+02 -0.17347923582E+02  0.88437349510E+01  0.26340417545E+02  0.00000000000E+00 0.  1.
         14    1    5    5    0    0 -0.35705452043E+02 -0.30416987644E+02  0.19753240244E+03  0.20302493063E+03  0.00000000000E+00 0. -1.
         13    1    3    3    0    0 -0.21460099531E+02 -0.38531344341E+02 -0.42158928378E+03  0.42388999111E+03  0.00000000000E+00 0. -1.
        -14    1    3    3    0    0 -0.89821508221E+01  0.43848489722E+02 -0.48576246845E+03  0.48782019724E+03  0.00000000000E+00 0.  1.
          5    1    4    4  501    0 -0.61221390484E+01  0.73968212890E+02 -0.42203277130E+03  0.42852994009E+03  0.41800000000E+01 0. -1.
         -5    1    4    4    0  501  0.54531310052E+02 -0.31520447044E+02 -0.22970033601E+03  0.23821611851E+03  0.41800000000E+01 0. -1.
</event>
<event>
11    1  0.8328696E-009  0.1530930E+03  0.7561462E-02  0.1093760E+00
         22   -1    0    0    0    0  0.00000000000E+00  0.00000000000E+00  0.52163310623E+03  0.52163310623E+03  0.00000000000E+00 0. -1.
         22   -1    0    0    0    0 -0.00000000000E+00 -0.00000000000E+00 -0.45112689375E+03  0.45112689375E+03  0.00000000000E+00 0.  1.
         24    2    1    2    0    0  0.31321059306E+02  0.16535200536E+02 -0.38023459601E+03  0.39016630784E+03  0.79981111228E+02 0.  0.
         25    2    1    2    0    0 -0.11537046430E+03 -0.10671976097E+02  0.69951328966E+02  0.18428288077E+03  0.12507100629E+03 0.  0.
        -24    2    1    2    0    0  0.84049404997E+02 -0.58632244388E+01  0.38078947953E+03  0.39831081136E+03  0.80945628981E+02 0.  0.
        -11    1    3    3    0    0  0.20812392104E+02  0.98082800279E+00 -0.36603905235E+03  0.36663156647E+03  0.00000000000E+00 0.  1.
         12    1    3    3    0    0  0.10508667202E+02  0.15554372533E+02 -0.14195543666E+02  0.23534741367E+02  0.00000000000E+00 0. -1.
         13    1    5    5    0    0  0.10035848247E+03 -0.57729532656E+01  0.32659685962E+03  0.34171722331E+03  0.00000000000E+00 0. -1.
        -14    1    5    5    0    0 -0.16309077469E+02 -0.90271173249E-01  0.54192619902E+02  0.56593588052E+02  0.00000000000E+00 0.  1.
          5    1    4    4  501    0 -0.92929021136E+02 -0.63214292608E+02  0.38164317334E+02  0.11876799770E+03  0.41800000000E+01 0.  1.
         -5    1    4    4    0  501 -0.22441443167E+02  0.52542316511E+02  0.31787011631E+02  0.65514883074E+02  0.41800000000E+01 0.  1.
</event>
<event>
11    1  0.8328696E-009  0.1363360E+03  0.7561462E-02  0.1111720E+00
         22   -1    0    0    0    0  0.00000000000E+00  0.00000000000E+00  0.81733992314E+03  0.81733992314E+03  0.00000000000E+00 0.  1.
         22   -1    0    0    0    0 -0.00000000000E+00 -0.00000000000E+00 -0.37258331045E+03  0.37258331045E+03  0.00000000000E+00 0.  1.
        -24    2    1    2    0    0 -0.53708473098E+01  0.25101660863E+02 -0.32137473463E+03  0.33200333686E+03  0.79281500045E+02 0.  0.
         25    2    1    2    0    0  0.56375481034E+02 -0.56850308507E+01  0.68291221150E+02  0.15333315838E+03  0.12504739955E+03 0.  0.
         24    2    1    2    0    0 -0.51004633724E+02 -0.19416630012E+02  0.69784012616E+03  0.70458673835E+03  0.80518022759E+02 0.  0.
        -11    1    5    5    0    0 -0.33549779527E+02  0.77659050061E+01  0.61039143196E+03  0.61136208355E+03  0.00000000000E+00 0.  1.
         12    1    5    5    0    0 -0.17454854197E+02 -0.27182535018E+02  0.87448694201E+02  0.93224654799E+02  0.00000000000E+00 0. -1.
         13    1    3    3    0    0 -0.34457448242E+02 -0.11323217017E+01 -0.75128641628E+02  0.82661421986E+02  0.00000000000E+00 0. -1.
        -14    1    3    3    0    0  0.29086600933E+02  0.26233982564E+02 -0.24624609300E+03  0.24934191487E+03  0.00000000000E+00 0.  1.
          5    1    4    4  501    0  0.37475466106E+02  0.22009176149E+02 -0.27606816008E+02  0.51656781595E+02  0.41800000000E+01 0.  1.
         -5    1    4    4    0  501  0.18900014928E+02 -0.27694207000E+02  0.95898037158E+02  0.10167637679E+03  0.41800000000E+01 0.  1.
</event>
<event>
11    1  0.8328696E-009  0.1371504E+03  0.7561462E-02  0.1110783E+00
         22   -1    0    0    0    0  0.00000000000E+00  0.00000000000E+00  0.14171855314E+04  0.14171855314E+04  0.00000000000E+00 0. -1.
         22   -1    0    0    0    0 -0.00000000000E+00 -0.00000000000E+00 -0.99184031833E+03  0.99184031833E+03  0.00000000000E+00 0. -1.
         24    2    1    2    0    0  0.31321382864E+02  0.27965087131E+02 -0.94675126333E+03  0.95090423509E+03  0.78216587664E+02 0.  0.
         25    2    1    2    0    0  0.22434172325E+02 -0.46921374788E+02  0.69557257390E+02  0.15228340097E+03  0.12508842734E+03 0.  0.
        -24    2    1    2    0    0 -0.53755555188E+02  0.18956287657E+02  0.13025392190E+04  0.13058382137E+04  0.73184852756E+02 0.  0.
        -13    1    3    3    0    0 -0.13913311301E+02  0.89939162869E+01 -0.47318881446E+02  0.50135289995E+02  0.00000000000E+00 0.  1.
         14    1    3    3    0    0  0.45234694165E+02  0.18971170844E+02 -0.89943238188E+03  0.90076894510E+03  0.00000000000E+00 0. -1.
         11    1    5    5    0    0 -0.44720457076E+02 -0.21151743750E+02  0.84870439994E+03  0.85014497236E+03  0.00000000000E+00 0. -1.
        -12    1    5    5    0    0 -0.90350981121E+01  0.40108031407E+02  0.45383481907E+03  0.45569324132E+03  0.00000000000E+00 0.  1.
          5    1    4    4  501    0 -0.25940808199E+01  0.17694762339E+02  0.80001152351E+02  0.82082218823E+02  0.41800000000E+01 0. -1.
         -5    1    4    4    0  501  0.25028253144E+02 -0.64616137127E+02 -0.10443894961E+02  0.70201182145E+02  0.41800000000E+01 0. -1.
</event>
<event>
11    1  0.8328696E-009  0.1352465E+03  0.7561462E-02  0.1112986E+00
         22   -1    0    0    0    0  0.00000000000E+00  0.00000000000E+00  0.24279760857E+03  0.24279760857E+03  0.00000000000E+00 0.  1.
         22   -1    0    0    0    0 -0.00000000000E+00 -0.00000000000E+00 -0.11849765649E+04  0.11849765649E+04  0.00000000000E+00 0. -1.
         24    2    1    2    0    0 -0.65993121665E+01 -0.27296977196E+02 -0.11036133968E+04  0.11064012646E+04  0.73297700071E+02 0.  0.
         25    2    1    2    0    0 -0.41655010129E+02  0.43329143402E+02  0.48891999107E+01  0.13886357568E+03  0.12508650541E+03 0.  0.
        -24    2    1    2    0    0  0.48254322296E+02 -0.16032166206E+02  0.15654524058E+03  0.18250933317E+03  0.78852611715E+02 0.  0.
        -13    1    3    3    0    0 -0.27331751921E+02  0.15145120035E+02 -0.43040721275E+03  0.43153999596E+03  0.00000000000E+00 0.  1.
         14    1    3    3    0    0  0.20732439755E+02 -0.42442097232E+02 -0.67320618407E+03  0.67486126867E+03  0.00000000000E+00 0. -1.
         11    1    5    5    0    0  0.19946344953E+02 -0.40279674688E+02  0.40069973936E+02  0.60215543518E+02  0.00000000000E+00 0. -1.
        -12    1    5    5    0    0  0.28307977343E+02  0.24247508482E+02  0.11647526664E+03  0.12229378965E+03  0.00000000000E+00 0.  1.
          5    1    4    4  501    0  0.11317950953E+02  0.16869654189E+02  0.56510801477E+02  0.60196547491E+02  0.41800000000E+01 0.  1.
         -5    1    4    4    0  501 -0.52972961082E+02  0.26459489213E+02 -0.51621601566E+02  0.78667028185E+02  0.41800000000E+01 0.  1.
</event>
<event>
11    1  0.8328696E-009  0.1526080E+03  0.7561462E-02  0.1094243E+00
         22   -1    0    0    0    0  0.00000000000E+00  0.00000000000E+00  0.42993913621E+03  0.42993913621E+03  0.00000000000E+00 0. -1.
         22   -1    0    0    0    0 -0.00000000000E+00 -0.00000000000E+00 -0.51989274226E+03  0.51989274226E+03  0.00000000000E+00 0. -1.
        -24    2    1    2    0    0 -0.35725406730E+02 -0.77204979641E+02 -0.44398707440E+03  0.45906191074E+03  0.79852376869E+02 0.  0.
         25    2    1    2    0    0  0.39328170993E+02  0.12508124195E+03  0.74786473298E+02  0.19602944545E+03  0.12506999948E+03 0.  0.
         24    2    1    2    0    0 -0.36027642634E+01 -0.47876262313E+02  0.27924699505E+03  0.29474052228E+03  0.81166340467E+02 0.  0.
        -13    1    5    5    0    0  0.31590547523E+02 -0.12530875864E+02  0.52264330571E+02  0.62342167052E+02  0.00000000000E+00 0.  1.
         14    1    5    5    0    0 -0.35193311786E+02 -0.35345386449E+02  0.22698266448E+03  0.23239835523E+03  0.00000000000E+00 0. -1.
         11    1    3    3    0    0 -0.53751127279E+02 -0.76878951301E+02 -0.31043314016E+03  0.32429661014E+03  0.00000000000E+00 0. -1.
        -12    1    3    3    0    0  0.18025720550E+02 -0.32602833956E+00 -0.13355393424E+03  0.13476530060E+03  0.00000000000E+00 0.  1.
          5    1    4    4  501    0  0.24459416734E+02  0.88515420520E+01 -0.29186670977E+02  0.39318532861E+02  0.41800000000E+01 0.  1.
         -5    1    4    4    0  501  0.14868754260E+02  0.11622969990E+03  0.10397314428E+03  0.15671091258E+03  0.41800000000E+01 0.  1.
</event>
<event>
11    1  0.8328696E-009  0.1502621E+03  0.7561462E-02  0.1096611E+00
         22   -1    0    0    0    0  0.00000000000E+00  0.00000000000E+00  0.39929713811E+03  0.39929713811E+03  0.00000000000E+00 0.  1.
         22   -1    0    0    0    0 -0.00000000000E+00 -0.00000000000E+00 -0.64149822043E+03  0.64149822043E+03  0.00000000000E+00 0. -1.
         24    2    1    2    0    0 -0.28713971537E+02  0.25132283670E+02 -0.52778092333E+03  0.53513013393E+03  0.79720971873E+02 0.  0.
         25    2    1    2    0    0  0.72129028538E+02  0.46505190373E+02 -0.43045022420E+02  0.15769031309E+03  0.12509209166E+03 0.  0.
        -24    2    1    2    0    0 -0.43415057002E+02 -0.71637474043E+02  0.32862486343E+03  0.34797491152E+03  0.77945130191E+02 0.  0.
        -13    1    3    3    0    0 -0.34884348085E+02  0.39635062226E+02 -0.19636882964E+03  0.20334348564E+03  0.00000000000E+00 0.  1.
         14    1    3    3    0    0  0.61703765483E+01 -0.14502778556E+02 -0.33141209369E+03  0.33178664828E+03  0.00000000000E+00 0. -1.
         11    1    5    5    0    0 -0.82502268924E+01  0.41435747651E+01  0.15522529563E+03  0.15549960726E+03  0.00000000000E+00 0. -1.
        -12    1    5    5    0    0 -0.35164830109E+02 -0.75781048808E+02  0.17339956780E+03  0.19247530426E+03  0.00000000000E+00 0.  1.
          5    1    4    4  501    0  0.75180041499E+02  0.16611115787E+02 -0.79171145402E+02  0.11051475228E+03  0.41800000000E+01 0. -1.
         -5    1    4    4    0  501 -0.30510129607E+01  0.29894074586E+02  0.36126122983E+02  0.47175560804E+02  0.41800000000E+01 0. -1.
</event>
<event>
11    1  0.8328696E-009  0.1295667E+03  0.7561462E-02  0.1119803E+00
         22   -1    0    0    0    0  0.00000000000E+00  0.00000000000E+00  0.31406955221E+04  0.31406955221E+04  0.00000000000E+00 0. -1.
         22   -1    0    0    0    0 -0.00000000000E+00 -0.00000000000E+00 -0.33660313767E+02  0.33660313767E+02  0.00000000000E+00 0.  1.
         24    2    1    2    0    0 -0.12208242372E+02  0.16881827822E+01  0.48013773205E+02  0.94920458183E+02  0.80948624579E+02 0.  0.
         25    2    1    2    0    0  0.51606519750E+01  0.31613059034E+02  0.42890752928E+03  0.44792336886E+03  0.12509059862E+03 0.  0.
        -24    2    1    2    0    0  0.70475903974E+01 -0.33301241816E+02  0.26301139059E+04  0.26315120088E+04  0.78725177936E+02 0.  0.
        -11    1    3    3    0    0  0.18060604165E+02 -0.30521747952E+02  0.10610814335E+02  0.37018264434E+02  0.00000000000E+00 0.  1.
         12    1    3    3    0    0 -0.30268846537E+02  0.32209930734E+02  0.37402958870E+02  0.57902193748E+02  0.00000000000E+00 0. -1.
         13    1    5    5    0    0 -0.28255322219E+02 -0.40834966233E+02  0.14997729839E+04  0.15005948357E+04  0.00000000000E+00 0. -1.
        -14    1    5    5    0    0  0.35302912616E+02  0.75337244166E+01  0.11303409220E+04  0.11309171731E+04  0.00000000000E+00 0.  1.
          5    1    4    4  501    0 -0.32064313299E+02 -0.30085814664E+02  0.26736581841E+03  0.27098935345E+03  0.41800000000E+01 0. -1.
         -5    1    4    4    0  501  0.37224965274E+02  0.61698873698E+02  0.16154171087E+03  0.17693401540E+03  0.41800000000E+01 0. -1.
</event>
<event>
11    1  0.8328696E-009  0.1604356E+03  0.7561462E-02  0.1086668E+00
         22   -1    0    0    0    0  0.00000000000E+00  0.00000000000E+00  0.18842615582E+03  0.18842615582E+03  0.00000000000E+00 0.  1.
         22   -1    0    0    0    0 -0.00000000000E+00 -0.00000000000E+00 -0.19386321209E+04  0.19386321209E+04  0.00000000000E+00 0. -1.
         24    2    1    2    0    0 -0.35418502363E+02  0.92438490614E+02 -0.17385762274E+04  0.17432146217E+04  0.79690488598E+02 0.  0.
         25    2    1    2    0    0  0.23121630555E+02 -0.12914046941E+03 -0.13900850534E+03  0.22842980313E+03  0.12507973361E+03 0.  0.
        -24    2    1    2    0    0  0.12296871808E+02  0.36701978797E+02  0.12737876765E+03  0.15541385191E+03  0.80186449069E+02 0.  0.
        -13    1    3    3    0    0 -0.37915079935E+02  0.88219419929E+01 -0.35898484929E+03  0.36108932685E+03  0.00000000000E+00 0.  1.
         14    1    3    3    0    0  0.24965775723E+01  0.83616548621E+02 -0.13795913781E+04  0.13821252949E+04  0.00000000000E+00 0. -1.
         13    1    5    5    0    0 -0.63808057282E+01  0.48312871975E+02  0.33852574075E+02  0.59336709141E+02  0.00000000000E+00 0. -1.
        -14    1    5    5    0    0  0.18677677537E+02 -0.11610893177E+02  0.93526193573E+02  0.96077142770E+02  0.00000000000E+00 0.  1.
          5    1    4    4  501    0  0.67332353533E+02 -0.10239558324E+03 -0.12416328399E+03  0.17450643195E+03  0.41800000000E+01 0. -1.
         -5    1    4    4    0  501 -0.44210722978E+02 -0.26744886167E+02 -0.14845221351E+02  0.53923371179E+02  0.41800000000E+01 0. -1.
</event>
<event>
11    1  0.8328696E-009  0.2688428E+03  0.7561462E-02  0.1014314E+00
         22   -1    0    0    0    0  0.00000000000E+00  0.00000000000E+00  0.13042535858E+03  0.13042535858E+03  0.00000000000E+00 0. -1.
         22   -1    0    0    0    0 -0.00000000000E+00 -0.00000000000E+00 -0.10335370706E+04  0.10335370706E+04  0.00000000000E+00 0.  1.
         24    2    1    2    0    0  0.23923819855E+03  0.98957062818E+02 -0.68353962517E+03  0.73640780991E+03  0.89680696931E+02 0.  0.
         25    2    1    2    0    0 -0.15705609279E+03 -0.12398416443E+03 -0.19907225982E+03  0.30873329735E+03  0.12509114657E+03 0.  0.
        -24    2    1    2    0    0 -0.82182105756E+02  0.25027101617E+02 -0.20499827036E+02  0.11882132192E+03  0.79485906378E+02 0.  0.
        -11    1    3    3    0    0  0.22621140703E+03  0.79812953251E+02 -0.66436180024E+03  0.70634149659E+03  0.00000000000E+00 0.  1.
         12    1    3    3    0    0  0.13026791512E+02  0.19144109567E+02 -0.19177824926E+02  0.30066313327E+02  0.00000000000E+00 0. -1.
         11    1    5    5    0    0 -0.90328670034E+02  0.24056764190E+02 -0.36889500048E+02  0.10049294377E+03  0.00000000000E+00 0. -1.
        -12    1    5    5    0    0  0.81465642780E+01  0.97033742683E+00  0.16389673013E+02  0.18328378153E+02  0.00000000000E+00 0.  1.
          5    1    4    4  501    0 -0.36535746217E+02 -0.96794214297E+02 -0.49738064880E+02  0.11487091961E+03  0.41800000000E+01 0.  1.
         -5    1    4    4    0  501 -0.12052034657E+03 -0.27189950138E+02 -0.14933419494E+03  0.19386237774E+03  0.41800000000E+01 0.  1.
</event>
<event>
11    1  0.8328696E-009  0.1459029E+03  0.7561462E-02  0.1101140E+00
         22   -1    0    0    0    0  0.00000000000E+00  0.00000000000E+00  0.19636853177E+03  0.19636853177E+03  0.00000000000E+00 0. -1.
         22   -1    0    0    0    0 -0.00000000000E+00 -0.00000000000E+00 -0.89839197335E+03  0.89839197335E+03  0.00000000000E+00 0.  1.
         24    2    1    2    0    0  0.29113093906E+02  0.63375768103E+02 -0.45840838922E+03  0.47138146075E+03  0.84842029802E+02 0.  0.
         25    2    1    2    0    0 -0.29229910603E+02 -0.81521941544E+02 -0.40992515804E+03  0.43724780508E+03  0.12508714255E+03 0.  0.
        -24    2    1    2    0    0  0.11681669637E+00  0.18146173440E+02  0.16631010568E+03  0.18613123929E+03  0.81587313544E+02 0.  0.
        -13    1    3    3    0    0 -0.19218699164E+01  0.69620969009E+01 -0.30400861879E+03  0.30409440093E+03  0.00000000000E+00 0.  1.
         14    1    3    3    0    0  0.31034963823E+02  0.56413671202E+02 -0.15439977042E+03  0.16728705982E+03  0.00000000000E+00 0. -1.
         11    1    5    5    0    0 -0.12695401103E+02 -0.28677129959E+02  0.93520795994E+02  0.98639192389E+02  0.00000000000E+00 0. -1.
        -12    1    5    5    0    0  0.12812217799E+02  0.46823303399E+02  0.72789309682E+02  0.87492046897E+02  0.00000000000E+00 0.  1.
          5    1    4    4  501    0 -0.69072197257E+02 -0.70865751362E+02 -0.35424173691E+03  0.36782822583E+03  0.41800000000E+01 0.  1.
         -5    1    4    4    0  501  0.39842286654E+02 -0.10656190182E+02 -0.55683421130E+02  0.69419579253E+02  0.41800000000E+01 0.  1.
</event>
<event>
11    1  0.8328696E-009  0.1564083E+03  0.7561462E-02  0.1090505E+00
         22   -1    0    0    0    0  0.00000000000E+00  0.00000000000E+00  0.10933980576E+04  0.10933980576E+04  0.00000000000E+00 0.  1.
         22   -1    0    0    0    0 -0.00000000000E+00 -0.00000000000E+00 -0.58347934441E+03  0.58347934441E+03  0.00000000000E+00 0.  1.
        -24    2    1    2    0    0 -0.65529290246E+02 -0.67044389171E+02 -0.52740590830E+03  0.54144174396E+03  0.78823422905E+02 0.  0.
         25    2    1    2    0    0  0.32237767622E+02  0.10308057955E+03  0.99380071897E+02  0.19284517106E+03  0.12509189330E+03 0.  0.
         24    2    1    2    0    0  0.33291522623E+02 -0.36036190383E+02  0.93794454957E+03  0.94259048697E+03  0.79560766409E+02 0.  0.
        -11    1    5    5    0    0 -0.62481304591E+01 -0.38199902064E+02  0.72255984215E+03  0.72359587971E+03  0.00000000000E+00 0.  1.
         12    1    5    5    0    0  0.39539653082E+02  0.21637116809E+01  0.21538470742E+03  0.21899460725E+03  0.00000000000E+00 0. -1.
         13    1    3    3    0    0  0.10734057326E+02  0.76979158069E+01 -0.31284323096E+02  0.33958603711E+02  0.00000000000E+00 0. -1.
        -14    1    3    3    0    0 -0.76263347572E+02 -0.74742304978E+02 -0.49612158520E+03  0.50748314025E+03  0.00000000000E+00 0.  1.
          5    1    4    4  501    0  0.45052469486E+02  0.54338704826E+02  0.11914590331E+03  0.13854832559E+03  0.41800000000E+01 0. -1.
         -5    1    4    4    0  501 -0.12814701863E+02  0.48741874728E+02 -0.19765831416E+02  0.54296845465E+02  0.41800000000E+01 0. -1.
</event>
<event>
11    1  0.8328696E-009  0.1420653E+03  0.7561462E-02  0.1105274E+00
         22   -1    0    0    0    0  0.00000000000E+00  0.00000000000E+00  0.19920511745E+03  0.19920511745E+03  0.00000000000E+00 0. -1.
         22   -1    0    0    0    0 -0.00000000000E+00 -0.00000000000E+00 -0.24083166070E+04  0.24083166070E+04  0.00000000000E+00 0.  1.
         24    2    1    2    0    0 -0.59844580021E+02  0.36940411202E+02 -0.21733726600E+04  0.21760295932E+04  0.81302544442E+02 0.  0.
         25    2    1    2    0    0  0.30501126565E+02  0.20952349604E+01 -0.20218299016E+03  0.23971171006E+03  0.12509609785E+03 0.  0.
        -24    2    1    2    0    0  0.29343453457E+02 -0.39035646163E+02  0.16644416055E+03  0.19178042120E+03  0.81800069947E+02 0.  0.
        -13    1    3    3    0    0 -0.64920668535E+02  0.53352543168E+02 -0.14357829647E+04  0.14382398648E+04  0.00000000000E+00 0.  1.
         14    1    3    3    0    0  0.50760885134E+01 -0.16412131966E+02 -0.73758969532E+03  0.73778972844E+03  0.00000000000E+00 0. -1.
         11    1    5    5    0    0  0.27878881535E+02 -0.29293021031E+02  0.17445618425E+03  0.17908175044E+03  0.00000000000E+00 0. -1.
        -12    1    5    5    0    0  0.14645719214E+01 -0.97426251316E+01 -0.80120237013E+01  0.12698670763E+02  0.00000000000E+00 0.  1.
          5    1    4    4  501    0 -0.38734642040E+02 -0.20630523612E+02 -0.12911293223E+03  0.13643171430E+03  0.41800000000E+01 0. -1.
         -5    1    4    4    0  501  0.69235768605E+02  0.22725758572E+02 -0.73070057929E+02  0.10327999575E+03  0.41800000000E+01 0. -1.
</event>
<event>
11    1  0.8328696E-009  0.2480479E+03  0.7561462E-02  0.1024944E+00
         22   -1    0    0    0    0  0.00000000000E+00  0.00000000000E+00  0.13596100430E+03  0.13596100430E+03  0.00000000000E+00 0.  1.
         22   -1    0    0    0    0 -0.00000000000E+00 -0.00000000000E+00 -0.26879751216E+04  0.26879751216E+04  0.00000000000E+00 0. -1.
        -24    2    1    2    0    0 -0.10249786801E+03  0.18970154942E+03 -0.23755430209E+04  0.23866686543E+04  0.80561344585E+02 0.  0.
         25    2    1    2    0    0  0.16389953472E+03 -0.13639880057E+03 -0.20360928872E+03  0.32027243286E+03  0.12509995409E+03 0.  0.
         24    2    1    2    0    0 -0.61401666712E+02 -0.53302748840E+02  0.27138192335E+02  0.11699503877E+03  0.79624179146E+02 0.  0.
        -13    1    5    5    0    0 -0.68211033033E+02 -0.89361373760E+01  0.19085885616E+02  0.71392370800E+02  0.00000000000E+00 0.  1.
         14    1    5    5    0    0  0.68093663214E+01 -0.44366611464E+02  0.80523067190E+01  0.45602667970E+02  0.00000000000E+00 0. -1.
         13    1    3    3    0    0 -0.10534267101E+03  0.12026895630E+03 -0.17444601950E+04  0.17517714098E+04  0.00000000000E+00 0. -1.
        -14    1    3    3    0    0  0.28448029966E+01  0.69432593116E+02 -0.63108282596E+03  0.63489724453E+03  0.00000000000E+00 0.  1.
          5    1    4    4  501    0  0.57088550298E+02 -0.11632018981E+03 -0.15232794957E+03  0.20002691257E+03  0.41800000000E+01 0.  1.
         -5    1    4    4    0  501  0.10681098443E+03 -0.20078610767E+02 -0.51281339156E+02  0.12024552029E+03  0.41800000000E+01 0.  1.
</event>
<event>
11    1  0.8328696E-009  0.2890933E+03  0.7561462E-02  0.1004916E+00
         22   -1    0    0    0    0  0.00000000000E+00  0.00000000000E+00  0.64651850535E+03  0.64651850535E+03  0.00000000000E+00 0. -1.
         22   -1    0    0    0    0 -0.00000000000E+00 -0.00000000000E+00 -0.88188365607E+03  0.88188365607E+03  0.00000000000E+00 0. -1.
        -24    2    1    2    0    0  0.68307312004E+02  0.11668909358E+03 -0.60878987562E+03  0.62878970728E+03  0.80431025689E+02 0.  0.
         25    2    1    2    0    0 -0.10630644706E+03 -0.35739417502E+03 -0.58163760416E+02  0.39757059169E+03  0.12509074839E+03 0.  0.
         24    2    1    2    0    0  0.37999135052E+02  0.24070508144E+03  0.43158848531E+03  0.50204186245E+03  0.79965870882E+02 0.  0.
        -11    1    5    5    0    0 -0.24383311982E+02  0.84549189037E+02  0.16035310355E+03  0.18291044007E+03  0.00000000000E+00 0.  1.
         12    1    5    5    0    0  0.62382447034E+02  0.15615589240E+03  0.27123538177E+03  0.31913142238E+03  0.00000000000E+00 0. -1.
         11    1    3    3    0    0  0.75320569813E+02  0.95920567258E+02 -0.57956156443E+03  0.59225463310E+03  0.00000000000E+00 0. -1.
        -12    1    3    3    0    0 -0.70132578089E+01  0.20768526322E+02 -0.29228311184E+02  0.36535074180E+02  0.00000000000E+00 0.  1.
          5    1    4    4  501    0 -0.96398928782E+02 -0.20419983605E+03  0.17201500466E+02  0.22650317996E+03  0.41800000000E+01 0.  1.
         -5    1    4    4    0  501 -0.99075182741E+01 -0.15319433896E+03 -0.75365260882E+02  0.17106741173E+03  0.41800000000E+01 0.  1.
</event>
<event>
11    1  0.8924183E-009  0.1738130E+03  0.7561462E-02  0.1074760E+00
         22   -1    0    0    0    0  0.00000000000E+00  0.00000000000E+00  0.53225675993E+03  0.53225675993E+03  0.00000000000E+00 0.  1.
         22   -1    0    0    0    0 -0.00000000000E+00 -0.00000000000E+00 -0.53225113499E+03  0.53225113499E+03  0.00000000000E+00 0. -1.
         24    2    1    2    0    0  0.14043730879E+02  0.24548963784E+02 -0.35626227569E+03  0.36465326695E+03  0.72452177481E+02 0.  0.
         25    2    1    2    0    0  0.53102547160E+02 -0.12389074628E+03 -0.10876388218E+03  0.21364574475E+03  0.12508447008E+03 0.  0.
        -24    2    1    2    0    0 -0.67146278039E+02  0.99341782493E+02  0.46503178280E+03  0.48620888322E+03  0.75941468889E+02 0.  0.
        -11    1    3    3    0    0  0.31268828234E+02 -0.12994557460E+02 -0.11504160630E+03  0.11992151318E+03  0.00000000000E+00 0.  1.
         12    1    3    3    0    0 -0.17225097355E+02  0.37543521244E+02 -0.24122066939E+03  0.24473175378E+03  0.00000000000E+00 0. -1.
         11    1    5    5    0    0  0.32241482682E+01  0.37266768010E+02  0.62106946911E+02  0.72501586083E+02  0.00000000000E+00 0. -1.
        -12    1    5    5    0    0 -0.70370426307E+02  0.62075014483E+02  0.40292483589E+03  0.41370729713E+03  0.00000000000E+00 0.  1.
          5    1    4    4  501    0  0.73636309490E+02 -0.13633081892E+03 -0.75505941111E+02  0.17241524819E+03  0.41800000000E+01 0.  1.
         -5    1    4    4    0  501 -0.20533762330E+02  0.12440072647E+02 -0.33257941066E+02  0.41230496563E+02  0.41800000000E+01 0.  1.
</event>
<event>
11    1  0.8328696E-009  0.1394746E+03  0.7561462E-02  0.1108147E+00
         22   -1    0    0    0    0  0.00000000000E+00  0.00000000000E+00  0.41564906969E+03  0.41564906969E+03  0.00000000000E+00 0.  1.
         22   -1    0    0    0    0 -0.00000000000E+00 -0.00000000000E+00 -0.27498457585E+03  0.27498457585E+03  0.00000000000E+00 0.  1.
        -24    2    1    2    0    0 -0.16306096157E+02 -0.60625333514E+02 -0.16054677269E+03  0.19043771156E+03  0.80931674438E+02 0.  0.
         25    2    1    2    0    0 -0.44748326129E+02  0.71108747319E+02 -0.29863788158E+02  0.15361804486E+03  0.12509113168E+03 0.  0.
         24    2    1    2    0    0  0.61054422286E+02 -0.10483413806E+02  0.33107505469E+03  0.34657788913E+03  0.81657803972E+02 0.  0.
        -13    1    5    5    0    0  0.65467876539E+02  0.20539448863E+02  0.18848653272E+03  0.20058685110E+03  0.00000000000E+00 0.  1.
         14    1    5    5    0    0 -0.44134542531E+01 -0.31022862669E+02  0.14258852197E+03  0.14599103803E+03  0.00000000000E+00 0. -1.
         11    1    3    3    0    0 -0.18974498715E+02  0.16293997338E+02 -0.47424344874E+02  0.53615244451E+02  0.00000000000E+00 0. -1.
        -12    1    3    3    0    0  0.26684025584E+01 -0.76919330852E+02 -0.11312242781E+03  0.13682246711E+03  0.00000000000E+00 0.  1.
          5    1    4    4  501    0  0.34765439991E+02  0.28705931114E-01 -0.31164111697E+02  0.46875482927E+02  0.41800000000E+01 0. -1.
         -5    1    4    4    0  501 -0.79513766119E+02  0.71080041388E+02  0.13003235389E+01  0.10674256193E+03  0.41800000000E+01 0. -1.
</event>
<event>
11    1  0.8328696E-009  0.1275140E+03  0.7561462E-02  0.1122362E+00
         22   -1    0    0    0    0  0.00000000000E+00  0.00000000000E+00  0.70069051099E+02  0.70069051099E+02  0.00000000000E+00 0. -1.
         22   -1    0    0    0    0 -0.00000000000E+00 -0.00000000000E+00 -0.23639294356E+04  0.23639294356E+04  0.00000000000E+00 0. -1.
         24    2    1    2    0    0  0.72266654791E+00  0.18916450595E+02 -0.15445275464E+04  0.15468029643E+04  0.81705044792E+02 0.  0.
         25    2    1    2    0    0 -0.12216954209E+02 -0.40152127139E+02 -0.78452663365E+03  0.79554478803E+03  0.12509206038E+03 0.  0.
        -24    2    1    2    0    0  0.11494287661E+02  0.21235676545E+02  0.35193795609E+02  0.91650734337E+02  0.81105987745E+02 0.  0.
        -11    1    3    3    0    0 -0.12417879435E+02  0.31892376581E+02 -0.27242815819E+03  0.27456953362E+03  0.00000000000E+00 0.  1.
         12    1    3    3    0    0  0.13140545983E+02 -0.12975925987E+02 -0.12720993882E+04  0.12722334307E+04  0.00000000000E+00 0. -1.
         13    1    5    5    0    0  0.15482239777E+02 -0.25893735087E+02  0.32398796001E+02  0.44270387931E+02  0.00000000000E+00 0. -1.
        -14    1    5    5    0    0 -0.39879521159E+01  0.47129411631E+02  0.27949996084E+01  0.47380346407E+02  0.00000000000E+00 0.  1.
          5    1    4    4  501    0 -0.29640109166E+02 -0.77224088111E+02 -0.37960586921E+03  0.38853594968E+03  0.41800000000E+01 0. -1.
         -5    1    4    4    0  501  0.17423154957E+02  0.37071960971E+02 -0.40492076443E+03  0.40700883834E+03  0.41800000000E+01 0. -1.
</event>
<event>
11    1  0.8328696E-009  0.3728246E+03  0.7561462E-02  0.9733528E-01
         22   -1    0    0    0    0  0.00000000000E+00  0.00000000000E+00  0.34107228768E+04  0.34107228768E+04  0.00000000000E+00 0.  1.
         22   -1    0    0    0    0 -0.00000000000E+00 -0.00000000000E+00 -0.26596834847E+03  0.26596834847E+03  0.00000000000E+00 0.  1.
        -24    2    1    2    0    0  0.11882777695E+03  0.30410439982E+03 -0.84359180953E+02  0.34690590164E+03  0.81410727906E+02 0.  0.
         25    2    1    2    0    0  0.20589721830E+03 -0.39747296327E+03  0.17712995831E+04  0.18312641222E+04  0.12509057052E+03 0.  0.
         24    2    1    2    0    0 -0.32472499525E+03  0.93368563454E+02  0.14578141261E+04  0.14985212014E+04  0.78611409600E+02 0.  0.
        -13    1    5    5    0    0 -0.11955359797E+03  0.48982241847E+02  0.40955851667E+03  0.42945372438E+03  0.00000000000E+00 0.  1.
         14    1    5    5    0    0 -0.20517139728E+03  0.44386321607E+02  0.10482556094E+04  0.10690674771E+04  0.00000000000E+00 0. -1.
         13    1    3    3    0    0  0.24030082373E+02  0.16591454872E+02 -0.24917397501E+02  0.38387471027E+02  0.00000000000E+00 0. -1.
        -14    1    3    3    0    0  0.94797694582E+02  0.28751294494E+03 -0.59441783452E+02  0.30851843061E+03  0.00000000000E+00 0.  1.
          5    1    4    4  501    0  0.18586503492E+03 -0.38804916445E+03  0.15435192855E+04  0.16023723732E+04  0.41800000000E+01 0. -1.
         -5    1    4    4    0  501  0.20032183383E+02 -0.94237988211E+01  0.22778029760E+03  0.22889174894E+03  0.41800000000E+01 0. -1.
</event>
<event>
11    1  0.8328696E-009  0.1766525E+03  0.7561462E-02  0.1072383E+00
         22   -1    0    0    0    0  0.00000000000E+00  0.00000000000E+00  0.16377993732E+03  0.16377993732E+03  0.00000000000E+00 0.  1.
         22   -1    0    0    0    0 -0.00000000000E+00 -0.00000000000E+00 -0.15146066712E+04  0.15146066712E+04  0.00000000000E+00 0.  1.
         24    2    1    2    0    0  0.41833743599E+01  0.42644897396E+02 -0.12569589087E+04  0.12604030065E+04  0.82667724473E+02 0.  0.
         25    2    1    2    0    0 -0.56486684068E+02  0.78016387941E+02 -0.17945514351E+03  0.23901736663E+03  0.12509136961E+03 0.  0.
        -24    2    1    2    0    0  0.52303309708E+02 -0.12066128534E+03  0.85587318327E+02  0.17896623542E+03  0.86075213486E+02 0.  0.
        -11    1    3    3    0    0  0.68311605579E+00 -0.90703675388E+01 -0.86310530155E+03  0.86315323076E+03  0.00000000000E+00 0.  1.
         12    1    3    3    0    0  0.35002583041E+01  0.51715264934E+02 -0.39385360719E+03  0.39724977575E+03  0.00000000000E+00 0. -1.
         13    1    5    5    0    0 -0.15507774288E+02 -0.36487992167E+02  0.52769891824E+02  0.66003985629E+02  0.00000000000E+00 0. -1.
        -14    1    5    5    0    0  0.67811083996E+02 -0.84173293169E+02  0.32817426503E+02  0.11296224979E+03  0.00000000000E+00 0.  1.
          5    1    4    4  501    0 -0.23177063291E+02 -0.31843631842E+02 -0.69541061671E+02  0.80028899843E+02  0.41800000000E+01 0.  1.
         -5    1    4    4    0  501 -0.33309620776E+02  0.10986001978E+03 -0.10991408184E+03  0.15898846678E+03  0.41800000000E+01 0.  1.
</event>
<event>
11    1  0.8328696E-009  0.1421312E+03  0.7561462E-02  0.1105202E+00
         22   -1    0    0    0    0  0.00000000000E+00  0.00000000000E+00  0.45221229542E+03  0.45221229542E+03  0.00000000000E+00 0. -1.
         22   -1    0    0    0    0 -0.00000000000E+00 -0.00000000000E+00 -0.95719711959E+03  0.95719711959E+03  0.00000000000E+00 0.  1.
        -24    2    1    2    0    0 -0.26778699260E+02 -0.20641266989E+02 -0.91879972750E+03  0.92354343870E+03  0.87157233087E+02 0.  0.
         25    2    1    2    0    0  0.63960123530E+02  0.63011181623E+02  0.22298945671E+03  0.27098518717E+03  0.12508943780E+03 0.  0.
         24    2    1    2    0    0 -0.37181424269E+02 -0.42369914634E+02  0.19082544662E+03  0.21488078915E+03  0.81127889720E+02 0.  0.
        -13    1    5    5    0    0 -0.46146970853E+01 -0.18486953794E+02 -0.77540260367E+00  0.19069980046E+02  0.00000000000E+00 0.  1.
         14    1    5    5    0    0 -0.32566727184E+02 -0.23882960840E+02  0.19160084922E+03  0.19581080910E+03  0.00000000000E+00 0. -1.
         13    1    3    3    0    0  0.19470423837E+02 -0.26362982122E+02 -0.16043749132E+03  0.16375070336E+03  0.00000000000E+00 0. -1.
        -14    1    3    3    0    0 -0.46249123097E+02  0.57217151329E+01 -0.75836223617E+03  0.75979273533E+03  0.00000000000E+00 0.  1.
          5    1    4    4  501    0  0.74611836274E+02  0.77277947391E+02  0.10057723094E+03  0.14721433031E+03  0.41800000000E+01 0. -1.
         -5    1    4    4    0  501 -0.10651712744E+02 -0.14266765769E+02  0.12241222577E+03  0.12377085686E+03  0.41800000000E+01 0. -1.
</event>
<event>
11    1  0.8328696E-009  0.1857517E+03  0.7561462E-02  0.1065083E+00
         22   -1    0    0    0    0  0.00000000000E+00  0.00000000000E+00  0.15255599206E+04  0.15255599206E+04  0.00000000000E+00 0. -1.
         22   -1    0    0    0    0 -0.00000000000E+00 -0.00000000000E+00 -0.14852879188E+03  0.14852879188E+03  0.00000000000E+00 0. -1.
         24    2    1    2    0    0 -0.81417703286E+02  0.12489285956E+03 -0.67760661510E+02  0.18239576146E+03  0.80309636865E+02 0.  0.
         25    2    1    2    0    0 -0.19121998944E+02 -0.95074434885E+02  0.29952825849E+03  0.33877752105E+03  0.12509289398E+03 0.  0.
        -24    2    1    2    0    0  0.10053970223E+03 -0.29818424678E+02  0.11452635318E+04  0.11529154300E+04  0.81166873545E+02 0.  0.
        -13    1    3    3    0    0 -0.42413476644E+02  0.54404535938E+01 -0.90985061212E+01  0.43718238185E+02  0.00000000000E+00 0.  1.
         14    1    3    3    0    0 -0.39004226641E+02  0.11945240597E+03 -0.58662155389E+02  0.13867752328E+03  0.00000000000E+00 0. -1.
         13    1    5    5    0    0  0.22692501067E+02  0.27546348862E+02  0.33911027946E+03  0.34098318518E+03  0.00000000000E+00 0. -1.
        -14    1    5    5    0    0  0.77847201162E+02 -0.57364773539E+02  0.80615325231E+03  0.81193224482E+03  0.00000000000E+00 0.  1.
          5    1    4    4  501    0  0.32283098738E+02  0.15014041006E+02  0.83942880598E+02  0.91277048016E+02  0.41800000000E+01 0. -1.
         -5    1    4    4    0  501 -0.51405097681E+02 -0.11008847589E+03  0.21558537789E+03  0.24750047304E+03  0.41800000000E+01 0. -1.
</event>
<event>
11    1  0.8328696E-009  0.1281191E+03  0.7561462E-02  0.1121602E+00
         22   -1    0    0    0    0  0.00000000000E+00  0.00000000000E+00  0.85236537018E+03  0.85236537018E+03  0.00000000000E+00 0. -1.
         22   -1    0    0    0    0 -0.00000000000E+00 -0.00000000000E+00 -0.24293082441E+03  0.24293082441E+03  0.00000000000E+00 0.  1.
        -24    2    1    2    0    0 -0.19173907972E+02 -0.19132057057E+02 -0.21451848604E+03  0.23074295717E+03  0.80563373054E+02 0.  0.
         25    2    1    2    0    0  0.32921911221E+02  0.33841374416E+02  0.23895115023E+03  0.27381338629E+03  0.12508807879E+03 0.  0.
         24    2    1    2    0    0 -0.13748003250E+02 -0.14709317359E+02  0.58500188158E+03  0.59073985113E+03  0.79630387725E+02 0.  0.
        -11    1    5    5    0    0  0.28486429379E+02  0.66221007147E+01  0.33685894354E+03  0.33812612546E+03  0.00000000000E+00 0.  1.
         12    1    5    5    0    0 -0.42234432629E+02 -0.21331418073E+02  0.24814293804E+03  0.25261372567E+03  0.00000000000E+00 0. -1.
         11    1    3    3    0    0  0.10572364942E+02  0.16804594548E+02 -0.12620395018E+02  0.23525383499E+02  0.00000000000E+00 0. -1.
        -12    1    3    3    0    0 -0.29746272914E+02 -0.35936651605E+02 -0.20189809102E+03  0.20721757367E+03  0.00000000000E+00 0.  1.
          5    1    4    4  501    0 -0.34093294055E+02 -0.26255630711E+02  0.68351722326E+02  0.80877321843E+02  0.41800000000E+01 0. -1.
         -5    1    4    4    0  501  0.67015205276E+02  0.60097005126E+02  0.17059942791E+03  0.19293606445E+03  0.41800000000E+01 0. -1.
</event>
<event>
11    1  0.8328696E-009  0.2118869E+03  0.7561462E-02  0.1046422E+00
         22   -1    0    0    0    0  0.00000000000E+00  0.00000000000E+00  0.11977235930E+04  0.11977235930E+04  0.00000000000E+00 0. -1.
         22   -1    0    0    0    0 -0.00000000000E+00 -0.00000000000E+00 -0.22213082074E+04  0.22213082074E+04  0.00000000000E+00 0.  1.
        -24    2    1    2    0    0  0.20648380297E+01 -0.15570624583E+02 -0.19165804836E+04  0.19182680263E+04  0.78897164169E+02 0.  0.
         25    2    1    2    0    0  0.11053204438E+03 -0.11359902452E+03 -0.26174862031E+03  0.33057745326E+03  0.12508813357E+03 0.  0.
         24    2    1    2    0    0 -0.11259688241E+03  0.12916964910E+03  0.11547444896E+04  0.11701863209E+04  0.80859959962E+02 0.  0.
        -13    1    5    5    0    0 -0.20996719957E+02  0.39314291197E+01  0.34806856471E+03  0.34872344934E+03  0.00000000000E+00 0.  1.
         14    1    5    5    0    0 -0.91600162451E+02  0.12523821998E+03  0.80667592487E+03  0.82146287152E+03  0.00000000000E+00 0. -1.
         13    1    3    3    0    0  0.35371838513E+01 -0.26351348782E+02 -0.21302512165E+03  0.21467791621E+03  0.00000000000E+00 0. -1.
        -14    1    3    3    0    0 -0.14723458216E+01  0.10780724200E+02 -0.17035553620E+04  0.17035901100E+04  0.00000000000E+00 0.  1.
          5    1    4    4  501    0  0.10568343515E+03 -0.11949159031E+03 -0.27308246541E+03  0.31628900381E+03  0.41800000000E+01 0. -1.
         -5    1    4    4    0  501  0.48486092260E+01  0.58925657863E+01  0.11333845093E+02  0.14288449446E+02  0.41800000000E+01 0. -1.
</event>
<event>
11    1  0.8328696E-009  0.1683588E+03  0.7561462E-02  0.1079469E+00
         22   -1    0    0    0    0  0.00000000000E+00  0.00000000000E+00  0.10144218444E+04  0.10144218444E+04  0.00000000000E+00 0.  1.
         22   -1    0    0    0    0 -0.00000000000E+00 -0.00000000000E+00 -0.25416041837E+03  0.25416041837E+03  0.00000000000E+00 0. -1.
        -24    2    1    2    0    0  0.71767460762E+02 -0.82632247772E+02 -0.18976837091E+03  0.23351625285E+03  0.80865004492E+02 0.  0.
         25    2    1    2    0    0 -0.82271788743E+02  0.12452202765E+03  0.19999697176E+03  0.27914294776E+03  0.12509042321E+03 0.  0.
         24    2    1    2    0    0  0.10504327981E+02 -0.41889779880E+02  0.75003282519E+03  0.75592306216E+03  0.83697923917E+02 0.  0.
        -11    1    5    5    0    0  0.46309435608E+02 -0.30171474618E+02  0.50417044716E+03  0.50719101086E+03  0.00000000000E+00 0.  1.
         12    1    5    5    0    0 -0.35805107627E+02 -0.11718305262E+02  0.24586237804E+03  0.24873205130E+03  0.00000000000E+00 0. -1.
         13    1    3    3    0    0  0.43929049527E+02 -0.24675755632E+02 -0.14923341799E+03  0.15750957861E+03  0.00000000000E+00 0. -1.
        -14    1    3    3    0    0  0.27838411236E+02 -0.57956492141E+02 -0.40534952923E+02  0.76006674245E+02  0.00000000000E+00 0.  1.
          5    1    4    4  501    0 -0.74003002163E+02  0.14611394371E+03  0.19574878887E+03  0.25526611530E+03  0.41800000000E+01 0.  1.
         -5    1    4    4    0  501 -0.82687865799E+01 -0.21591916059E+02  0.42481828873E+01  0.23876832462E+02  0.41800000000E+01 0.  1.
</event>
<event>
11    1  0.8328696E-009  0.1263061E+03  0.7561462E-02  0.1123893E+00
         22   -1    0    0    0    0  0.00000000000E+00  0.00000000000E+00  0.13069075409E+03  0.13069075409E+03  0.00000000000E+00 0.  1.
         22   -1    0    0    0    0 -0.00000000000E+00 -0.00000000000E+00 -0.38292242528E+03  0.38292242528E+03  0.00000000000E+00 0.  1.
         24    2    1    2    0    0  0.50749168389E+01 -0.17980336832E+02 -0.22032838567E+03  0.23552422944E+03  0.81104980279E+02 0.  0.
         25    2    1    2    0    0 -0.82698459422E+01  0.11011111592E+02 -0.10967723034E+03  0.16693138762E+03  0.12508940158E+03 0.  0.
        -24    2    1    2    0    0  0.31949291033E+01  0.69692252406E+01  0.77773944819E+02  0.11115756231E+03  0.79047071376E+02 0.  0.
        -13    1    3    3    0    0  0.48145383016E+01  0.32377902793E+02 -0.93454448300E+02  0.99021423315E+02  0.00000000000E+00 0.  1.
         14    1    3    3    0    0  0.26037853729E+00 -0.50358239625E+02 -0.12687393737E+03  0.13650280612E+03  0.00000000000E+00 0. -1.
         11    1    5    5    0    0 -0.17211031790E+02  0.38232095877E+02  0.37641747776E+02  0.56345487362E+02  0.00000000000E+00 0. -1.
        -12    1    5    5    0    0  0.20405960893E+02 -0.31262870636E+02  0.40132197043E+02  0.54812074946E+02  0.00000000000E+00 0.  1.
          5    1    4    4  501    0  0.57669476177E+02  0.16151927557E+01 -0.39225348944E+02  0.69889038697E+02  0.41800000000E+01 0.  1.
         -5    1    4    4    0  501 -0.65939322119E+02  0.93959188359E+01 -0.70451881399E+02  0.97042348925E+02  0.41800000000E+01 0.  1.
</event>
<event>
11    1  0.8328696E-009  0.1428276E+03  0.7561462E-02  0.1104441E+00
         22   -1    0    0    0    0  0.00000000000E+00  0.00000000000E+00  0.35845245727E+03  0.35845245727E+03  0.00000000000E+00 0. -1.
         22   -1    0    0    0    0 -0.00000000000E+00 -0.00000000000E+00 -0.11762482002E+04  0.11762482002E+04  0.00000000000E+00 0.  1.
        -24    2    1    2    0    0 -0.37894736718E+01  0.29919848178E+02 -0.10895831391E+04  0.10930113495E+04  0.81073027468E+02 0.  0.
         25    2    1    2    0    0 -0.23030613588E+01 -0.94763765302E+02  0.92758097191E+01  0.15722188516E+03  0.12508878935E+03 0.  0.
         24    2    1    2    0    0  0.60925350306E+01  0.64843917123E+02  0.26251158646E+03  0.28446742277E+03  0.88133586226E+02 0.  0.
        -13    1    5    5    0    0  0.18767869137E+02  0.66223706234E+02  0.99671529860E+02  0.12112896451E+03  0.00000000000E+00 0.  1.
         14    1    5    5    0    0 -0.12675334106E+02 -0.13797891105E+01  0.16284005660E+03  0.16333845825E+03  0.00000000000E+00 0. -1.
         13    1    3    3    0    0 -0.27597612279E+02  0.56313154048E+01 -0.13926375649E+03  0.14208354510E+03  0.00000000000E+00 0. -1.
        -14    1    3    3    0    0  0.23808138607E+02  0.24288532774E+02 -0.95031938260E+03  0.95092780442E+03  0.00000000000E+00 0.  1.
          5    1    4    4  501    0  0.43498202846E+02 -0.50422020805E+02  0.48290840710E+02  0.82364746885E+02  0.41800000000E+01 0.  1.
         -5    1    4    4    0  501 -0.45801264204E+02 -0.44341744497E+02 -0.39015030991E+02  0.74857138277E+02  0.41800000000E+01 0.  1.
</event>
<event>
11    1  0.8328696E-009  0.1335844E+03  0.7561462E-02  0.1114942E+00
         22   -1    0    0    0    0  0.00000000000E+00  0.00000000000E+00  0.30732459554E+03  0.30732459554E+03  0.00000000000E+00 0.  1.
         22   -1    0    0    0    0 -0.00000000000E+00 -0.00000000000E+00 -0.45393281111E+03  0.45393281111E+03  0.00000000000E+00 0. -1.
        -24    2    1    2    0    0  0.43522137539E+02  0.16586297331E+02 -0.37194318300E+03  0.38341444046E+03  0.80595409690E+02 0.  0.
         25    2    1    2    0    0 -0.45440602423E+02 -0.23669645807E+02 -0.59464913301E+01  0.13528807721E+03  0.12506959100E+03 0.  0.
         24    2    1    2    0    0  0.19184648842E+01  0.70833484755E+01  0.23128145875E+03  0.24255488897E+03  0.72717994122E+02 0.  0.
        -13    1    5    5    0    0 -0.27527571894E+02  0.99167701052E+01  0.18716614237E+03  0.18943936865E+03  0.00000000000E+00 0.  1.
         14    1    5    5    0    0  0.29446036778E+02 -0.28334216297E+01  0.44115316384E+02  0.53115520328E+02  0.00000000000E+00 0. -1.
         11    1    3    3    0    0  0.28872126891E+02 -0.12595579236E+02 -0.32328255240E+03  0.32481357270E+03  0.00000000000E+00 0. -1.
        -12    1    3    3    0    0  0.14650010649E+02  0.29181876568E+02 -0.48660630602E+02  0.58600867763E+02  0.00000000000E+00 0.  1.
          5    1    4    4  501    0  0.12038117900E+02 -0.61092620530E+02  0.13548250573E+02  0.63861193689E+02  0.41800000000E+01 0.  1.
         -5    1    4    4    0  501 -0.57478720323E+02  0.37422974723E+02 -0.19494741903E+02  0.71426883517E+02  0.41800000000E+01 0.  1.
</event>
<event>
11    1  0.8328696E-009  0.1640484E+03  0.7561462E-02  0.1083330E+00
         22   -1    0    0    0    0  0.00000000000E+00  0.00000000000E+00  0.35062312039E+04  0.35062312039E+04  0.00000000000E+00 0. -1.
         22   -1    0    0    0    0 -0.00000000000E+00 -0.00000000000E+00 -0.83034726444E+03  0.83034726444E+03  0.00000000000E+00 0.  1.
         24    2    1    2    0    0 -0.17580242578E+02 -0.13098461745E+02 -0.81897914063E+03  0.82337113708E+03  0.82052190408E+02 0.  0.
         25    2    1    2    0    0  0.42107208835E+02 -0.91833836479E+02  0.86836037110E+03  0.88312272732E+03  0.12509814887E+03 0.  0.
        -24    2    1    2    0    0 -0.24526966257E+02  0.10493229822E+03  0.26265027090E+04  0.26300846040E+04  0.84948127031E+02 0.  0.
        -11    1    3    3    0    0 -0.27670760913E+02  0.28153848060E+02 -0.50371386021E+03  0.50525831328E+03  0.00000000000E+00 0.  1.
         12    1    3    3    0    0  0.10090518336E+02 -0.41252309806E+02 -0.31526528042E+03  0.31811282380E+03  0.00000000000E+00 0. -1.
         13    1    5    5    0    0 -0.30874177243E+02  0.11559844683E+03  0.25237941988E+04  0.25266288555E+04  0.00000000000E+00 0. -1.
        -14    1    5    5    0    0  0.63472109854E+01 -0.10666148603E+02  0.10270851025E+03  0.10345574847E+03  0.00000000000E+00 0.  1.
          5    1    4    4  501    0 -0.44063859062E+02 -0.31321498901E+02  0.34805017033E+03  0.35224856768E+03  0.41800000000E+01 0. -1.
         -5    1    4    4    0  501  0.86171067896E+02 -0.60512337578E+02  0.52031020077E+03  0.53087415964E+03  0.41800000000E+01 0. -1.
</event>
<event>
11    1  0.8328696E-009  0.1594412E+03  0.7561462E-02  0.1087604E+00
         22   -1    0    0    0    0  0.00000000000E+00  0.00000000000E+00  0.26089507856E+04  0.26089507856E+04  0.00000000000E+00 0. -1.
         22   -1    0    0    0    0 -0.00000000000E+00 -0.00000000000E+00 -0.10519247129E+03  0.10519247129E+03  0.00000000000E+00 0. -1.
        -24    2    1    2    0    0 -0.13751032112E+02  0.95082009168E+02 -0.42591984940E+02  0.13286302214E+03  0.81294686906E+02 0.  0.
         25    2    1    2    0    0  0.54726129301E+02 -0.12387256692E+03  0.50105069546E+03  0.53388874713E+03  0.12508410298E+03 0.  0.
         24    2    1    2    0    0 -0.40975097189E+02  0.28790557753E+02  0.20452996038E+04  0.20473914876E+04  0.77804752844E+02 0.  0.
        -11    1    5    5    0    0  0.73344267191E+01  0.13898178135E+02  0.85018706932E+02  0.86458855528E+02  0.00000000000E+00 0.  1.
         12    1    5    5    0    0 -0.48309523908E+02  0.14892379618E+02  0.19602808968E+04  0.19609326321E+04  0.00000000000E+00 0. -1.
         11    1    3    3    0    0 -0.20221995902E+02  0.10237198364E+03 -0.54296511827E+02  0.11763104755E+03  0.00000000000E+00 0. -1.
        -12    1    3    3    0    0  0.64709637892E+01 -0.72899744688E+01  0.11704526887E+02  0.15231974585E+02  0.00000000000E+00 0.  1.
          5    1    4    4  501    0  0.16257958505E+02 -0.75502454710E+02  0.44059806389E+03  0.44733552082E+03  0.41800000000E+01 0. -1.
         -5    1    4    4    0  501  0.38468170797E+02 -0.48370112212E+02  0.60452631572E+02  0.86553226305E+02  0.41800000000E+01 0. -1.
</event>
<event>
11    1  0.8328696E-009  0.1535651E+03  0.7561462E-02  0.1093291E+00
         22   -1    0    0    0    0  0.00000000000E+00  0.00000000000E+00  0.29840072540E+03  0.29840072540E+03  0.00000000000E+00 0.  1.
         22   -1    0    0    0    0 -0.00000000000E+00 -0.00000000000E+00 -0.47443978982E+03  0.47443978982E+03  0.00000000000E+00 0. -1.
         24    2    1    2    0    0  0.28976015459E+02  0.84781373335E+02 -0.40048090040E+03  0.41770724238E+03  0.77890294697E+02 0.  0.
         25    2    1    2    0    0  0.20544459292E+02 -0.92593604765E+02  0.67905711187E+02  0.17103839865E+03  0.12508915920E+03 0.  0.
        -24    2    1    2    0    0 -0.49520474751E+02  0.78122314307E+01  0.15653612479E+03  0.18409487419E+03  0.82909926778E+02 0.  0.
        -13    1    3    3    0    0 -0.81927609708E+01 -0.73013402796E+00 -0.20024259871E+01  0.84654673738E+01  0.00000000000E+00 0.  1.
         14    1    3    3    0    0  0.37168776430E+02  0.85511507363E+02 -0.39847847442E+03  0.40924177500E+03  0.00000000000E+00 0. -1.
         11    1    5    5    0    0 -0.71651068676E+02  0.99124282180E+01  0.13492664147E+03  0.15309255519E+03  0.00000000000E+00 0. -1.
        -12    1    5    5    0    0  0.22130593925E+02 -0.21001967872E+01  0.21609483321E+02  0.31002319000E+02  0.00000000000E+00 0.  1.
          5    1    4    4  501    0  0.26213808346E+02 -0.10233908357E+03  0.94530885606E+02  0.14182387848E+03  0.41800000000E+01 0.  1.
         -5    1    4    4    0  501 -0.56693490534E+01  0.97454788062E+01 -0.26625174420E+02  0.29214520169E+02  0.41800000000E+01 0.  1.
</event>
<event>
11    1  0.8328696E-009  0.1638936E+03  0.7561462E-02  0.1083471E+00
         22   -1    0    0    0    0  0.00000000000E+00  0.00000000000E+00  0.14318230773E+04  0.14318230773E+04  0.00000000000E+00 0. -1.
         22   -1    0    0    0    0 -0.00000000000E+00 -0.00000000000E+00 -0.10988756170E+04  0.10988756170E+04  0.00000000000E+00 0. -1.
        -24    2    1    2    0    0 -0.17578654083E+02  0.10219070856E+03 -0.96261940996E+03  0.97123491778E+03  0.76871237161E+02 0.  0.
         25    2    1    2    0    0 -0.26257739102E+02 -0.14996296148E+03 -0.55309315363E+02  0.20465993622E+03  0.12509280735E+03 0.  0.
         24    2    1    2    0    0  0.43836393185E+02  0.47772252925E+02  0.13508761856E+04  0.13548038403E+04  0.80144615363E+02 0.  0.
        -13    1    5    5    0    0  0.17927928053E+02 -0.13550001117E+02  0.11733448543E+03  0.11946712772E+03  0.00000000000E+00 0.  1.
         14    1    5    5    0    0  0.25908465132E+02  0.61322254042E+02  0.12335417002E+04  0.12353367126E+04  0.00000000000E+00 0. -1.
         13    1    3    3    0    0 -0.37266566169E+01  0.18712004707E+02 -0.53408451542E+03  0.53442520215E+03  0.00000000000E+00 0. -1.
        -14    1    3    3    0    0 -0.13851997466E+02  0.83478703848E+02 -0.42853489454E+03  0.43680971563E+03  0.00000000000E+00 0.  1.
          5    1    4    4  501    0  0.77143095042E+01 -0.15835962457E+03 -0.59006827926E+02  0.16922340089E+03  0.41800000000E+01 0. -1.
         -5    1    4    4    0  501 -0.33972048606E+02  0.83966630923E+01  0.36975125630E+01  0.35436535338E+02  0.41800000000E+01 0. -1.
</event>
<event>
11    1  0.8328696E-009  0.2095783E+03  0.7561462E-02  0.1047950E+00
         22   -1    0    0    0    0  0.00000000000E+00  0.00000000000E+00  0.84353865509E+03  0.84353865509E+03  0.00000000000E+00 0.  1.
         22   -1    0    0    0    0 -0.00000000000E+00 -0.00000000000E+00 -0.78036016031E+03  0.78036016031E+03  0.00000000000E+00 0.  1.
        -24    2    1    2    0    0  0.13916337081E+03 -0.91317716064E+02 -0.71804549402E+03  0.74168820219E+03  0.82502658966E+02 0.  0.
         25    2    1    2    0    0 -0.19338630955E+03  0.10386041791E+03  0.30552665519E+03  0.39645914240E+03  0.12509221970E+03 0.  0.
         24    2    1    2    0    0  0.54222938740E+02 -0.12542701845E+02  0.47569733361E+03  0.48575147081E+03  0.81049933618E+02 0.  0.
        -11    1    5    5    0    0  0.56971427947E+02 -0.36305110094E+02  0.25629296907E+03  0.26504695927E+03  0.00000000000E+00 0.  1.
         12    1    5    5    0    0 -0.27484892076E+01  0.23762408249E+02  0.21940436453E+03  0.22070451154E+03  0.00000000000E+00 0. -1.
         11    1    3    3    0    0 -0.58636374690E+01  0.79609260594E+01 -0.45049209366E+02  0.46121468457E+02  0.00000000000E+00 0. -1.
        -12    1    3    3    0    0  0.14502700828E+03 -0.99278642124E+02 -0.67299628466E+03  0.69556673373E+03  0.00000000000E+00 0.  1.
          5    1    4    4  501    0  0.13732043520E+02  0.17821956368E+02  0.58320309377E+02  0.62649198190E+02  0.41800000000E+01 0. -1.
         -5    1    4    4    0  501 -0.20711835307E+03  0.86038461541E+02  0.24720634582E+03  0.33380994421E+03  0.41800000000E+01 0. -1.
</event>
<event>
11    1  0.8328696E-009  0.1643530E+03  0.7561462E-02  0.1083053E+00
         22   -1    0    0    0    0  0.00000000000E+00  0.00000000000E+00  0.23379369945E+03  0.23379369945E+03  0.00000000000E+00 0.  1.
         22   -1    0    0    0    0 -0.00000000000E+00 -0.00000000000E+00 -0.10349469713E+04  0.10349469713E+04  0.00000000000E+00 0.  1.
        -24    2    1    2    0    0 -0.57537152321E+02  0.94091200766E+02 -0.89673443422E+03  0.90704577468E+03  0.80222901208E+02 0.  0.
         25    2    1    2    0    0 -0.39339239939E+02 -0.95407713437E+02 -0.49431126481E+02  0.16954340187E+03  0.12510524078E+03 0.  0.
         24    2    1    2    0    0  0.96876392260E+02  0.13165126710E+01  0.14501228881E+03  0.19215149424E+03  0.80665136523E+02 0.  0.
        -13    1    5    5    0    0  0.38220128533E+02 -0.38792989168E+02  0.71913789888E+02  0.90206803566E+02  0.00000000000E+00 0.  1.
         14    1    5    5    0    0  0.58656263727E+02  0.40109501839E+02  0.73098498925E+02  0.10194469068E+03  0.00000000000E+00 0. -1.
         13    1    3    3    0    0 -0.61993296348E+01  0.36212591841E+02 -0.99499231559E+02  0.10606545421E+03  0.00000000000E+00 0. -1.
        -14    1    3    3    0    0 -0.51337822686E+02  0.57878608925E+02 -0.79723520266E+03  0.80098032047E+03  0.00000000000E+00 0.  1.
          5    1    4    4  501    0 -0.30010078604E+02 -0.92145289254E+02  0.20208513180E+02  0.99081862893E+02  0.41800000000E+01 0. -1.
         -5    1    4    4    0  501 -0.93291613349E+01 -0.32624241831E+01 -0.69639639661E+02  0.70461538976E+02  0.41800000000E+01 0. -1.
</event>
<event>
11    1  0.8328696E-009  0.1405695E+03  0.7561462E-02  0.1106924E+00
         22   -1    0    0    0    0  0.00000000000E+00  0.00000000000E+00  0.32122960889E+03  0.32122960889E+03  0.00000000000E+00 0. -1.
         22   -1    0    0    0    0 -0.00000000000E+00 -0.00000000000E+00 -0.10454668302E+04  0.10454668302E+04  0.00000000000E+00 0.  1.
         24    2    1    2    0    0 -0.18203071987E+02 -0.41607883012E+02 -0.96410514955E+03  0.96922892445E+03  0.88562976744E+02 0.  0.
         25    2    1    2    0    0  0.78696740238E+02  0.24051459720E+02  0.14938674077E+02  0.15047481658E+03  0.12509139380E+03 0.  0.
        -24    2    1    2    0    0 -0.60493668251E+02  0.17556423292E+02  0.22492925412E+03  0.24699269811E+03  0.80277715864E+02 0.  0.
        -11    1    3    3    0    0  0.12005506044E+02 -0.47658161739E+02 -0.83706118138E+03  0.83850274533E+03  0.00000000000E+00 0.  1.
         12    1    3    3    0    0 -0.30208578031E+02  0.60502787266E+01 -0.12704396816E+03  0.13072617912E+03  0.00000000000E+00 0. -1.
         11    1    5    5    0    0 -0.61964978321E+02 -0.15883759058E+02  0.17954471032E+03  0.19059972545E+03  0.00000000000E+00 0. -1.
        -12    1    5    5    0    0  0.14713100700E+01  0.33440182351E+02  0.45384543798E+02  0.56392972654E+02  0.00000000000E+00 0.  1.
          5    1    4    4  501    0 -0.41581033257E+01  0.56444503987E+02  0.22599394672E+02  0.61085815810E+02  0.41800000000E+01 0.  1.
         -5    1    4    4    0  501  0.82854843563E+02 -0.32393044267E+02 -0.76607205959E+01  0.89389000771E+02  0.41800000000E+01 0.  1.
</event>
<event>
11    1  0.8328696E-009  0.2069298E+03  0.7561462E-02  0.1049729E+00
         22   -1    0    0    0    0  0.00000000000E+00  0.00000000000E+00  0.70301573169E+03  0.70301573169E+03  0.00000000000E+00 0.  1.
         22   -1    0    0    0    0 -0.00000000000E+00 -0.00000000000E+00 -0.15957996886E+04  0.15957996886E+04  0.00000000000E+00 0.  1.
         24    2    1    2    0    0 -0.30830215400E+02  0.20788401342E+02 -0.14803685712E+04  0.14829739565E+04  0.79611490296E+02 0.  0.
         25    2    1    2    0    0 -0.10222165306E+03  0.84265813316E+02 -0.16537579023E+02  0.18294074148E+03  0.12507529622E+03 0.  0.
        -24    2    1    2    0    0  0.13305186846E+03 -0.10505421466E+03  0.60412219326E+03  0.63290072231E+03  0.82828208892E+02 0.  0.
        -11    1    3    3    0    0 -0.47039226739E+02 -0.14185149877E+02 -0.78095717917E+03  0.78250113293E+03  0.00000000000E+00 0.  1.
         12    1    3    3    0    0  0.16209011339E+02  0.34973551219E+02 -0.69941139201E+03  0.70047282360E+03  0.00000000000E+00 0. -1.
         11    1    5    5    0    0  0.35124422839E+02 -0.51744487348E+02  0.11172687256E+03  0.12803949041E+03  0.00000000000E+00 0. -1.
        -12    1    5    5    0    0  0.97927445622E+02 -0.53309727310E+02  0.49239532070E+03  0.50486123190E+03  0.00000000000E+00 0.  1.
          5    1    4    4  501    0 -0.15521851059E+02 -0.15153761444E+02  0.34889690039E+02  0.41295607723E+02  0.41800000000E+01 0.  1.
         -5    1    4    4    0  501 -0.86699802003E+02  0.99419574760E+02 -0.51427269062E+02  0.14164513375E+03  0.41800000000E+01 0.  1.
</event>
<event>
11    1  0.8328696E-009  0.2897548E+03  0.7561462E-02  0.1004623E+00
         22   -1    0    0    0    0  0.00000000000E+00  0.00000000000E+00  0.19849074654E+03  0.19849074654E+03  0.00000000000E+00 0.  1.
         22   -1    0    0    0    0 -0.00000000000E+00 -0.00000000000E+00 -0.81904210306E+03  0.81904210306E+03  0.00000000000E+00 0.  1.
        -24    2    1    2    0    0 -0.44075518064E+02  0.30838114689E+03 -0.41932147206E+03  0.52876756775E+03  0.81994272501E+02 0.  0.
         25    2    1    2    0    0  0.10904711025E+02 -0.21450952908E+03 -0.24920453559E+03  0.35197070585E+03  0.12508887413E+03 0.  0.
         24    2    1    2    0    0  0.33170807039E+02 -0.93871617803E+02  0.47974651131E+02  0.13679457600E+03  0.80616411494E+02 0.  0.
        -13    1    5    5    0    0 -0.10981185054E+02 -0.80829545565E+02  0.36392963571E+02  0.89322167791E+02  0.00000000000E+00 0.  1.
         14    1    5    5    0    0  0.44151992093E+02 -0.13042072238E+02  0.11581687560E+02  0.47472408205E+02  0.00000000000E+00 0. -1.
         13    1    3    3    0    0 -0.42274944624E+02  0.93166433169E+02 -0.17888545090E+03  0.20607561660E+03  0.00000000000E+00 0. -1.
        -14    1    3    3    0    0 -0.18005734400E+01  0.21521471372E+03 -0.24043602116E+03  0.32269195115E+03  0.00000000000E+00 0.  1.
          5    1    4    4  501    0  0.67175929314E+02 -0.96731019400E+02 -0.11283473127E+03  0.16315221290E+03  0.41800000000E+01 0.  1.
         -5    1    4    4    0  501 -0.56271218288E+02 -0.11777850968E+03 -0.13636980432E+03  0.18881849295E+03  0.41800000000E+01 0.  1.
</event>
<event>
11    1  0.8328696E-009  0.1398559E+03  0.7561462E-02  0.1107719E+00
         22   -1    0    0    0    0  0.00000000000E+00  0.00000000000E+00  0.36369695987E+03  0.36369695987E+03  0.00000000000E+00 0. -1.
         22   -1    0    0    0    0 -0.00000000000E+00 -0.00000000000E+00 -0.25188905670E+03  0.25188905670E+03  0.00000000000E+00 0.  1.
         24    2    1    2    0    0  0.30102532140E+02  0.41037083100E+01 -0.19245892525E+03  0.21052598742E+03  0.79735504068E+02 0.  0.
         25    2    1    2    0    0 -0.32128719740E+02  0.58739928657E+02  0.90741605440E+02  0.16841818154E+03  0.12509201040E+03 0.  0.
        -24    2    1    2    0    0  0.20261876003E+01 -0.62843636967E+02  0.21352522298E+03  0.23664184761E+03  0.80330038274E+02 0.  0.
        -11    1    3    3    0    0  0.59776321857E+01  0.85052386757E+01 -0.18442884160E+03  0.18472159805E+03  0.00000000000E+00 0.  1.
         12    1    3    3    0    0  0.24124899954E+02 -0.44015303657E+01 -0.80300836430E+01  0.25804389368E+02  0.00000000000E+00 0. -1.
         13    1    5    5    0    0 -0.18625222840E+01 -0.35252385916E+02  0.20424474608E+03  0.20727304698E+03  0.00000000000E+00 0. -1.
        -14    1    5    5    0    0  0.38887098843E+01 -0.27591251052E+02  0.92804768981E+01  0.29368800633E+02  0.00000000000E+00 0.  1.
          5    1    4    4  501    0 -0.51292890177E+02  0.90750895959E+02  0.67724149988E+02  0.12438134342E+03  0.41800000000E+01 0.  1.
         -5    1    4    4    0  501  0.19164170437E+02 -0.32010967301E+02  0.23017455452E+02  0.44036838119E+02  0.41800000000E+01 0.  1.
</event>
<event>
11    1  0.8328696E-009  0.1565887E+03  0.7561462E-02  0.1090330E+00
         22   -1    0    0    0    0  0.00000000000E+00  0.00000000000E+00  0.19264272823E+03  0.19264272823E+03  0.00000000000E+00 0.  1.
         22   -1    0    0    0    0 -0.00000000000E+00 -0.00000000000E+00 -0.15176641948E+04  0.15176641948E+04  0.00000000000E+00 0. -1.
        -24    2    1    2    0    0  0.71824367300E+02  0.28035732913E+02 -0.77745297812E+03  0.78560467351E+03  0.82442875914E+02 0.  0.
         25    2    1    2    0    0 -0.15059488126E+03 -0.27195425067E+02 -0.70453632564E+03  0.73173546854E+03  0.12508777865E+03 0.  0.
         24    2    1    2    0    0  0.78770513956E+02 -0.84030784542E+00  0.15696783716E+03  0.19296678100E+03  0.79948587743E+02 0.  0.
        -13    1    5    5    0    0  0.78462057843E+02  0.14182909191E+02  0.15893331812E+03  0.17781239845E+03  0.00000000000E+00 0.  1.
         14    1    5    5    0    0  0.30845611240E+00 -0.15023217036E+02 -0.19654809554E+01  0.15154382557E+02  0.00000000000E+00 0. -1.
         13    1    3    3    0    0  0.78753943998E+02  0.47658066947E+02 -0.62872335165E+03  0.63542625689E+03  0.00000000000E+00 0. -1.
        -14    1    3    3    0    0 -0.69295766982E+01 -0.19622334034E+02 -0.14872962647E+03  0.15017841661E+03  0.00000000000E+00 0.  1.
          5    1    4    4  501    0 -0.11695461810E+03 -0.74568367678E+02 -0.52197206481E+03  0.54010289112E+03  0.41800000000E+01 0.  1.
         -5    1    4    4    0  501 -0.33640263154E+02  0.47372942610E+02 -0.18256426083E+03  0.19163257742E+03  0.41800000000E+01 0.  1.
</event>
<event>
11    1  0.8328696E-009  0.1426943E+03  0.7561462E-02  0.1104587E+00
         22   -1    0    0    0    0  0.00000000000E+00  0.00000000000E+00  0.76986303559E+03  0.76986303559E+03  0.00000000000E+00 0. -1.
         22   -1    0    0    0    0 -0.00000000000E+00 -0.00000000000E+00 -0.17438376968E+03  0.17438376968E+03  0.00000000000E+00 0. -1.
         24    2    1    2    0    0 -0.27846911902E+02 -0.60045023645E+02 -0.85805589004E+02  0.13591248475E+03  0.82028952444E+02 0.  0.
         25    2    1    2    0    0 -0.15913755676E+02  0.89482067049E+02  0.39492586840E+02  0.15958543905E+03  0.12509020744E+03 0.  0.
        -24    2    1    2    0    0  0.43760667578E+02 -0.29437043404E+02  0.64179226808E+03  0.64874888147E+03  0.78716328035E+02 0.  0.
        -13    1    3    3    0    0 -0.20703588921E+01 -0.17534498435E+02  0.15223993706E+02  0.23313408280E+02  0.00000000000E+00 0.  1.
         14    1    3    3    0    0 -0.25776553010E+02 -0.42510525211E+02 -0.10102958271E+03  0.11259907647E+03  0.00000000000E+00 0. -1.
         13    1    5    5    0    0  0.22127386739E+02 -0.74180671856E+01  0.57151485708E+03  0.57199115450E+03  0.00000000000E+00 0. -1.
        -14    1    5    5    0    0  0.21633280839E+02 -0.22018976218E+02  0.70277410994E+02  0.76757726970E+02  0.00000000000E+00 0.  1.
          5    1    4    4  501    0 -0.16430246116E+02  0.82487280755E+02 -0.30164872158E+02  0.89451083762E+02  0.41800000000E+01 0.  1.
         -5    1    4    4    0  501  0.51649044055E+00  0.69947862933E+01  0.69657458998E+02  0.70134355288E+02  0.41800000000E+01 0.  1.
</event>
<event>
11    1  0.8328696E-009  0.1720255E+03  0.7561462E-02  0.1076282E+00
         22   -1    0    0    0    0  0.00000000000E+00  0.00000000000E+00  0.13123208835E+04  0.13123208835E+04  0.00000000000E+00 0. -1.
         22   -1    0    0    0    0 -0.00000000000E+00 -0.00000000000E+00 -0.11980899953E+03  0.11980899953E+03  0.00000000000E+00 0. -1.
         24    2    1    2    0    0 -0.11855541765E+03  0.64967388525E+01 -0.43595657087E+02  0.15564245480E+03  0.90699491441E+02 0.  0.
         25    2    1    2    0    0  0.10174872147E+03 -0.63081700335E+02  0.10697810136E+04  0.10837024010E+04  0.12508946275E+03 0.  0.
        -24    2    1    2    0    0  0.16806696187E+02  0.56584961482E+02  0.16632652751E+03  0.19278502726E+03  0.77570806895E+02 0.  0.
        -13    1    3    3    0    0  0.97188675854E+01 -0.13903940995E+02  0.37901550701E+01  0.17382210382E+02  0.00000000000E+00 0.  1.
         14    1    3    3    0    0 -0.12827428524E+03  0.20400679847E+02 -0.47385812157E+02  0.13826024441E+03  0.00000000000E+00 0. -1.
         13    1    5    5    0    0  0.11888339518E+02  0.71725598411E+02  0.15983364840E+03  0.17559239518E+03  0.00000000000E+00 0. -1.
        -14    1    5    5    0    0  0.49183566695E+01 -0.15140636929E+02  0.64928791075E+01  0.17192632086E+02  0.00000000000E+00 0.  1.
          5    1    4    4  501    0 -0.91061833265E+01  0.27905987598E+02  0.18960797625E+03  0.19191228146E+03  0.41800000000E+01 0.  1.
         -5    1    4    4    0  501  0.11085490479E+03 -0.90987687933E+02  0.88017303730E+03  0.89179011951E+03  0.41800000000E+01 0.  1.
</event>
<event>
11    1  0.8328696E-009  0.1275145E+03  0.7561462E-02  0.1122361E+00
         22   -1    0    0    0    0  0.00000000000E+00  0.00000000000E+00  0.92531236804E+03  0.92531236804E+03  0.00000000000E+00 0.  1.
         22   -1    0    0    0    0 -0.00000000000E+00 -0.00000000000E+00 -0.18643576859E+04  0.18643576859E+04  0.00000000000E+00 0.  1.
        -24    2    1    2    0    0 -0.25077334505E+02  0.47137011301E+01 -0.17793629991E+04  0.17812316049E+04  0.77474227670E+02 0.  0.
         25    2    1    2    0    0  0.43656021979E+01  0.98303439308E+01 -0.33918832837E+02  0.13005469609E+03  0.12509213648E+03 0.  0.
         24    2    1    2    0    0  0.20711732307E+02 -0.14544045061E+02  0.87423651406E+03  0.87838375300E+03  0.81412713460E+02 0.  0.
        -13    1    5    5    0    0  0.15723234460E+01  0.30577514502E+02  0.50221486082E+03  0.50314731742E+03  0.00000000000E+00 0.  1.
         14    1    5    5    0    0  0.19139408861E+02 -0.45121559563E+02  0.37202165324E+03  0.37523643558E+03  0.00000000000E+00 0. -1.
         11    1    3    3    0    0 -0.25945689383E+02 -0.15441965894E+02 -0.26192660783E+03  0.26366111013E+03  0.00000000000E+00 0. -1.
        -12    1    3    3    0    0  0.86835487845E+00  0.20155667024E+02 -0.15174363912E+04  0.15175704947E+04  0.00000000000E+00 0.  1.
          5    1    4    4  501    0 -0.31060769330E+02  0.43269336313E+02  0.20201120304E+02  0.57118863065E+02  0.41800000000E+01 0.  1.
         -5    1    4    4    0  501  0.35426371528E+02 -0.33438992382E+02 -0.54119953141E+02  0.72935833026E+02  0.41800000000E+01 0.  1.
</event>
<event>
11    1  0.8328696E-009  0.1885484E+03  0.7561462E-02  0.1062931E+00
         22   -1    0    0    0    0  0.00000000000E+00  0.00000000000E+00  0.27147268949E+03  0.27147268949E+03  0.00000000000E+00 0.  1.
         22   -1    0    0    0    0 -0.00000000000E+00 -0.00000000000E+00 -0.48382095423E+03  0.48382095423E+03  0.00000000000E+00 0. -1.
        -24    2    1    2    0    0  0.79885441417E+02  0.11389044788E+03 -0.34503620295E+03  0.38086465385E+03  0.81579319298E+02 0.  0.
         25    2    1    2    0    0 -0.75749363339E+02 -0.13058969467E+03 -0.25764576541E+02  0.19774369185E+03  0.12508844815E+03 0.  0.
         24    2    1    2    0    0 -0.41360780774E+01  0.16699246794E+02  0.15845251475E+03  0.17668529803E+03  0.76253020424E+02 0.  0.
        -11    1    5    5    0    0  0.10080954807E+02  0.32664024832E+02  0.14975358173E+03  0.15360566204E+03  0.00000000000E+00 0.  1.
         12    1    5    5    0    0 -0.14217032884E+02 -0.15964778039E+02  0.86989330158E+01  0.23079635991E+02  0.00000000000E+00 0. -1.
         13    1    3    3    0    0  0.89378112715E+02  0.11656858663E+03 -0.33859537320E+03  0.36908469106E+03  0.00000000000E+00 0. -1.
        -14    1    3    3    0    0 -0.94926712980E+01 -0.26781387449E+01 -0.64408297481E+01  0.11779962791E+02  0.00000000000E+00 0.  1.
          5    1    4    4  501    0 -0.82082324719E+02 -0.21221590370E+02  0.10110285821E+01  0.84890273341E+02  0.41800000000E+01 0.  1.
         -5    1    4    4    0  501  0.63329613801E+01 -0.10936810430E+03 -0.26775605123E+02  0.11285341851E+03  0.41800000000E+01 0.  1.
</event>
<event>
11    1  0.9598691E-009  0.1565908E+03  0.7561462E-02  0.1090328E+00
         22   -1    0    0    0    0  0.00000000000E+00  0.00000000000E+00  0.18939508435E+04  0.18939508435E+04  0.00000000000E+00 0.  1.
         22   -1    0    0    0    0 -0.00000000000E+00 -0.00000000000E+00 -0.37631516429E+03  0.37631516429E+03  0.00000000000E+00 0.  1.
         24    2    1    2    0    0  0.42300586471E+02  0.69479381951E+01 -0.24534561063E+03  0.26081494173E+03  0.77410281706E+02 0.  0.
         25    2    1    2    0    0 -0.65920931401E+02  0.84173019388E+02 -0.65027463867E+02  0.17693210485E+03  0.12508290163E+03 0.  0.
        -24    2    1    2    0    0  0.23620344930E+02 -0.91120957584E+02  0.18280087538E+04  0.18325189613E+04  0.87457360839E+02 0.  0.
        -13    1    3    3    0    0  0.63917133946E+02  0.13214242692E+02 -0.16702681841E+03  0.17932644616E+03  0.00000000000E+00 0.  1.
         14    1    3    3    0    0 -0.21616547474E+02 -0.62663044969E+01 -0.78318792216E+02  0.81488495574E+02  0.00000000000E+00 0. -1.
         13    1    5    5    0    0 -0.26580778973E+02 -0.30634837298E+02  0.33566946713E+03  0.33811096142E+03  0.00000000000E+00 0. -1.
        -14    1    5    5    0    0  0.50201123903E+02 -0.60486120285E+02  0.14923392866E+04  0.14944079998E+04  0.00000000000E+00 0.  1.
          5    1    4    4  501    0 -0.91418861818E+02  0.48053919634E+02 -0.66427808848E+01  0.10357695895E+03  0.41800000000E+01 0. -1.
         -5    1    4    4    0  501  0.25497930416E+02  0.36119099755E+02 -0.58384682982E+02  0.73355145897E+02  0.41800000000E+01 0. -1.
</event>
<event>
11    1  0.8328696E-009  0.1357157E+03  0.7561462E-02  0.1112439E+00
         22   -1    0    0    0    0  0.00000000000E+00  0.00000000000E+00  0.28110310681E+04  0.28110310681E+04  0.00000000000E+00 0. -1.
         22   -1    0    0    0    0 -0.00000000000E+00 -0.00000000000E+00 -0.39410606447E+03  0.39410606447E+03  0.00000000000E+00 0. -1.
        -24    2    1    2    0    0  0.44548437307E+02 -0.24755279927E+02 -0.33327439238E+03  0.34545033566E+03  0.75277663637E+02 0.  0.
         25    2    1    2    0    0 -0.79702126882E+02  0.23980238651E+02  0.50252637909E+02  0.15842938214E+03  0.12508821141E+03 0.  0.
         24    2    1    2    0    0  0.35153689575E+02  0.77504127617E+00  0.26999467581E+04  0.27012574148E+04  0.76437828301E+02 0.  0.
        -11    1    5    5    0    0  0.16249016738E+02  0.10119629670E+02  0.14913938589E+03  0.15036287398E+03  0.00000000000E+00 0.  1.
         12    1    5    5    0    0  0.18904672837E+02 -0.93445883938E+01  0.25508073722E+04  0.25508945408E+04  0.00000000000E+00 0. -1.
         13    1    3    3    0    0  0.44718162130E+01  0.93377604173E+01 -0.22327118420E+03  0.22351110175E+03  0.00000000000E+00 0. -1.
        -14    1    3    3    0    0  0.40076621094E+02 -0.34093040345E+02 -0.11000320818E+03  0.12193923392E+03  0.00000000000E+00 0.  1.
          5    1    4    4  501    0 -0.33234536573E+02  0.21629394033E+01 -0.41399307799E+02  0.53297165162E+02  0.41800000000E+01 0. -1.
         -5    1    4    4    0  501 -0.46467590309E+02  0.21817299248E+02  0.91651945708E+02  0.10513221698E+03  0.41800000000E+01 0. -1.
</event>
<event>
11    1  0.8328696E-009  0.1353078E+03  0.7561462E-02  0.1112914E+00
         22   -1    0    0    0    0  0.00000000000E+00  0.00000000000E+00  0.13295375891E+04  0.13295375891E+04  0.00000000000E+00 0.  1.
         22   -1    0    0    0    0 -0.00000000000E+00 -0.00000000000E+00 -0.77622359601E+03  0.77622359601E+03  0.00000000000E+00 0. -1.
         24    2    1    2    0    0 -0.40706803345E+02 -0.34298959954E+02 -0.69924269433E+03  0.70599295139E+03  0.81561261346E+02 0.  0.
         25    2    1    2    0    0  0.35404409981E+02 -0.71756801568E+01 -0.13158974714E+02  0.13086420006E+03  0.12508923858E+03 0.  0.
        -24    2    1    2    0    0  0.53023933634E+01  0.41474640111E+02  0.12657156621E+04  0.12689040337E+04  0.79580450482E+02 0.  0.
        -11    1    3    3    0    0 -0.98507753236E+01  0.39010372093E+01 -0.87078483815E+01  0.13714316943E+02  0.00000000000E+00 0.  1.
         12    1    3    3    0    0 -0.30856028021E+02 -0.38199997163E+02 -0.69053484595E+03  0.69227863445E+03  0.00000000000E+00 0. -1.
         11    1    5    5    0    0 -0.19194551087E+02 -0.19814244111E+01  0.84809693169E+03  0.84831642821E+03  0.00000000000E+00 0. -1.
        -12    1    5    5    0    0  0.24496944450E+02  0.43456064522E+02  0.41761873045E+03  0.42058760544E+03  0.00000000000E+00 0.  1.
          5    1    4    4  501    0 -0.52338139235E+01  0.11087790505E+02 -0.62746888746E+02  0.64070089384E+02  0.41800000000E+01 0. -1.
         -5    1    4    4    0  501  0.40638223905E+02 -0.18263470662E+02  0.49587914032E+02  0.66794110675E+02  0.41800000000E+01 0. -1.
</event>
<event>
11    1  0.8328696E-009  0.1494341E+03  0.7561462E-02  0.1097458E+00
         22   -1    0    0    0    0  0.00000000000E+00  0.00000000000E+00  0.64936653545E+02  0.64936653545E+02  0.00000000000E+00 0. -1.
         22   -1    0    0    0    0 -0.00000000000E+00 -0.00000000000E+00 -0.12726188837E+04  0.12726188837E+04  0.00000000000E+00 0.  1.
        -24    2    1    2    0    0 -0.53785999449E+02  0.55618309985E+02 -0.67271837293E+03  0.68193532801E+03  0.80619179950E+02 0.  0.
         25    2    1    2    0    0  0.87386032243E+01 -0.11135621294E+03 -0.52101072298E+03  0.54733569578E+03  0.12509045155E+03 0.  0.
         24    2    1    2    0    0  0.45047396225E+02  0.55737902951E+02 -0.13953134227E+02  0.10828451343E+03  0.79967894572E+02 0.  0.
        -13    1    5    5    0    0 -0.10386444211E+02 -0.49621142871E+01 -0.22865418606E+02  0.25599378304E+02  0.00000000000E+00 0.  1.
         14    1    5    5    0    0  0.55433840436E+02  0.60700017238E+02  0.89122843782E+01  0.82685135127E+02  0.00000000000E+00 0. -1.
         13    1    3    3    0    0  0.96699291466E+01 -0.14016943957E+02 -0.81769093846E+02  0.83523451533E+02  0.00000000000E+00 0. -1.
        -14    1    3    3    0    0 -0.63455928596E+02  0.69635253942E+02 -0.59094927908E+03  0.59841187648E+03  0.00000000000E+00 0.  1.
          5    1    4    4  501    0 -0.42022798937E+02 -0.11850030166E+02 -0.25574336778E+03  0.25947732350E+03  0.41800000000E+01 0.  1.
         -5    1    4    4    0  501  0.50761402161E+02 -0.99506182769E+02 -0.26526735519E+03  0.28785837228E+03  0.41800000000E+01 0.  1.
</event>
<event>
11    1  0.8328696E-009  0.1295549E+03  0.7561462E-02  0.1119817E+00
         22   -1    0    0    0    0  0.00000000000E+00  0.00000000000E+00  0.81837006374E+03  0.81837006374E+03  0.00000000000E+00 0.  1.
         22   -1    0    0    0    0 -0.00000000000E+00 -0.00000000000E+00 -0.51328042238E+03  0.51328042238E+03  0.00000000000E+00 0. -1.
        -24    2    1    2    0    0 -0.31003662649E+02 -0.12057162726E+02 -0.47825095076E+03  0.48649096624E+03  0.82721738753E+02 0.  0.
         25    2    1    2    0    0  0.51340792404E+02  0.80723711028E+01  0.13561405655E+03  0.19167998408E+03  0.12509597844E+03 0.  0.
         24    2    1    2    0    0 -0.20337129755E+02  0.39847916232E+01  0.64772653557E+03  0.65347953580E+03  0.84002151281E+02 0.  0.
        -13    1    5    5    0    0 -0.15671316066E+02  0.38354181415E+02  0.50095256569E+03  0.50266301480E+03  0.00000000000E+00 0.  1.
         14    1    5    5    0    0 -0.46658136896E+01 -0.34369389792E+02  0.14677396988E+03  0.15081652100E+03  0.00000000000E+00 0. -1.
         13    1    3    3    0    0 -0.27821453978E+02 -0.30841847467E+02 -0.45278821231E+03  0.45468936436E+03  0.00000000000E+00 0. -1.
        -14    1    3    3    0    0 -0.31822086706E+01  0.18784684741E+02 -0.25462738451E+02  0.31801601882E+02  0.00000000000E+00 0.  1.
          5    1    4    4  501    0  0.37422934070E+02 -0.47796187191E+02  0.22846372769E+02  0.64995235619E+02  0.41800000000E+01 0.  1.
         -5    1    4    4    0  501  0.13917858334E+02  0.55868558294E+02  0.11276768379E+03  0.12668474846E+03  0.41800000000E+01 0.  1.
</event>
<event>
11    1  0.8328696E-009  0.3233431E+03  0.7561462E-02  0.9907689E-01
         22   -1    0    0    0    0  0.00000000000E+00  0.00000000000E+00  0.14392779739E+03  0.14392779739E+03  0.00000000000E+00 0.  1.
         22   -1    0    0    0    0 -0.00000000000E+00 -0.00000000000E+00 -0.10085098412E+04  0.10085098412E+04  0.00000000000E+00 0. -1.
         24    2    1    2    0    0 -0.29589281241E+03 -0.79552960255E+02 -0.58897347131E+03  0.66868031637E+03  0.79764564022E+02 0.  0.
         25    2    1    2    0    0  0.27894848365E+03  0.46052836018E+02 -0.22175486544E+03  0.38046624247E+03  0.12508485550E+03 0.  0.
        -24    2    1    2    0    0  0.16944328755E+02  0.33500124236E+02 -0.53853707076E+02  0.10329107977E+03  0.79746202379E+02 0.  0.
        -11    1    3    3    0    0 -0.20498189554E+03 -0.17594628020E+02 -0.35979293506E+03  0.41446122202E+03  0.00000000000E+00 0.  1.
         12    1    3    3    0    0 -0.90910916864E+02 -0.61958332235E+02 -0.22918053625E+03  0.25421909435E+03  0.00000000000E+00 0. -1.
         13    1    5    5    0    0  0.44819564854E+02  0.18731885609E+02 -0.52773808827E+02  0.71726925421E+02  0.00000000000E+00 0. -1.
        -14    1    5    5    0    0 -0.27875236099E+02  0.14768238627E+02 -0.10798982492E+01  0.31564154352E+02  0.00000000000E+00 0.  1.
          5    1    4    4  501    0  0.21054370112E+03  0.72056866839E+02 -0.21042527658E+03  0.30629579097E+03  0.41800000000E+01 0. -1.
         -5    1    4    4    0  501  0.68404782530E+02 -0.26004030821E+02 -0.11329588857E+02  0.74170451499E+02  0.41800000000E+01 0. -1.
</event>
<event>
11    1  0.8328696E-009  0.2858800E+03  0.7561462E-02  0.1006351E+00
         22   -1    0    0    0    0  0.00000000000E+00  0.00000000000E+00  0.31851989135E+04  0.31851989135E+04  0.00000000000E+00 0. -1.
         22   -1    0    0    0    0 -0.00000000000E+00 -0.00000000000E+00 -0.89040709831E+02  0.89040709831E+02  0.00000000000E+00 0. -1.
         24    2    1    2    0    0 -0.12882710105E+03  0.22976976471E+03  0.27381162567E+03  0.38808949029E+03  0.79057443570E+02 0.  0.
         25    2    1    2    0    0  0.20452155812E+03 -0.15740204949E+03  0.65761049802E+03  0.71742860956E+03  0.12509104602E+03 0.  0.
        -24    2    1    2    0    0 -0.75694457064E+02 -0.72367715222E+02  0.21647360800E+04  0.21687215235E+04  0.79397817206E+02 0.  0.
        -11    1    3    3    0    0 -0.10000555516E+02  0.79303041289E+02  0.54273583997E+02  0.96615761593E+02  0.00000000000E+00 0.  1.
         12    1    3    3    0    0 -0.11882654554E+03  0.15046672342E+03  0.21953804167E+03  0.29147372870E+03  0.00000000000E+00 0. -1.
         13    1    5    5    0    0  0.58337539541E+01 -0.18259835563E+02  0.90065022727E+03  0.90085419806E+03  0.00000000000E+00 0. -1.
        -14    1    5    5    0    0 -0.81528211018E+02 -0.54107879660E+02  0.12640858527E+04  0.12678673254E+04  0.00000000000E+00 0.  1.
          5    1    4    4  501    0  0.18257672793E+03 -0.93242340204E+02  0.38185091983E+03  0.43342357223E+03  0.41800000000E+01 0. -1.
         -5    1    4    4    0  501  0.21944830186E+02 -0.64159709286E+02  0.27575957819E+03  0.28400503733E+03  0.41800000000E+01 0. -1.
</event>
<event>
11    1  0.8328696E-009  0.1519523E+03  0.7561462E-02  0.1094900E+00
         22   -1    0    0    0    0  0.00000000000E+00  0.00000000000E+00  0.11345239857E+04  0.11345239857E+04  0.00000000000E+00 0. -1.
         22   -1    0    0    0    0 -0.00000000000E+00 -0.00000000000E+00 -0.62399516855E+03  0.62399516855E+03  0.00000000000E+00 0.  1.
        -24    2    1    2    0    0 -0.39373086327E+02  0.83317437549E+02 -0.42251031140E+03  0.44197960741E+03  0.91317987271E+02 0.  0.
         25    2    1    2    0    0  0.17076969291E+02 -0.68834421062E+02 -0.16290039226E+03  0.21728716055E+03  0.12508945575E+03 0.  0.
         24    2    1    2    0    0  0.22296117037E+02 -0.14483016487E+02  0.10959395208E+04  0.10992523863E+04  0.81027778358E+02 0.  0.
        -11    1    5    5    0    0  0.62312844812E+01 -0.34645864742E+02  0.20940943616E+03  0.21234753779E+03  0.00000000000E+00 0.  1.
         12    1    5    5    0    0  0.16064832555E+02  0.20162848256E+02  0.88653008468E+03  0.88690484853E+03  0.00000000000E+00 0. -1.
         11    1    3    3    0    0 -0.61737608016E+02  0.26874938481E+02 -0.18639944746E+03  0.19818816457E+03  0.00000000000E+00 0. -1.
        -12    1    3    3    0    0  0.22364521689E+02  0.56442499068E+02 -0.23611086394E+03  0.24379144284E+03  0.00000000000E+00 0.  1.
          5    1    4    4  501    0  0.99280223413E+01 -0.74652043496E+02 -0.18125792188E+03  0.19632473066E+03  0.41800000000E+01 0.  1.
         -5    1    4    4    0  501  0.71489469493E+01  0.58176224336E+01  0.18357529618E+02  0.20962429891E+02  0.41800000000E+01 0.  1.
</event>
<event>
11    1  0.8328696E-009  0.2862655E+03  0.7561462E-02  0.1006177E+00
         22   -1    0    0    0    0  0.00000000000E+00  0.00000000000E+00  0.13972239085E+04  0.13972239085E+04  0.00000000000E+00 0. -1.
         22   -1    0    0    0    0 -0.00000000000E+00 -0.00000000000E+00 -0.61043530099E+03  0.61043530099E+03  0.00000000000E+00 0.  1.
         24    2    1    2    0    0 -0.64784989179E+02  0.67073269983E+02 -0.23862708338E+03  0.26772486668E+03  0.77703287893E+02 0.  0.
         25    2    1    2    0    0  0.10728279155E+03 -0.31782512982E+03 -0.24912274432E+03  0.43615778705E+03  0.12509621481E+03 0.  0.
        -24    2    1    2    0    0 -0.42497802373E+02  0.25075185984E+03  0.12745384352E+04  0.13037765557E+04  0.10345301383E+03 0.  0.
        -11    1    3    3    0    0 -0.31697224311E+02  0.25534457731E+02 -0.19439591039E+03  0.19861141089E+03  0.00000000000E+00 0.  1.
         12    1    3    3    0    0 -0.33087764868E+02  0.41538812252E+02 -0.44231172990E+02  0.69113455791E+02  0.00000000000E+00 0. -1.
         11    1    5    5    0    0  0.12912727552E+02  0.19171933146E+03  0.83289779954E+03  0.85477586833E+03  0.00000000000E+00 0. -1.
        -12    1    5    5    0    0 -0.55410529925E+02  0.59032528382E+02  0.44164063564E+03  0.44900068740E+03  0.00000000000E+00 0.  1.
          5    1    4    4  501    0  0.73293024908E+02 -0.31397990927E+03 -0.23460598791E+03  0.39876395635E+03  0.41800000000E+01 0.  1.
         -5    1    4    4    0  501  0.33989766644E+02 -0.38452205521E+01 -0.14516756412E+02  0.37393830699E+02  0.41800000000E+01 0.  1.
</event>
<event>
11    1  0.8328696E-009  0.1392410E+03  0.7561462E-02  0.1108409E+00
         22   -1    0    0    0    0  0.00000000000E+00  0.00000000000E+00  0.12046532565E+03  0.12046532565E+03  0.00000000000E+00 0.  1.
         22   -1    0    0    0    0 -0.00000000000E+00 -0.00000000000E+00 -0.15317576967E+04  0.15317576967E+04  0.00000000000E+00 0. -1.
        -24    2    1    2    0    0  0.47550601585E+02  0.31937758469E+02 -0.11911538621E+04  0.11955154211E+04  0.84430555891E+02 0.  0.
         25    2    1    2    0    0 -0.73948297853E+02 -0.62425540366E+02 -0.29661722560E+03  0.33614731535E+03  0.12509172733E+03 0.  0.
         24    2    1    2    0    0  0.26397696268E+02  0.30487781898E+02  0.76478716691E+02  0.12056028587E+03  0.84020504696E+02 0.  0.
        -13    1    5    5    0    0  0.55234740475E+01  0.54547897012E+02  0.68469305514E+02  0.87715606545E+02  0.00000000000E+00 0.  1.
         14    1    5    5    0    0  0.20874222220E+02 -0.24060115115E+02  0.80094111767E+01  0.32844679326E+02  0.00000000000E+00 0. -1.
         13    1    3    3    0    0  0.58547422137E+02  0.25357675374E+02 -0.11609941631E+04  0.11627459994E+04  0.00000000000E+00 0. -1.
        -14    1    3    3    0    0 -0.10996820552E+02  0.65800830941E+01 -0.30159699019E+02  0.32769421733E+02  0.00000000000E+00 0.  1.
          5    1    4    4  501    0 -0.53739902640E+02 -0.92123517118E+02 -0.27255791915E+03  0.29271148121E+03  0.41800000000E+01 0.  1.
         -5    1    4    4    0  501 -0.20208395213E+02  0.29697976751E+02 -0.24059306456E+02  0.43435834139E+02  0.41800000000E+01 0.  1.
</event>
<event>
11    1  0.8328696E-009  0.1348882E+03  0.7561462E-02  0.1113405E+00
         22   -1    0    0    0    0  0.00000000000E+00  0.00000000000E+00  0.97177242672E+03  0.97177242672E+03  0.00000000000E+00 0.  1.
         22   -1    0    0    0    0 -0.00000000000E+00 -0.00000000000E+00 -0.21048141640E+03  0.21048141640E+03  0.00000000000E+00 0.  1.
        -24    2    1    2    0    0  0.41811145201E+02 -0.30201185549E+02 -0.18310464084E+03  0.20669301618E+03  0.80835697378E+02 0.  0.
         25    2    1    2    0    0 -0.29054271139E+02 -0.84761814103E+01  0.32401224009E+03  0.34863715399E+03  0.12509171471E+03 0.  0.
         24    2    1    2    0    0 -0.12756874062E+02  0.38677366960E+02  0.62038341107E+03  0.62692367295E+03  0.80616613808E+02 0.  0.
        -13    1    5    5    0    0  0.32233980709E+02  0.29082206472E+02  0.25719312717E+03  0.26083157192E+03  0.00000000000E+00 0.  1.
         14    1    5    5    0    0 -0.44990854771E+02  0.95951604878E+01  0.36319028390E+03  0.36609210103E+03  0.00000000000E+00 0. -1.
         13    1    3    3    0    0 -0.58981081206E+01  0.20715864657E+02 -0.74949237354E+02  0.77982837265E+02  0.00000000000E+00 0. -1.
        -14    1    3    3    0    0  0.47709253321E+02 -0.50917050207E+02 -0.10815540349E+03  0.12871017892E+03  0.00000000000E+00 0.  1.
          5    1    4    4  501    0  0.55127583561E+01 -0.31960106303E+02  0.13631372936E+02  0.35427752225E+02  0.41800000000E+01 0.  1.
         -5    1    4    4    0  501 -0.34567029495E+02  0.23483924892E+02  0.31038086716E+03  0.31320940176E+03  0.41800000000E+01 0.  1.
</event>
<event>
11    1  0.8328696E-009  0.1482289E+03  0.7561462E-02  0.1098702E+00
         22   -1    0    0    0    0  0.00000000000E+00  0.00000000000E+00  0.30295228709E+03  0.30295228709E+03  0.00000000000E+00 0. -1.
         22   -1    0    0    0    0 -0.00000000000E+00 -0.00000000000E+00 -0.93462682574E+03  0.93462682574E+03  0.00000000000E+00 0.  1.
        -24    2    1    2    0    0 -0.68786586297E+02 -0.10474681378E+02 -0.65057854532E+03  0.65935834841E+03  0.81606829271E+02 0.  0.
         25    2    1    2    0    0  0.13714755681E+03 -0.25213205380E+02 -0.23496543960E+03  0.30050111951E+03  0.12508799686E+03 0.  0.
         24    2    1    2    0    0 -0.68360970515E+02  0.35687886758E+02  0.25386944627E+03  0.27771964490E+03  0.82046681000E+02 0.  0.
        -13    1    5    5    0    0 -0.30050928514E+02 -0.82011575236E+01  0.20743330286E+02  0.37424631469E+02  0.00000000000E+00 0.  1.
         14    1    5    5    0    0 -0.38310042001E+02  0.43889044282E+02  0.23312611598E+03  0.24029501343E+03  0.00000000000E+00 0. -1.
         13    1    3    3    0    0 -0.69162852727E+02 -0.24090616116E+02 -0.31101870054E+03  0.31952541381E+03  0.00000000000E+00 0. -1.
        -14    1    3    3    0    0  0.37626642985E+00  0.13615934737E+02 -0.33955984478E+03  0.33983293460E+03  0.00000000000E+00 0.  1.
          5    1    4    4  501    0 -0.15630911089E+02  0.35481561784E+01 -0.77249786429E+02  0.79005801667E+02  0.41800000000E+01 0. -1.
         -5    1    4    4    0  501  0.15277846790E+03 -0.28761361558E+02 -0.15771565317E+03  0.22149531785E+03  0.41800000000E+01 0. -1.
</event>
<event>
11    1  0.8328696E-009  0.1962951E+03  0.7561462E-02  0.1057175E+00
         22   -1    0    0    0    0  0.00000000000E+00  0.00000000000E+00  0.22483977959E+04  0.22483977959E+04  0.00000000000E+00 0. -1.
         22   -1    0    0    0    0 -0.00000000000E+00 -0.00000000000E+00 -0.10725329430E+03  0.10725329430E+03  0.00000000000E+00 0.  1.
        -24    2    1    2    0    0 -0.83923243048E+02 -0.24154374105E+02 -0.11205167796E+02  0.11943553112E+03  0.80701584842E+02 0.  0.
         25    2    1    2    0    0  0.21403729881E+03 -0.40322949343E+02  0.37640046033E+03  0.45250658764E+03  0.12508796823E+03 0.  0.
         24    2    1    2    0    0 -0.13011405577E+03  0.64477323449E+02  0.17759492091E+04  0.17837089715E+04  0.80840020118E+02 0.  0.
        -11    1    5    5    0    0 -0.20626038456E+02  0.20017657750E+01  0.71451225044E+03  0.71481270034E+03  0.00000000000E+00 0.  1.
         12    1    5    5    0    0 -0.10948801731E+03  0.62475557674E+02  0.10614369587E+04  0.10688962711E+04  0.00000000000E+00 0. -1.
         11    1    3    3    0    0  0.15964762078E+02  0.26175170254E+00 -0.32917343297E+01  0.16302688645E+02  0.00000000000E+00 0. -1.
        -12    1    3    3    0    0 -0.99888005126E+02 -0.24416125808E+02 -0.79134334661E+01  0.10313284247E+03  0.00000000000E+00 0.  1.
          5    1    4    4  501    0  0.22712011984E+03 -0.25201678145E+02  0.35946920799E+03  0.42597447965E+03  0.41800000000E+01 0. -1.
         -5    1    4    4    0  501 -0.13082821032E+02 -0.15121271198E+02  0.16931252341E+02  0.26532107994E+02  0.41800000000E+01 0. -1.
</event>
<event>
11    1  0.1021194E-008  0.1635727E+03  0.7561462E-02  0.1083764E+00
         22   -1    0    0    0    0  0.00000000000E+00  0.00000000000E+00  0.14359197172E+04  0.14359197172E+04  0.00000000000E+00 0.  1.
         22   -1    0    0    0    0 -0.00000000000E+00 -0.00000000000E+00 -0.77220569471E+03  0.77220569471E+03  0.00000000000E+00 0. -1.
        -24    2    1    2    0    0 -0.26551098413E+02  0.95653629687E+02 -0.59898106952E+03  0.61217719276E+03  0.78281645277E+02 0.  0.
         25    2    1    2    0    0  0.80389398064E+02 -0.15349564941E+03 -0.94766450642E+02  0.23377618502E+03  0.12508898755E+03 0.  0.
         24    2    1    2    0    0 -0.53838299652E+02  0.57842019725E+02  0.13574615427E+04  0.13621720342E+04  0.81034246071E+02 0.  0.
        -11    1    5    5    0    0 -0.12876393276E+02  0.57610572052E+02  0.10894570226E+04  0.10910551698E+04  0.00000000000E+00 0.  1.
         12    1    5    5    0    0 -0.40961906375E+02  0.23144767280E+00  0.26800452012E+03  0.27111686437E+03  0.00000000000E+00 0. -1.
         13    1    3    3    0    0 -0.47934548008E+02  0.90689798675E+02 -0.52826654722E+03  0.53813372444E+03  0.00000000000E+00 0. -1.
        -14    1    3    3    0    0  0.21383449595E+02  0.49638310112E+01 -0.70714522307E+02  0.74043468314E+02  0.00000000000E+00 0.  1.
          5    1    4    4  501    0  0.67154907283E+02 -0.10386485429E+02 -0.16413654200E+02  0.70032428888E+02  0.41800000000E+01 0. -1.
         -5    1    4    4    0  501  0.13234490781E+02 -0.14310916398E+03 -0.78352796443E+02  0.16374375613E+03  0.41800000000E+01 0. -1.
</event>
<event>
11    1  0.8328696E-009  0.1503674E+03  0.7561462E-02  0.1096504E+00
         22   -1    0    0    0    0  0.00000000000E+00  0.00000000000E+00  0.85147552264E+03  0.85147552264E+03  0.00000000000E+00 0.  1.
         22   -1    0    0    0    0 -0.00000000000E+00 -0.00000000000E+00 -0.14066723092E+03  0.14066723092E+03  0.00000000000E+00 0.  1.
         24    2    1    2    0    0  0.45267205578E+02  0.66958657598E+02 -0.80607590628E+02  0.13980362634E+03  0.80714859495E+02 0.  0.
         25    2    1    2    0    0 -0.92237430520E+01 -0.12563745990E+03  0.29028572025E+03  0.34027069893E+03  0.12509396629E+03 0.  0.
        -24    2    1    2    0    0 -0.36043462526E+02  0.58678802304E+02  0.50113016210E+03  0.51206842828E+03  0.79626018676E+02 0.  0.
        -11    1    3    3    0    0 -0.15528382518E+02  0.36095553842E+02 -0.53618504038E+02  0.66475285979E+02  0.00000000000E+00 0.  1.
         12    1    3    3    0    0  0.60795588095E+02  0.30863103755E+02 -0.26989086590E+02  0.73328340362E+02  0.00000000000E+00 0. -1.
         13    1    5    5    0    0 -0.19185464371E+02 -0.57408107341E+01  0.28863101618E+02  0.35130009764E+02  0.00000000000E+00 0. -1.
        -14    1    5    5    0    0 -0.16857998155E+02  0.64419613038E+02  0.47226706048E+03  0.47693841852E+03  0.00000000000E+00 0.  1.
          5    1    4    4  501    0 -0.61216069384E+02 -0.10236707082E+03  0.17824024519E+03  0.21450753307E+03  0.41800000000E+01 0.  1.
         -5    1    4    4    0  501  0.51992326332E+02 -0.23270389083E+02  0.11204547506E+03  0.12576316586E+03  0.41800000000E+01 0.  1.
</event>
<event>
11    1  0.8328696E-009  0.2367901E+03  0.7561462E-02  0.1031181E+00
         22   -1    0    0    0    0  0.00000000000E+00  0.00000000000E+00  0.31028279796E+03  0.31028279796E+03  0.00000000000E+00 0. -1.
         22   -1    0    0    0    0 -0.00000000000E+00 -0.00000000000E+00 -0.33468916203E+03  0.33468916203E+03  0.00000000000E+00 0. -1.
         24    2    1    2    0    0 -0.11221960816E+03 -0.14386310691E+03 -0.10388410100E+03  0.22476068138E+03  0.80222337699E+02 0.  0.
         25    2    1    2    0    0  0.96723627827E+02  0.23121155340E+03  0.56466880472E+01  0.28016868796E+03  0.12509342918E+03 0.  0.
        -24    2    1    2    0    0  0.15495980334E+02 -0.87348446489E+02  0.73831048890E+02  0.14004259065E+03  0.79315994007E+02 0.  0.
        -13    1    3    3    0    0 -0.60811101084E+02 -0.45324322199E+02 -0.81603592750E+02  0.11140660011E+03  0.00000000000E+00 0.  1.
         14    1    3    3    0    0 -0.51408507077E+02 -0.98538784712E+02 -0.22280508254E+02  0.11335408127E+03  0.00000000000E+00 0. -1.
         13    1    5    5    0    0  0.39219222671E+02 -0.70844904303E+02  0.76009857595E+02  0.11106145301E+03  0.00000000000E+00 0. -1.
        -14    1    5    5    0    0 -0.23723242337E+02 -0.16503542186E+02 -0.21788087052E+01  0.28981137642E+02  0.00000000000E+00 0.  1.
          5    1    4    4  501    0  0.51548184141E+02  0.21131829447E+03 -0.29335721054E+02  0.21952378868E+03  0.41800000000E+01 0.  1.
         -5    1    4    4    0  501  0.45175443686E+02  0.19893258931E+02  0.34982409101E+02  0.60644899288E+02  0.41800000000E+01 0.  1.
</event>
<event>
11    1  0.8328696E-009  0.1744916E+03  0.7561462E-02  0.1074188E+00
         22   -1    0    0    0    0  0.00000000000E+00  0.00000000000E+00  0.20397303056E+03  0.20397303056E+03  0.00000000000E+00 0.  1.
         22   -1    0    0    0    0 -0.00000000000E+00 -0.00000000000E+00 -0.10742688475E+04  0.10742688475E+04  0.00000000000E+00 0.  1.
         24    2    1    2    0    0 -0.14431764241E+02 -0.11162978313E+02 -0.90131228815E+03  0.90544139124E+03  0.84423837232E+02 0.  0.
         25    2    1    2    0    0  0.13191249579E+03 -0.78122061801E+01 -0.73681580403E+02  0.19631221942E+03  0.12509026777E+03 0.  0.
        -24    2    1    2    0    0 -0.11748073155E+03  0.18975184493E+02  0.10469805159E+03  0.17648826742E+03  0.77618597121E+02 0.  0.
        -13    1    3    3    0    0 -0.20818312272E+02 -0.28160985038E+02 -0.85469957934E+03  0.85541674880E+03  0.00000000000E+00 0.  1.
         14    1    3    3    0    0  0.63865480312E+01  0.16998006725E+02 -0.46612708804E+02  0.50024642432E+02  0.00000000000E+00 0. -1.
         13    1    5    5    0    0 -0.32900411370E+02 -0.23149071006E+02  0.74819561305E+01  0.40918164968E+02  0.00000000000E+00 0. -1.
        -14    1    5    5    0    0 -0.84580320178E+02  0.42124255500E+02  0.97216095462E+02  0.13557010246E+03  0.00000000000E+00 0.  1.
          5    1    4    4  501    0  0.23620048346E+02 -0.24185927750E+01 -0.83928232471E+02  0.87322258792E+02  0.41800000000E+01 0. -1.
         -5    1    4    4    0  501  0.10829244744E+03 -0.53936134051E+01  0.10246652068E+02  0.10898996063E+03  0.41800000000E+01 0. -1.
</event>
<event>
11    1  0.8328696E-009  0.1437510E+03  0.7561462E-02  0.1103441E+00
         22   -1    0    0    0    0  0.00000000000E+00  0.00000000000E+00  0.31812251083E+02  0.31812251083E+02  0.00000000000E+00 0.  1.
         22   -1    0    0    0    0 -0.00000000000E+00 -0.00000000000E+00 -0.19432871276E+04  0.19432871276E+04  0.00000000000E+00 0. -1.
         24    2    1    2    0    0 -0.36469981353E+02  0.35396960631E+02 -0.13202183223E+04  0.13238847714E+04  0.84329503912E+02 0.  0.
         25    2    1    2    0    0 -0.47032747853E+01 -0.89832388273E+02 -0.45798924353E+03  0.48321209003E+03  0.12509115872E+03 0.  0.
        -24    2    1    2    0    0  0.41173256139E+02  0.54435427641E+02 -0.13326731075E+03  0.16800251724E+03  0.76198535953E+02 0.  0.
        -13    1    3    3    0    0  0.16389025665E+01  0.29039272189E+02 -0.10943106872E+04  0.10946971479E+04  0.00000000000E+00 0.  1.
         14    1    3    3    0    0 -0.38108883920E+02  0.63576884421E+01 -0.22590763503E+03  0.22918762358E+03  0.00000000000E+00 0. -1.
         11    1    5    5    0    0  0.12638524798E+02 -0.19358160609E+02 -0.32583972623E+02  0.39952296094E+02  0.00000000000E+00 0. -1.
        -12    1    5    5    0    0  0.28534731341E+02  0.73793588251E+02 -0.10068333812E+03  0.12805022115E+03  0.00000000000E+00 0.  1.
          5    1    4    4  501    0 -0.28481988780E+02 -0.11369127128E+03 -0.38949373707E+03  0.40676746731E+03  0.41800000000E+01 0. -1.
         -5    1    4    4    0  501  0.23778713995E+02  0.23858883003E+02 -0.68495506460E+02  0.76444622718E+02  0.41800000000E+01 0. -1.
</event>
<event>
11    1  0.8328696E-009  0.1356180E+03  0.7561462E-02  0.1112553E+00
         22   -1    0    0    0    0  0.00000000000E+00  0.00000000000E+00  0.65344037025E+03  0.65344037025E+03  0.00000000000E+00 0.  1.
         22   -1    0    0    0    0 -0.00000000000E+00 -0.00000000000E+00 -0.27593694548E+04  0.27593694548E+04  0.00000000000E+00 0.  1.
         24    2    1    2    0    0 -0.10946339103E+02 -0.51360154603E+02 -0.27330773341E+04  0.27347920583E+04  0.81352322797E+02 0.  0.
         25    2    1    2    0    0 -0.34675812113E+02  0.29930726237E+02  0.19436468961E+03  0.23563344491E+03  0.12508887830E+03 0.  0.
        -24    2    1    2    0    0  0.45622151216E+02  0.21429428366E+02  0.43278355994E+03  0.44238432179E+03  0.76561591714E+02 0.  0.
        -13    1    3    3    0    0  0.13832455720E+02 -0.34537714919E+02 -0.45521447938E+03  0.45673232075E+03  0.00000000000E+00 0.  1.
         14    1    3    3    0    0 -0.24778794823E+02 -0.16822439684E+02 -0.22778628547E+04  0.22780597376E+04  0.00000000000E+00 0. -1.
         11    1    5    5    0    0 -0.31977074386E+01 -0.67001683345E+01  0.16767402799E+01  0.76111133574E+01  0.00000000000E+00 0. -1.
        -12    1    5    5    0    0  0.48819858654E+02  0.28129596701E+02  0.43110681966E+03  0.43477320843E+03  0.00000000000E+00 0.  1.
          5    1    4    4  501    0  0.67043284853E+01 -0.19142638038E+02  0.16255908858E+03  0.16387287235E+03  0.41800000000E+01 0.  1.
         -5    1    4    4    0  501 -0.41380140598E+02  0.49073364274E+02  0.31805601029E+02  0.71760572558E+02  0.41800000000E+01 0.  1.
</event>
<event>
11    1  0.8328696E-009  0.1554201E+03  0.7561462E-02  0.1091466E+00
         22   -1    0    0    0    0  0.00000000000E+00  0.00000000000E+00  0.11176578650E+04  0.11176578650E+04  0.00000000000E+00 0. -1.
         22   -1    0    0    0    0 -0.00000000000E+00 -0.00000000000E+00 -0.10222768620E+04  0.10222768620E+04  0.00000000000E+00 0. -1.
        -24    2    1    2    0    0  0.41589845099E+02 -0.80286343233E+02 -0.92783136790E+03  0.93568427509E+03  0.80364191395E+02 0.  0.
         25    2    1    2    0    0 -0.77312993307E+02  0.11577204519E+03  0.10950666390E+02  0.18747392384E+03  0.12508433013E+03 0.  0.
         24    2    1    2    0    0  0.35723148207E+02 -0.35485701955E+02  0.10122617045E+04  0.10167765280E+04  0.81396382328E+02 0.  0.
        -13    1    5    5    0    0 -0.17525857712E+02 -0.12431315957E+02  0.84055601700E+02  0.86758500922E+02  0.00000000000E+00 0.  1.
         14    1    5    5    0    0  0.53249005919E+02 -0.23054385998E+02  0.92820610282E+03  0.93001802706E+03  0.00000000000E+00 0. -1.
         13    1    3    3    0    0  0.25191270519E+02 -0.95309930765E+02 -0.77428306458E+03  0.78053369377E+03  0.00000000000E+00 0. -1.
        -14    1    3    3    0    0  0.16398574581E+02  0.15023587532E+02 -0.15354830332E+03  0.15515058132E+03  0.00000000000E+00 0.  1.
          5    1    4    4  501    0 -0.40907421087E+02  0.90770429571E+02 -0.50474898295E+02  0.11170441237E+03  0.41800000000E+01 0.  1.
         -5    1    4    4    0  501 -0.36405572220E+02  0.25001615617E+02  0.61425564685E+02  0.75769511474E+02  0.41800000000E+01 0.  1.
</event>
<event>
11    1  0.8328696E-009  0.1524860E+03  0.7561462E-02  0.1094365E+00
         22   -1    0    0    0    0  0.00000000000E+00  0.00000000000E+00  0.58672880975E+03  0.58672880975E+03  0.00000000000E+00 0. -1.
         22   -1    0    0    0    0 -0.00000000000E+00 -0.00000000000E+00 -0.21411801213E+03  0.21411801213E+03  0.00000000000E+00 0. -1.
        -24    2    1    2    0    0  0.31816180767E+02 -0.63731263325E+02 -0.16149225737E+03  0.19367283000E+03  0.79721218044E+02 0.  0.
         25    2    1    2    0    0 -0.10105237763E+03  0.68709364817E+02  0.32398633584E+03  0.36816764409E+03  0.12509080105E+03 0.  0.
         24    2    1    2    0    0  0.69236196858E+02 -0.49781014925E+01  0.21011671915E+03  0.23900634779E+03  0.90313709743E+02 0.  0.
        -13    1    5    5    0    0  0.36505147455E+02  0.11474494067E+01  0.12498923047E+02  0.38602661931E+02  0.00000000000E+00 0.  1.
         14    1    5    5    0    0  0.32731049403E+02 -0.61255508993E+01  0.19761779610E+03  0.20040368586E+03  0.00000000000E+00 0. -1.
         13    1    3    3    0    0  0.51054413491E+02 -0.60441751130E+02 -0.15328611995E+03  0.17250041445E+03  0.00000000000E+00 0. -1.
        -14    1    3    3    0    0 -0.19238232724E+02 -0.32895121951E+01 -0.82061374196E+01  0.21172415549E+02  0.00000000000E+00 0.  1.
          5    1    4    4  501    0 -0.20477808565E+02  0.87759742855E+02  0.19470272651E+03  0.21458736501E+03  0.41800000000E+01 0.  1.
         -5    1    4    4    0  501 -0.80574569060E+02 -0.19050378037E+02  0.12928360933E+03  0.15358027908E+03  0.41800000000E+01 0.  1.
</event>
<event>
11    1  0.8328696E-009  0.1796033E+03  0.7561462E-02  0.1069964E+00
         22   -1    0    0    0    0  0.00000000000E+00  0.00000000000E+00  0.10544192705E+04  0.10544192705E+04  0.00000000000E+00 0. -1.
         22   -1    0    0    0    0 -0.00000000000E+00 -0.00000000000E+00 -0.11639946597E+03  0.11639946597E+03  0.00000000000E+00 0.  1.
        -24    2    1    2    0    0 -0.40569831942E+02  0.43431217696E+02 -0.58656487988E+02  0.11616823077E+03  0.80760710263E+02 0.  0.
         25    2    1    2    0    0  0.15455316368E+03 -0.26480614422E+02  0.52960507270E+03  0.56632249263E+03  0.12510687148E+03 0.  0.
         24    2    1    2    0    0 -0.11398333174E+03 -0.16950603274E+02  0.46707121981E+03  0.48832801306E+03  0.83840330933E+02 0.  0.
        -11    1    5    5    0    0 -0.63102849141E+02 -0.15854982639E+02  0.11120056176E+03  0.12883677650E+03  0.00000000000E+00 0.  1.
         12    1    5    5    0    0 -0.50880482601E+02 -0.10956206352E+01  0.35587065806E+03  0.35949123655E+03  0.00000000000E+00 0. -1.
         13    1    3    3    0    0  0.37015971687E+01  0.54486622905E+02 -0.30566487684E+02  0.62584375578E+02  0.00000000000E+00 0. -1.
        -14    1    3    3    0    0 -0.44271429111E+02 -0.11055405209E+02 -0.28090000304E+02  0.53583855189E+02  0.00000000000E+00 0.  1.
          5    1    4    4  501    0  0.16944547663E+03 -0.24174679253E+02  0.52113082658E+03  0.54853531835E+03  0.41800000000E+01 0.  1.
         -5    1    4    4    0  501 -0.14892312943E+02 -0.23059351684E+01  0.84742461191E+01  0.17787174286E+02  0.41800000000E+01 0.  1.
</event>
<event>
11    1  0.8328696E-009  0.2089166E+03  0.7561462E-02  0.1048391E+00
         22   -1    0    0    0    0  0.00000000000E+00  0.00000000000E+00  0.12240221636E+04  0.12240221636E+04  0.00000000000E+00 0. -1.
         22   -1    0    0    0    0 -0.00000000000E+00 -0.00000000000E+00 -0.53741036555E+03  0.53741036555E+03  0.00000000000E+00 0.  1.
         24    2    1    2    0    0 -0.13155365325E+03 -0.93198123366E+02 -0.37159606799E+03  0.41279464738E+03  0.79520621735E+02 0.  0.
         25    2    1    2    0    0  0.18698770784E+03  0.73700009604E+02 -0.44960267672E+02  0.24096742863E+03  0.12509109359E+03 0.  0.
        -24    2    1    2    0    0 -0.55434054591E+02  0.19498113762E+02  0.11031681337E+04  0.11076704531E+04  0.80627480768E+02 0.  0.
        -13    1    3    3    0    0 -0.13591772675E+03 -0.70767820474E+02 -0.34639629821E+03  0.37877712216E+03  0.00000000000E+00 0.  1.
         14    1    3    3    0    0  0.43640735007E+01 -0.22430302892E+02 -0.25199769784E+02  0.34017525226E+02  0.00000000000E+00 0. -1.
         13    1    5    5    0    0 -0.39479808494E+02  0.40127726592E+02  0.98730741965E+03  0.98891093159E+03  0.00000000000E+00 0. -1.
        -14    1    5    5    0    0 -0.15954246098E+02 -0.20629612830E+02  0.11586071404E+03  0.11875952152E+03  0.00000000000E+00 0.  1.
          5    1    4    4  501    0  0.19709720896E+03  0.46291953007E+02 -0.54924530058E+02  0.20981999689E+03  0.41800000000E+01 0.  1.
         -5    1    4    4    0  501 -0.10109501121E+02  0.27408056597E+02  0.99642623864E+01  0.31147431744E+02  0.41800000000E+01 0.  1.
</event>
<event>
11    1  0.8328696E-009  0.1739834E+03  0.7561462E-02  0.1074616E+00
         22   -1    0    0    0    0  0.00000000000E+00  0.00000000000E+00  0.18503358678E+04  0.18503358678E+04  0.00000000000E+00 0. -1.
         22   -1    0    0    0    0 -0.00000000000E+00 -0.00000000000E+00 -0.56052715224E+03  0.56052715224E+03  0.00000000000E+00 0.  1.
        -24    2    1    2    0    0 -0.95286449030E+02 -0.27703396105E+02 -0.48495506009E+03  0.50136321764E+03  0.79603267299E+02 0.  0.
         25    2    1    2    0    0  0.76384389679E+02  0.14647690121E+03  0.10277889766E+03  0.23130305307E+03  0.12509013942E+03 0.  0.
         24    2    1    2    0    0  0.18902059351E+02 -0.11877350510E+03  0.16719848780E+04  0.16781967493E+04  0.79664696559E+02 0.  0.
        -11    1    5    5    0    0 -0.76154803547E+01 -0.13869018042E+02  0.46573523967E+02  0.49187786463E+02  0.00000000000E+00 0.  1.
         12    1    5    5    0    0  0.26517539705E+02 -0.10490448706E+03  0.16254113540E+04  0.16290089629E+04  0.00000000000E+00 0. -1.
         11    1    3    3    0    0 -0.36411140923E+02 -0.45938626985E+02 -0.15527476253E+03  0.16597102311E+03  0.00000000000E+00 0. -1.
        -12    1    3    3    0    0 -0.58875308107E+02  0.18235230880E+02 -0.32968029756E+03  0.33539219453E+03  0.00000000000E+00 0.  1.
          5    1    4    4  501    0  0.36666493561E+02  0.97701020209E+01  0.77864489535E+02  0.86719304507E+02  0.41800000000E+01 0.  1.
         -5    1    4    4    0  501  0.39717896118E+02  0.13670679919E+03  0.24914408127E+02  0.14458374856E+03  0.41800000000E+01 0.  1.
</event>
<event>
11    1  0.8328696E-009  0.1379655E+03  0.7561462E-02  0.1109852E+00
         22   -1    0    0    0    0  0.00000000000E+00  0.00000000000E+00  0.12315407128E+03  0.12315407128E+03  0.00000000000E+00 0.  1.
         22   -1    0    0    0    0 -0.00000000000E+00 -0.00000000000E+00 -0.90442204851E+03  0.90442204851E+03  0.00000000000E+00 0. -1.
        -24    2    1    2    0    0 -0.39665625983E+02  0.46533796222E+02 -0.77765405933E+03  0.78435439055E+03  0.82019619063E+02 0.  0.
         25    2    1    2    0    0 -0.10533562368E+02 -0.32746513497E+02 -0.47304916088E+02  0.13807932087E+03  0.12507938952E+03 0.  0.
         24    2    1    2    0    0  0.50199188351E+02 -0.13787282725E+02  0.43690998176E+02  0.10514240838E+03  0.80224528926E+02 0.  0.
        -13    1    5    5    0    0 -0.98958860722E+01 -0.72044267181E+01  0.42974332046E+02  0.44683616017E+02  0.00000000000E+00 0.  1.
         14    1    5    5    0    0  0.60095074423E+02 -0.65828560069E+01  0.71666612929E+00  0.60458792359E+02  0.00000000000E+00 0. -1.
         13    1    3    3    0    0 -0.16488970043E+02  0.68331603405E+02 -0.51243478318E+03  0.51723350739E+03  0.00000000000E+00 0. -1.
        -14    1    3    3    0    0 -0.23176655940E+02 -0.21797807184E+02 -0.26521927615E+03  0.26712088316E+03  0.00000000000E+00 0.  1.
          5    1    4    4  501    0  0.44923986167E+02  0.90317113009E+01  0.11007722840E+02  0.47311507102E+02  0.41800000000E+01 0.  1.
         -5    1    4    4    0  501 -0.55457548535E+02 -0.41778224797E+02 -0.58312638928E+02  0.90767813764E+02  0.41800000000E+01 0.  1.
</event>
<event>
11    1  0.8328696E-009  0.1253699E+03  0.7561462E-02  0.1125092E+00
         22   -1    0    0    0    0  0.00000000000E+00  0.00000000000E+00  0.71327155342E+02  0.71327155342E+02  0.00000000000E+00 0. -1.
         22   -1    0    0    0    0 -0.00000000000E+00 -0.00000000000E+00 -0.19203506336E+04  0.19203506336E+04  0.00000000000E+00 0. -1.
         24    2    1    2    0    0 -0.28680904612E+02  0.21111114346E+02 -0.15795272791E+04  0.15817272951E+04  0.75409131886E+02 0.  0.
         25    2    1    2    0    0  0.32782750231E+02 -0.22352305855E+02 -0.28672967980E+03  0.31533833373E+03  0.12510004455E+03 0.  0.
        -24    2    1    2    0    0 -0.41018456188E+01  0.12411915092E+01  0.17233480602E+02  0.94612160168E+02  0.92930631679E+02 0.  0.
        -11    1    3    3    0    0 -0.14588725409E+02 -0.27686084181E+02 -0.47228845194E+03  0.47332412996E+03  0.00000000000E+00 0.  1.
         12    1    3    3    0    0 -0.14092179203E+02  0.48797198528E+02 -0.11072388271E+04  0.11084031651E+04  0.00000000000E+00 0. -1.
         11    1    5    5    0    0 -0.17439672068E+02  0.30031665502E+02  0.41900875452E+02  0.54421746189E+02  0.00000000000E+00 0. -1.
        -12    1    5    5    0    0  0.13337826450E+02 -0.28790473993E+02 -0.24667394849E+02  0.40190413979E+02  0.00000000000E+00 0.  1.
          5    1    4    4  501    0  0.54420071965E+02  0.32162997993E+02 -0.90373679118E+02  0.11036701024E+03  0.41800000000E+01 0.  1.
         -5    1    4    4    0  501 -0.21637321735E+02 -0.54515303849E+02 -0.19635600069E+03  0.20497132348E+03  0.41800000000E+01 0.  1.
</event>
<event>
11    1  0.8328696E-009  0.1536806E+03  0.7561462E-02  0.1093176E+00
         22   -1    0    0    0    0  0.00000000000E+00  0.00000000000E+00  0.18764390245E+04  0.18764390245E+04  0.00000000000E+00 0.  1.
         22   -1    0    0    0    0 -0.00000000000E+00 -0.00000000000E+00 -0.23710912282E+03  0.23710912282E+03  0.00000000000E+00 0. -1.
         24    2    1    2    0    0  0.57764446702E+02  0.12881059055E+02 -0.13999837260E+03  0.17143771164E+03  0.79301271475E+02 0.  0.
         25    2    1    2    0    0 -0.13335075803E+03 -0.57674941732E+02  0.36375115075E+02  0.19515269849E+03  0.12511036393E+03 0.  0.
        -24    2    1    2    0    0  0.75586311324E+02  0.44793882677E+02  0.17429531592E+04  0.17469577372E+04  0.79093855121E+02 0.  0.
        -13    1    3    3    0    0  0.65062877173E+02  0.10329695784E+02 -0.54246320663E+02  0.85337822251E+02  0.00000000000E+00 0.  1.
         14    1    3    3    0    0 -0.72984304714E+01  0.25513632712E+01 -0.85752051938E+02  0.86099889393E+02  0.00000000000E+00 0. -1.
         11    1    5    5    0    0 -0.11165354270E+02  0.22170724088E+02  0.22637636435E+03  0.22773331877E+03  0.00000000000E+00 0. -1.
        -12    1    5    5    0    0  0.86751665594E+02  0.22623158589E+02  0.15165767949E+04  0.15192244184E+04  0.00000000000E+00 0.  1.
          5    1    4    4  501    0 -0.25625878883E+02  0.20171445440E+02  0.51730053787E+02  0.61294728521E+02  0.41800000000E+01 0.  1.
         -5    1    4    4    0  501 -0.10772487914E+03 -0.77846387172E+02 -0.15354938713E+02  0.13385796997E+03  0.41800000000E+01 0.  1.
</event>
<event>
11    1  0.8328696E-009  0.1731067E+03  0.7561462E-02  0.1075359E+00
         22   -1    0    0    0    0  0.00000000000E+00  0.00000000000E+00  0.64792027866E+03  0.64792027866E+03  0.00000000000E+00 0.  1.
         22   -1    0    0    0    0 -0.00000000000E+00 -0.00000000000E+00 -0.19158922442E+03  0.19158922442E+03  0.00000000000E+00 0.  1.
         24    2    1    2    0    0  0.10568155264E+02  0.40140158275E+02 -0.77293188177E+02  0.11912261429E+03  0.80579414770E+02 0.  0.
         25    2    1    2    0    0 -0.76990253159E+02 -0.13478808138E+03  0.34925096898E+02  0.20239170936E+03  0.12508923080E+03 0.  0.
        -24    2    1    2    0    0  0.66422097894E+02  0.94647923106E+02  0.49869914552E+03  0.51799517942E+03  0.79044568011E+02 0.  0.
        -11    1    3    3    0    0  0.23315793705E+02  0.57160327909E+02 -0.75867636775E+02  0.97810161193E+02  0.00000000000E+00 0.  1.
         12    1    3    3    0    0 -0.12747638441E+02 -0.17020169634E+02 -0.14255514012E+01  0.21312453097E+02  0.00000000000E+00 0. -1.
         11    1    5    5    0    0  0.29141402097E+02  0.28639422968E+02  0.58742470352E+02  0.71554983664E+02  0.00000000000E+00 0. -1.
        -12    1    5    5    0    0  0.37280695798E+02  0.66008500138E+02  0.43995667516E+03  0.44644019576E+03  0.00000000000E+00 0.  1.
          5    1    4    4  501    0 -0.64614109713E+02 -0.31912105605E+01  0.25999957862E+02  0.69847241947E+02  0.41800000000E+01 0. -1.
         -5    1    4    4    0  501 -0.12376143445E+02 -0.13159687082E+03  0.89251390364E+01  0.13254446742E+03  0.41800000000E+01 0. -1.
</event>
<event>
11    1  0.8328696E-009  0.1455491E+03  0.7561462E-02  0.1101515E+00
         22   -1    0    0    0    0  0.00000000000E+00  0.00000000000E+00  0.12908175969E+04  0.12908175969E+04  0.00000000000E+00 0.  1.
         22   -1    0    0    0    0 -0.00000000000E+00 -0.00000000000E+00 -0.21183488114E+04  0.21183488114E+04  0.00000000000E+00 0.  1.
        -24    2    1    2    0    0  0.35629876660E+02  0.48142381785E+02 -0.21011568282E+04  0.21034353344E+04  0.77414548387E+02 0.  0.
         25    2    1    2    0    0  0.69232328309E+01  0.29632889656E+02  0.32763050360E+03  0.35201571198E+03  0.12508906943E+03 0.  0.
         24    2    1    2    0    0 -0.42553109491E+02 -0.77775271440E+02  0.94599511003E+03  0.95371536198E+03  0.82501415118E+02 0.  0.
        -13    1    5    5    0    0 -0.23486531373E+02 -0.15821891059E+02  0.65395812290E+03  0.65457098614E+03  0.00000000000E+00 0.  1.
         14    1    5    5    0    0 -0.19066578118E+02 -0.61953380382E+02  0.29203698713E+03  0.29914437584E+03  0.00000000000E+00 0. -1.
         11    1    3    3    0    0  0.14362365553E+02 -0.19145039095E+02 -0.32651228111E+03  0.32738827068E+03  0.00000000000E+00 0. -1.
        -12    1    3    3    0    0  0.21267511107E+02  0.67287420880E+02 -0.17746445471E+04  0.17760470637E+04  0.00000000000E+00 0.  1.
          5    1    4    4  501    0 -0.46358118169E+02  0.18372362037E+02  0.56653754271E+02  0.75589278869E+02  0.41800000000E+01 0. -1.
         -5    1    4    4    0  501  0.53281350999E+02  0.11260527618E+02  0.27097674933E+03  0.27642643311E+03  0.41800000000E+01 0. -1.
</event>
<event>
11    1  0.8328696E-009  0.3376151E+03  0.7561462E-02  0.9854193E-01
         22   -1    0    0    0    0  0.00000000000E+00  0.00000000000E+00  0.19855733439E+03  0.19855733439E+03  0.00000000000E+00 0.  1.
         22   -1    0    0    0    0 -0.00000000000E+00 -0.00000000000E+00 -0.12164229225E+04  0.12164229225E+04  0.00000000000E+00 0.  1.
         24    2    1    2    0    0  0.77262338376E+02  0.43041631848E+02 -0.54289868475E+03  0.55572724548E+03  0.79194308324E+02 0.  0.
         25    2    1    2    0    0 -0.10760248618E+03  0.27909300951E+03 -0.40475898841E+03  0.51860156659E+03  0.12508614304E+03 0.  0.
        -24    2    1    2    0    0  0.30340147802E+02 -0.32213464136E+03 -0.70207914936E+02  0.34065144480E+03  0.80143644769E+02 0.  0.
        -11    1    3    3    0    0  0.91213154625E+02  0.47317244945E+02 -0.49890211195E+03  0.50937420287E+03  0.00000000000E+00 0.  1.
         12    1    3    3    0    0 -0.13950816249E+02 -0.42756130977E+01 -0.43996572797E+02  0.46353042610E+02  0.00000000000E+00 0. -1.
         11    1    5    5    0    0  0.12452323214E+02 -0.19331168046E+03 -0.18472078381E+01  0.19372113548E+03  0.00000000000E+00 0. -1.
        -12    1    5    5    0    0  0.17887824587E+02 -0.12882296090E+03 -0.68360707098E+02  0.14693030933E+03  0.00000000000E+00 0.  1.
          5    1    4    4  501    0 -0.85264393569E+02  0.15685608141E+03 -0.32516113182E+03  0.37097315419E+03  0.41800000000E+01 0.  1.
         -5    1    4    4    0  501 -0.22338092609E+02  0.12223692810E+03 -0.79597856598E+02  0.14762841240E+03  0.41800000000E+01 0.  1.
</event>
<event>
11    1  0.8328696E-009  0.1353514E+03  0.7561462E-02  0.1112863E+00
         22   -1    0    0    0    0  0.00000000000E+00  0.00000000000E+00  0.86783400639E+03  0.86783400639E+03  0.00000000000E+00 0.  1.
         22   -1    0    0    0    0 -0.00000000000E+00 -0.00000000000E+00 -0.21013236551E+04  0.21013236551E+04  0.00000000000E+00 0. -1.
         24    2    1    2    0    0 -0.29601019652E+02  0.42321943173E+02 -0.20577977133E+04  0.20600185286E+04  0.80483178889E+02 0.  0.
         25    2    1    2    0    0  0.29205194132E+02 -0.51795812940E+02  0.78858240876E+02  0.15937319689E+03  0.12508174979E+03 0.  0.
        -24    2    1    2    0    0  0.39582551955E+00  0.94738697668E+01  0.74544982366E+03  0.74976593604E+03  0.79772228056E+02 0.  0.
        -13    1    3    3    0    0 -0.39731758648E+02 -0.10523686693E+02 -0.76824476504E+03  0.76934347313E+03  0.00000000000E+00 0.  1.
         14    1    3    3    0    0  0.10130738996E+02  0.52845629866E+02 -0.12895529483E+04  0.12906750555E+04  0.00000000000E+00 0. -1.
         11    1    5    5    0    0  0.33038059774E+02  0.16585923781E+02  0.20658817715E+03  0.20986967670E+03  0.00000000000E+00 0. -1.
        -12    1    5    5    0    0 -0.32642234254E+02 -0.71120540139E+01  0.53886164651E+03  0.53989625934E+03  0.00000000000E+00 0.  1.
          5    1    4    4  501    0 -0.13047439021E+01  0.24800377077E+02  0.72297297902E+02  0.76558035135E+02  0.41800000000E+01 0. -1.
         -5    1    4    4    0  501  0.30509938034E+02 -0.76596190017E+02  0.65609429735E+01  0.82815161756E+02  0.41800000000E+01 0. -1.
</event>
<event>
11    1  0.8328696E-009  0.3861784E+03  0.7561462E-02  0.9691443E-01
         22   -1    0    0    0    0  0.00000000000E+00  0.00000000000E+00  0.26106076391E+04  0.26106076391E+04  0.00000000000E+00 0.  1.
         22   -1    0    0    0    0 -0.00000000000E+00 -0.00000000000E+00 -0.69077338121E+03  0.69077338121E+03  0.00000000000E+00 0.  1.
         24    2    1    2    0    0 -0.34824473769E+02  0.24490594584E+02 -0.58564055915E+03  0.59273644507E+03  0.80926482671E+02 0.  0.
         25    2    1    2    0    0 -0.27575832553E+03  0.18047179239E+03  0.27808406447E+03  0.44898779347E+03  0.12508624957E+03 0.  0.
        -24    2    1    2    0    0  0.31058279930E+03 -0.20496238698E+03  0.22273907526E+04  0.22596567818E+04  0.79422612929E+02 0.  0.
        -11    1    3    3    0    0 -0.43343845611E+02  0.28212734924E+02 -0.57901517723E+03  0.58132024120E+03  0.00000000000E+00 0.  1.
         12    1    3    3    0    0  0.85193718420E+01 -0.37221403398E+01 -0.66253819217E+01  0.11416203874E+02  0.00000000000E+00 0. -1.
         11    1    5    5    0    0 -0.40542372454E+01 -0.14346769308E+01  0.56364418327E+02  0.56528247725E+02  0.00000000000E+00 0. -1.
        -12    1    5    5    0    0  0.31463703654E+03 -0.20352771005E+03  0.21710263342E+04  0.22031285340E+04  0.00000000000E+00 0.  1.
          5    1    4    4  501    0 -0.12786982960E+03  0.42279565834E+02  0.49268041119E+02  0.14346800090E+03  0.41800000000E+01 0.  1.
         -5    1    4    4    0  501 -0.14788849593E+03  0.13819222656E+03  0.22881602335E+03  0.30551979257E+03  0.41800000000E+01 0.  1.
</event>
<event>
11    1  0.8328696E-009  0.1269175E+03  0.7561462E-02  0.1123115E+00
         22   -1    0    0    0    0  0.00000000000E+00  0.00000000000E+00  0.23812861406E+03  0.23812861406E+03  0.00000000000E+00 0. -1.
         22   -1    0    0    0    0 -0.00000000000E+00 -0.00000000000E+00 -0.22802302813E+03  0.22802302813E+03  0.00000000000E+00 0.  1.
         24    2    1    2    0    0 -0.59286606463E+01  0.19295907128E+02 -0.11913133345E+03  0.14644755946E+03  0.82747398820E+02 0.  0.
         25    2    1    2    0    0 -0.82304840278E+01 -0.28327610531E+02 -0.37308713344E+02  0.13382496039E+03  0.12508791128E+03 0.  0.
        -24    2    1    2    0    0  0.14159144674E+02  0.90317034030E+01  0.16654563273E+03  0.18587912234E+03  0.80817988695E+02 0.  0.
        -11    1    3    3    0    0 -0.60787312000E+01  0.14917928484E+02 -0.13193524618E+03  0.13291502830E+03  0.00000000000E+00 0.  1.
         12    1    3    3    0    0  0.15007055370E+00  0.43779786445E+01  0.12803912731E+02  0.13532531153E+02  0.00000000000E+00 0. -1.
         11    1    5    5    0    0 -0.60308889227E+01  0.35565562698E+02  0.13585437106E+03  0.14056205394E+03  0.00000000000E+00 0. -1.
        -12    1    5    5    0    0  0.20190033597E+02 -0.26533859295E+02  0.30691261671E+02  0.45317068403E+02  0.00000000000E+00 0.  1.
          5    1    4    4  501    0 -0.18551195033E+02 -0.75139639720E+02 -0.90823814494E+01  0.78038928409E+02  0.41800000000E+01 0.  1.
         -5    1    4    4    0  501  0.10320711005E+02  0.46812029189E+02 -0.28226331894E+02  0.55786031985E+02  0.41800000000E+01 0.  1.
</event>
<event>
11    1  0.8328696E-009  0.1590305E+03  0.7561462E-02  0.1087993E+00
         22   -1    0    0    0    0  0.00000000000E+00  0.00000000000E+00  0.20359777626E+04  0.20359777626E+04  0.00000000000E+00 0. -1.
         22   -1    0    0    0    0 -0.00000000000E+00 -0.00000000000E+00 -0.68592662279E+02  0.68592662279E+02  0.00000000000E+00 0.  1.
        -24    2    1    2    0    0  0.81551657192E+02  0.16821231088E+02  0.65351071992E+02  0.13385404925E+03  0.81929953526E+02 0.  0.
         25    2    1    2    0    0 -0.12804498790E+03 -0.59355228081E+02  0.23813063743E+03  0.30376297949E+03  0.12508870934E+03 0.  0.
         24    2    1    2    0    0  0.46493330707E+02  0.42533996992E+02  0.16639033909E+04  0.16669533961E+04  0.78666129459E+02 0.  0.
        -13    1    5    5    0    0 -0.12433160579E+02  0.25022025916E+02  0.94919331681E+03  0.94960446395E+03  0.00000000000E+00 0.  1.
         14    1    5    5    0    0  0.58926491285E+02  0.17511971076E+02  0.71471007407E+03  0.71734893217E+03  0.00000000000E+00 0. -1.
         11    1    3    3    0    0  0.50308337821E+02 -0.29054695110E+02  0.48973933070E+02  0.75983881729E+02  0.00000000000E+00 0. -1.
        -12    1    3    3    0    0  0.31243319370E+02  0.45875926199E+02  0.16377138922E+02  0.57870167523E+02  0.00000000000E+00 0.  1.
          5    1    4    4  501    0  0.12565797747E+02 -0.23963725254E+02  0.30745543995E+01  0.27551491535E+02  0.41800000000E+01 0.  1.
         -5    1    4    4    0  501 -0.14061078565E+03 -0.35391502827E+02  0.23505608303E+03  0.27621148796E+03  0.41800000000E+01 0.  1.
</event>
<event>
11    1  0.8328696E-009  0.1456631E+03  0.7561462E-02  0.1101394E+00
         22   -1    0    0    0    0  0.00000000000E+00  0.00000000000E+00  0.12378809199E+04  0.12378809199E+04  0.00000000000E+00 0.  1.
         22   -1    0    0    0    0 -0.00000000000E+00 -0.00000000000E+00 -0.12563135257E+03  0.12563135257E+03  0.00000000000E+00 0.  1.
         24    2    1    2    0    0  0.45562008059E+02  0.58701490123E+02 -0.86845833323E+02  0.14078511193E+03  0.82197855527E+02 0.  0.
         25    2    1    2    0    0 -0.52184986431E+02 -0.62593898321E+02  0.60791546218E+03  0.62598236670E+03  0.12510573665E+03 0.  0.
        -24    2    1    2    0    0  0.66229783719E+01  0.38924081979E+01  0.59117993851E+03  0.59674479388E+03  0.80942044931E+02 0.  0.
        -13    1    3    3    0    0  0.66235075624E+01  0.10618736226E+02 -0.77149284986E+02  0.78157792863E+02  0.00000000000E+00 0.  1.
         14    1    3    3    0    0  0.38938500497E+02  0.48082753897E+02 -0.96965483375E+01  0.62627319062E+02  0.00000000000E+00 0. -1.
         13    1    5    5    0    0  0.96456072694E+01  0.10964411008E-01  0.56184774392E+01  0.11162667627E+02  0.00000000000E+00 0. -1.
        -14    1    5    5    0    0 -0.30226288974E+01  0.38814437869E+01  0.58556146107E+03  0.58558212625E+03  0.00000000000E+00 0.  1.
          5    1    4    4  501    0 -0.81318888963E+02 -0.20965242764E+02  0.23482041812E+03  0.24942013606E+03  0.41800000000E+01 0. -1.
         -5    1    4    4    0  501  0.29133902532E+02 -0.41628655557E+02  0.37309504406E+03  0.37656223064E+03  0.41800000000E+01 0. -1.
</event>
<event>
11    1  0.8328696E-009  0.1842045E+03  0.7561462E-02  0.1066292E+00
         22   -1    0    0    0    0  0.00000000000E+00  0.00000000000E+00  0.72310328025E+03  0.72310328025E+03  0.00000000000E+00 0.  1.
         22   -1    0    0    0    0 -0.00000000000E+00 -0.00000000000E+00 -0.91606057656E+02  0.91606057656E+02  0.00000000000E+00 0. -1.
        -24    2    1    2    0    0 -0.78487948648E+02  0.59868862738E+01  0.74782351184E+02  0.13474833460E+03  0.79802961965E+02 0.  0.
         25    2    1    2    0    0 -0.17974838512E+02 -0.11511874327E+03  0.10840317466E+03  0.20242415932E+03  0.12509545208E+03 0.  0.
         24    2    1    2    0    0  0.96462787160E+02  0.10913185699E+03  0.44831169675E+03  0.47753684399E+03  0.76441012584E+02 0.  0.
        -13    1    5    5    0    0  0.63099414865E+02  0.36041172522E+02  0.30196584833E+03  0.31058634199E+03  0.00000000000E+00 0.  1.
         14    1    5    5    0    0  0.33363372294E+02  0.73090684470E+02  0.14634584842E+03  0.16695050200E+03  0.00000000000E+00 0. -1.
         11    1    3    3    0    0 -0.90113460548E+02 -0.50639195205E+01  0.76894687891E+02  0.11857011461E+03  0.00000000000E+00 0. -1.
        -12    1    3    3    0    0  0.11625511900E+02  0.11050805794E+02 -0.21123367066E+01  0.16178219989E+02  0.00000000000E+00 0.  1.
          5    1    4    4  501    0 -0.72911673129E+01 -0.14099090112E+03  0.99447730054E+02  0.17273945332E+03  0.41800000000E+01 0.  1.
         -5    1    4    4    0  501 -0.10683671199E+02  0.25872157856E+02  0.89554446050E+01  0.29684706003E+02  0.41800000000E+01 0.  1.
</event>
<event>
11    1  0.8328696E-009  0.1483067E+03  0.7561462E-02  0.1098622E+00
         22   -1    0    0    0    0  0.00000000000E+00  0.00000000000E+00  0.31677234621E+03  0.31677234621E+03  0.00000000000E+00 0.  1.
         22   -1    0    0    0    0 -0.00000000000E+00 -0.00000000000E+00 -0.81425501126E+03  0.81425501126E+03  0.00000000000E+00 0.  1.
        -24    2    1    2    0    0  0.30150671175E+01  0.31787836120E+02 -0.63806609971E+03  0.64378655556E+03  0.79455801361E+02 0.  0.
         25    2    1    2    0    0 -0.71360255408E+02 -0.70260477469E+02 -0.12228444304E+03  0.20157787074E+03  0.12510528453E+03 0.  0.
         24    2    1    2    0    0  0.68345188290E+02  0.38472641349E+02  0.26286787771E+03  0.28566293116E+03  0.79703075327E+02 0.  0.
        -13    1    5    5    0    0  0.26123631603E+01  0.86051983398E+01  0.15850272077E+03  0.15875763406E+03  0.00000000000E+00 0.  1.
         14    1    5    5    0    0  0.65732825130E+02  0.29867443009E+02  0.10436515693E+03  0.12690529710E+03  0.00000000000E+00 0. -1.
         13    1    3    3    0    0  0.16680380403E+01  0.56451419493E+02 -0.33609902335E+03  0.34081094262E+03  0.00000000000E+00 0. -1.
        -14    1    3    3    0    0  0.13470290772E+01 -0.24663583372E+02 -0.30196707636E+03  0.30297561294E+03  0.00000000000E+00 0.  1.
          5    1    4    4  501    0 -0.42407262544E+02 -0.53376035579E+02  0.63393181189E+01  0.68593268218E+02  0.41800000000E+01 0.  1.
         -5    1    4    4    0  501 -0.28952992863E+02 -0.16884441890E+02 -0.12862376116E+03  0.13298460252E+03  0.41800000000E+01 0.  1.
</event>
<event>
11    1  0.8328696E-009  0.1558833E+03  0.7561462E-02  0.1091014E+00
         22   -1    0    0    0    0  0.00000000000E+00  0.00000000000E+00  0.13614082220E+04  0.13614082220E+04  0.00000000000E+00 0.  1.
         22   -1    0    0    0    0 -0.00000000000E+00 -0.00000000000E+00 -0.13971983557E+03  0.13971983557E+03  0.00000000000E+00 0. -1.
         24    2    1    2    0    0 -0.80579904647E+01 -0.11163893621E+03 -0.42470388812E+02  0.14353647167E+03  0.79188392364E+02 0.  0.
         25    2    1    2    0    0 -0.27502926918E+02  0.53018641664E+02  0.63537867396E+02  0.15248834381E+03  0.12509295364E+03 0.  0.
        -24    2    1    2    0    0  0.35560917382E+02  0.58620294544E+02  0.12006209079E+04  0.12051032421E+04  0.77989370768E+02 0.  0.
        -13    1    3    3    0    0  0.61552589746E+01 -0.72517626779E+01 -0.36826470441E+02  0.38035039110E+02  0.00000000000E+00 0.  1.
         14    1    3    3    0    0 -0.14213249439E+02 -0.10438717353E+03 -0.56439183712E+01  0.10550143256E+03  0.00000000000E+00 0. -1.
         13    1    5    5    0    0  0.53941161483E+02  0.38160471836E+02  0.55873259585E+03  0.56262597183E+03  0.00000000000E+00 0. -1.
        -14    1    5    5    0    0 -0.18380244101E+02  0.20459822708E+02  0.64188831200E+03  0.64247727026E+03  0.00000000000E+00 0.  1.
          5    1    4    4  501    0 -0.44390055314E+02  0.35048290599E+02 -0.23900374957E+02  0.61543155654E+02  0.41800000000E+01 0.  1.
         -5    1    4    4    0  501  0.16887128397E+02  0.17970351065E+02  0.87438242352E+02  0.90945188155E+02  0.41800000000E+01 0.  1.
</event>
<event>
11    1  0.8328696E-009  0.1342717E+03  0.7561462E-02  0.1114129E+00
         22   -1    0    0    0    0  0.00000000000E+00  0.00000000000E+00  0.83509660744E+03  0.83509660744E+03  0.00000000000E+00 0.  1.
         22   -1    0    0    0    0 -0.00000000000E+00 -0.00000000000E+00 -0.44990355719E+03  0.44990355719E+03  0.00000000000E+00 0.  1.
         24    2    1    2    0    0  0.49213130543E+01  0.48684247466E+02 -0.42371984885E+03  0.43326806839E+03  0.76081098230E+02 0.  0.
         25    2    1    2    0    0 -0.24303063370E+02 -0.39653937600E+02  0.22494707087E+03  0.26155662461E+03  0.12509040542E+03 0.  0.
        -24    2    1    2    0    0  0.19381750315E+02 -0.90303098665E+01  0.58396582823E+03  0.59017547163E+03  0.82666801244E+02 0.  0.
        -13    1    3    3    0    0 -0.62343878497E+00  0.58078472156E+02 -0.41567667938E+03  0.41971490251E+03  0.00000000000E+00 0.  1.
         14    1    3    3    0    0  0.55447518392E+01 -0.93942246895E+01 -0.80431694638E+01  0.13553165885E+02  0.00000000000E+00 0. -1.
         11    1    5    5    0    0 -0.21220063988E+02  0.23999176282E+02  0.26738022901E+03  0.26929247751E+03  0.00000000000E+00 0. -1.
        -12    1    5    5    0    0  0.40601814303E+02 -0.33029486149E+02  0.31658559922E+03  0.32088299412E+03  0.00000000000E+00 0.  1.
          5    1    4    4  501    0  0.64922842845E+00 -0.76304877487E+02  0.19048953529E+03  0.20524763404E+03  0.41800000000E+01 0.  1.
         -5    1    4    4    0  501 -0.24952291798E+02  0.36650939887E+02  0.34457535580E+02  0.56308990568E+02  0.41800000000E+01 0.  1.
</event>
<event>
11    1  0.8328696E-009  0.1311271E+03  0.7561462E-02  0.1117892E+00
         22   -1    0    0    0    0  0.00000000000E+00  0.00000000000E+00  0.19927601978E+04  0.19927601978E+04  0.00000000000E+00 0.  1.
         22   -1    0    0    0    0 -0.00000000000E+00 -0.00000000000E+00 -0.22097795975E+03  0.22097795975E+03  0.00000000000E+00 0.  1.
        -24    2    1    2    0    0  0.34410549618E+02 -0.22853537997E+02 -0.17779835734E+03  0.19854435847E+03  0.78110410850E+02 0.  0.
         25    2    1    2    0    0 -0.19769562532E+02 -0.23520601650E+01  0.93836448540E+02  0.15763647345E+03  0.12509041089E+03 0.  0.
         24    2    1    2    0    0 -0.14640987085E+02  0.25205598162E+02  0.18557441468E+04  0.18575573256E+04  0.76702012760E+02 0.  0.
        -13    1    5    5    0    0 -0.96053591121E+01  0.40256892993E+02  0.17614979847E+04  0.17619841175E+04  0.00000000000E+00 0.  1.
         14    1    5    5    0    0 -0.50356279732E+01 -0.15051294831E+02  0.94246162099E+02  0.95573208042E+02  0.00000000000E+00 0. -1.
         11    1    3    3    0    0  0.36143487244E+02 -0.17595141481E+02 -0.28818282718E+02  0.49461440464E+02  0.00000000000E+00 0. -1.
        -12    1    3    3    0    0 -0.17329376266E+01 -0.52583965158E+01 -0.14898007462E+03  0.14908291801E+03  0.00000000000E+00 0.  1.
          5    1    4    4  501    0  0.22674530113E+02  0.48266404982E+02  0.16793885770E+02  0.56065026220E+02  0.41800000000E+01 0. -1.
         -5    1    4    4    0  501 -0.42444092645E+02 -0.50618465147E+02  0.77042562770E+02  0.10157144723E+03  0.41800000000E+01 0. -1.
</event>
<event>
11    1  0.8328696E-009  0.1619042E+03  0.7561462E-02  0.1085300E+00
         22   -1    0    0    0    0  0.00000000000E+00  0.00000000000E+00  0.88621654785E+03  0.88621654785E+03  0.00000000000E+00 0.  1.
         22   -1    0    0    0    0 -0.00000000000E+00 -0.00000000000E+00 -0.34938962414E+04  0.34938962414E+04  0.00000000000E+00 0.  1.
         24    2    1    2    0    0  0.96157395384E+02  0.35630980777E+02 -0.34215638233E+04  0.34239567296E+04  0.76582488972E+02 0.  0.
         25    2    1    2    0    0 -0.11690996223E+03 -0.47053516077E+02  0.45535550785E+02  0.18331074536E+03  0.12508944935E+03 0.  0.
        -24    2    1    2    0    0  0.20752566842E+02  0.11422535299E+02  0.76834857895E+03  0.77284531433E+03  0.79807253793E+02 0.  0.
        -13    1    3    3    0    0  0.88455399620E+02  0.74935901486E+01 -0.18566589411E+04  0.18587799588E+04  0.00000000000E+00 0.  1.
         14    1    3    3    0    0  0.77019957634E+01  0.28137390629E+02 -0.15649048822E+04  0.15651767708E+04  0.00000000000E+00 0. -1.
         13    1    5    5    0    0  0.51428144379E+01  0.40382011941E+02  0.23631929114E+03  0.23979983902E+03  0.00000000000E+00 0. -1.
        -14    1    5    5    0    0  0.15609752404E+02 -0.28959476642E+02  0.53202928781E+03  0.53304547531E+03  0.00000000000E+00 0.  1.
          5    1    4    4  501    0  0.38194266321E+01  0.27979787074E+02  0.28067898810E+02  0.40034183495E+02  0.41800000000E+01 0.  1.
         -5    1    4    4    0  501 -0.12072938886E+03 -0.75033303150E+02  0.17467651975E+02  0.14327656187E+03  0.41800000000E+01 0.  1.
</event>
<event>
11    1  0.8328696E-009  0.1286869E+03  0.7561462E-02  0.1120893E+00
         22   -1    0    0    0    0  0.00000000000E+00  0.00000000000E+00  0.35546719618E+03  0.35546719618E+03  0.00000000000E+00 0.  1.
         22   -1    0    0    0    0 -0.00000000000E+00 -0.00000000000E+00 -0.19986786847E+03  0.19986786847E+03  0.00000000000E+00 0. -1.
        -24    2    1    2    0    0 -0.36894831878E+01 -0.44518417248E+01 -0.12704454140E+03  0.15028511824E+03  0.80074153668E+02 0.  0.
         25    2    1    2    0    0  0.26199225839E+02 -0.15722168198E+02  0.21620614523E+02  0.13057090563E+03  0.12509086464E+03 0.  0.
         24    2    1    2    0    0 -0.22509742651E+02  0.20174009923E+02  0.26102325458E+03  0.27447904078E+03  0.79321656591E+02 0.  0.
        -11    1    5    5    0    0  0.13729882686E+02  0.40771646040E+02  0.14150145249E+03  0.14789691632E+03  0.00000000000E+00 0.  1.
         12    1    5    5    0    0 -0.36239625337E+02 -0.20597636117E+02  0.11952180209E+03  0.12658212446E+03  0.00000000000E+00 0. -1.
         13    1    3    3    0    0 -0.28208532367E+02 -0.12654702071E+02 -0.11937955979E+03  0.12331805252E+03  0.00000000000E+00 0. -1.
        -14    1    3    3    0    0  0.24519049180E+02  0.82028603465E+01 -0.76649816104E+01  0.26967065721E+02  0.00000000000E+00 0.  1.
          5    1    4    4  501    0  0.11056149410E+02  0.31971971650E+02 -0.39037391659E+02  0.51825049527E+02  0.41800000000E+01 0.  1.
         -5    1    4    4    0  501  0.15143076428E+02 -0.47694139848E+02  0.60658006182E+02  0.78745856104E+02  0.41800000000E+01 0.  1.
</event>
<event>
11    1  0.8328696E-009  0.1499598E+03  0.7561462E-02  0.1096920E+00
         22   -1    0    0    0    0  0.00000000000E+00  0.00000000000E+00  0.12147065973E+04  0.12147065973E+04  0.00000000000E+00 0.  1.
         22   -1    0    0    0    0 -0.00000000000E+00 -0.00000000000E+00 -0.23528251281E+03  0.23528251281E+03  0.00000000000E+00 0. -1.
         24    2    1    2    0    0  0.22496398387E+02  0.55247690594E+02 -0.10094138912E+03  0.14108665961E+03  0.78472200340E+02 0.  0.
         25    2    1    2    0    0  0.60228599361E+02 -0.63264194684E+02 -0.59283733321E+02  0.16368170010E+03  0.12508914981E+03 0.  0.
        -24    2    1    2    0    0 -0.82724997748E+02  0.80165040894E+01  0.11396492069E+04  0.11452207504E+04  0.76305718849E+02 0.  0.
        -13    1    3    3    0    0  0.20672096884E+02 -0.16711991422E+02 -0.26537834141E+02  0.37561721043E+02  0.00000000000E+00 0.  1.
         14    1    3    3    0    0  0.18243015031E+01  0.71959682016E+02 -0.74403554974E+02  0.10352493856E+03  0.00000000000E+00 0. -1.
         13    1    5    5    0    0 -0.59390649399E+02 -0.30523522637E+02  0.60392589928E+03  0.60760630880E+03  0.00000000000E+00 0. -1.
        -14    1    5    5    0    0 -0.23334348349E+02  0.38540026726E+02  0.53572330762E+03  0.53761444158E+03  0.00000000000E+00 0.  1.
          5    1    4    4  501    0  0.80217079010E+02 -0.72700301988E+01 -0.15006555790E+01  0.80668193677E+02  0.41800000000E+01 0.  1.
         -5    1    4    4    0  501 -0.19988479649E+02 -0.55994164485E+02 -0.57783077742E+02  0.83013506421E+02  0.41800000000E+01 0.  1.
</event>
<event>
11    1  0.8328696E-009  0.1278485E+03  0.7561462E-02  0.1121941E+00
         22   -1    0    0    0    0  0.00000000000E+00  0.00000000000E+00  0.91221559345E+02  0.91221559345E+02  0.00000000000E+00 0. -1.
         22   -1    0    0    0    0 -0.00000000000E+00 -0.00000000000E+00 -0.10157244013E+04  0.10157244013E+04  0.00000000000E+00 0.  1.
        -24    2    1    2    0    0 -0.16467514000E+02  0.18282148545E+01 -0.83433487614E+03  0.83832935049E+03  0.80043069426E+02 0.  0.
         25    2    1    2    0    0  0.85173038143E+01  0.24386490504E+02 -0.12160310700E+03  0.17635798850E+03  0.12509028377E+03 0.  0.
         24    2    1    2    0    0  0.79502101855E+01 -0.26214705359E+02  0.31435141202E+02  0.92258621637E+02  0.82298654575E+02 0.  0.
        -11    1    5    5    0    0 -0.16780683505E+02  0.14390257687E+02 -0.14267919014E+02  0.26310537208E+02  0.00000000000E+00 0.  1.
         12    1    5    5    0    0  0.24730893691E+02 -0.40604963046E+02  0.45703060216E+02  0.65948084429E+02  0.00000000000E+00 0. -1.
         13    1    3    3    0    0  0.24276283947E+02  0.25016168242E+02 -0.35778917008E+03  0.35948329149E+03  0.00000000000E+00 0. -1.
        -14    1    3    3    0    0 -0.40743797947E+02 -0.23187953388E+02 -0.47654570605E+03  0.47884605899E+03  0.00000000000E+00 0.  1.
          5    1    4    4  501    0  0.16328741263E+02  0.57565011857E+02 -0.11566196009E+02  0.61086886248E+02  0.41800000000E+01 0.  1.
         -5    1    4    4    0  501 -0.78114374488E+01 -0.33178521353E+02 -0.11003691099E+03  0.11527110225E+03  0.41800000000E+01 0.  1.
</event>
<event>
11    1  0.8328696E-009  0.1931100E+03  0.7561462E-02  0.1059506E+00
         22   -1    0    0    0    0  0.00000000000E+00  0.00000000000E+00  0.12247807186E+04  0.12247807186E+04  0.00000000000E+00 0. -1.
         22   -1    0    0    0    0 -0.00000000000E+00 -0.00000000000E+00 -0.57290470951E+02  0.57290470951E+02  0.00000000000E+00 0. -1.
        -24    2    1    2    0    0  0.69388931904E+02  0.48481331726E+02  0.10208669748E+03  0.15536054492E+03  0.80931710214E+02 0.  0.
         25    2    1    2    0    0  0.34175730214E+02 -0.15516856103E+03  0.53401801416E+03  0.57102984302E+03  0.12511826126E+03 0.  0.
         24    2    1    2    0    0 -0.10356466212E+03  0.10668722931E+03  0.53138553596E+03  0.55568080157E+03  0.65595436327E+02 0.  0.
        -11    1    5    5    0    0 -0.69797870684E+02  0.81831479978E+02  0.46410504368E+03  0.47640489652E+03  0.00000000000E+00 0.  1.
         12    1    5    5    0    0 -0.33766791435E+02  0.24855749330E+02  0.67280492288E+02  0.79275905047E+02  0.00000000000E+00 0. -1.
         11    1    3    3    0    0  0.63362532526E+02  0.41524641145E+02  0.11607895683E+03  0.13861251952E+03  0.00000000000E+00 0. -1.
        -12    1    3    3    0    0  0.60263993783E+01  0.69566905812E+01 -0.13992259342E+02  0.16748025400E+02  0.00000000000E+00 0.  1.
          5    1    4    4  501    0  0.68663390773E+02 -0.41509573593E+02  0.16849321495E+03  0.18666853461E+03  0.41800000000E+01 0. -1.
         -5    1    4    4    0  501 -0.34487660559E+02 -0.11365898744E+03  0.36552479922E+03  0.38436130841E+03  0.41800000000E+01 0. -1.
</event>
<event>
11    1  0.8328696E-009  0.1502997E+03  0.7561462E-02  0.1096573E+00
         22   -1    0    0    0    0  0.00000000000E+00  0.00000000000E+00  0.12193640652E+03  0.12193640652E+03  0.00000000000E+00 0. -1.
         22   -1    0    0    0    0 -0.00000000000E+00 -0.00000000000E+00 -0.29306562732E+04  0.29306562732E+04  0.00000000000E+00 0.  1.
        -24    2    1    2    0    0  0.49223873084E+02  0.62573196922E+02 -0.23228982676E+04  0.23257134922E+04  0.82149201144E+02 0.  0.
         25    2    1    2    0    0 -0.87908367399E+02 -0.78320610435E+02 -0.57663311263E+03  0.60167896083E+03  0.12509926560E+03 0.  0.
         24    2    1    2    0    0  0.38684494315E+02  0.15747413513E+02  0.90811513532E+02  0.12520022675E+03  0.75391608658E+02 0.  0.
        -11    1    5    5    0    0  0.26006519248E+02  0.35789060573E+02  0.16534212748E+02  0.47228975124E+02  0.00000000000E+00 0.  1.
         12    1    5    5    0    0  0.12677975067E+02 -0.20041647060E+02  0.74277300784E+02  0.77971251628E+02  0.00000000000E+00 0. -1.
         13    1    3    3    0    0 -0.37802623317E+01  0.95156485113E+01 -0.32218583993E+02  0.33806435843E+02  0.00000000000E+00 0. -1.
        -14    1    3    3    0    0  0.53004135415E+02  0.53057548411E+02 -0.22906796836E+04  0.22919070563E+04  0.00000000000E+00 0.  1.
          5    1    4    4  501    0 -0.98170756105E+01 -0.45544951725E+02 -0.50814823712E+02  0.69067621285E+02  0.41800000000E+01 0. -1.
         -5    1    4    4    0  501 -0.78091291788E+02 -0.32775658711E+02 -0.52581828892E+03  0.53261133955E+03  0.41800000000E+01 0. -1.
</event>
<event>
11    1  0.9454654E-009  0.1471670E+03  0.7561462E-02  0.1099809E+00
         22   -1    0    0    0    0  0.00000000000E+00  0.00000000000E+00  0.77616361034E+03  0.77616361034E+03  0.00000000000E+00 0.  1.
         22   -1    0    0    0    0 -0.00000000000E+00 -0.00000000000E+00 -0.10891031886E+04  0.10891031886E+04  0.00000000000E+00 0. -1.
        -24    2    1    2    0    0  0.10866351432E+02 -0.18121500657E+02 -0.83346859723E+03  0.83746774293E+03  0.78967407816E+02 0.  0.
         25    2    1    2    0    0  0.52217067409E+02 -0.27485336585E+02 -0.23031693655E+03  0.26865576284E+03  0.12509181344E+03 0.  0.
         24    2    1    2    0    0 -0.63083418841E+02  0.45606837242E+02  0.75084595548E+03  0.75914329321E+03  0.80432514770E+02 0.  0.
        -11    1    5    5    0    0 -0.64284466931E+02  0.28356009295E+02  0.72271550889E+03  0.72612276010E+03  0.00000000000E+00 0.  1.
         12    1    5    5    0    0  0.12010480906E+01  0.17250827947E+02  0.28130446594E+02  0.33020533111E+02  0.00000000000E+00 0. -1.
         13    1    3    3    0    0 -0.33561540125E+01  0.27844257428E+02 -0.17395842873E+03  0.17620471437E+03  0.00000000000E+00 0. -1.
        -14    1    3    3    0    0  0.14222505444E+02 -0.45965758085E+02 -0.65951016850E+03  0.66126302856E+03  0.00000000000E+00 0.  1.
          5    1    4    4  501    0 -0.22373911628E+02  0.22722091784E+02 -0.12980921820E+03  0.13373403047E+03  0.41800000000E+01 0.  1.
         -5    1    4    4    0  501  0.74590979037E+02 -0.50207428369E+02 -0.10050771835E+03  0.13492173237E+03  0.41800000000E+01 0.  1.
</event>
<event>
11    1  0.8328696E-009  0.1440198E+03  0.7561462E-02  0.1103151E+00
         22   -1    0    0    0    0  0.00000000000E+00  0.00000000000E+00  0.18230486416E+03  0.18230486416E+03  0.00000000000E+00 0.  1.
         22   -1    0    0    0    0 -0.00000000000E+00 -0.00000000000E+00 -0.72888370216E+03  0.72888370216E+03  0.00000000000E+00 0.  1.
        -24    2    1    2    0    0 -0.23534068868E+02  0.71048450993E+02 -0.42467706499E+03  0.43863723049E+03  0.80313608185E+02 0.  0.
         25    2    1    2    0    0  0.13785507020E+02 -0.61507457046E+02 -0.26762490403E+03  0.30206647552E+03  0.12509140217E+03 0.  0.
         24    2    1    2    0    0  0.97485618476E+01 -0.95409939472E+01  0.14572313102E+03  0.17048486031E+03  0.87428780482E+02 0.  0.
        -13    1    5    5    0    0  0.46121877641E+02 -0.20271793076E+02  0.88522674094E+02  0.10185498034E+03  0.00000000000E+00 0.  1.
         14    1    5    5    0    0 -0.36373315793E+02  0.10730799129E+02  0.57200456928E+02  0.68629879968E+02  0.00000000000E+00 0. -1.
         11    1    3    3    0    0 -0.52258793365E+02  0.32001373184E+02 -0.23213833450E+03  0.24009014081E+03  0.00000000000E+00 0. -1.
        -12    1    3    3    0    0  0.28724724497E+02  0.39047077809E+02 -0.19253873049E+03  0.19854708969E+03  0.00000000000E+00 0.  1.
          5    1    4    4  501    0 -0.10069479565E+02 -0.94796598579E+02 -0.21522694480E+03  0.23543130567E+03  0.41800000000E+01 0.  1.
         -5    1    4    4    0  501  0.23854986585E+02  0.33289141533E+02 -0.52397959235E+02  0.66635169851E+02  0.41800000000E+01 0.  1.
</event>
<event>
11    1  0.8328696E-009  0.1499483E+03  0.7561462E-02  0.1096932E+00
         22   -1    0    0    0    0  0.00000000000E+00  0.00000000000E+00  0.62775443501E+03  0.62775443501E+03  0.00000000000E+00 0.  1.
         22   -1    0    0    0    0 -0.00000000000E+00 -0.00000000000E+00 -0.34774266840E+03  0.34774266840E+03  0.00000000000E+00 0.  1.
         24    2    1    2    0    0  0.30935641813E+02 -0.67590080876E+02 -0.14599435728E+03  0.18232293593E+03  0.80011671918E+02 0.  0.
         25    2    1    2    0    0 -0.61848615651E+02  0.79518202646E+02 -0.14452088091E+03  0.21606022251E+03  0.12508932376E+03 0.  0.
        -24    2    1    2    0    0  0.30912973838E+02 -0.11928121770E+02  0.57052700480E+03  0.57711394498E+03  0.80383768485E+02 0.  0.
        -11    1    3    3    0    0  0.44030176608E+02 -0.79486624172E+02 -0.12900771843E+03  0.15779661368E+03  0.00000000000E+00 0.  1.
         12    1    3    3    0    0 -0.13094534795E+02  0.11896543296E+02 -0.16986638847E+02  0.24526322252E+02  0.00000000000E+00 0. -1.
         13    1    5    5    0    0  0.10749171180E+02 -0.45963080031E+02  0.29168916919E+03  0.29548387575E+03  0.00000000000E+00 0. -1.
        -14    1    5    5    0    0  0.20163802658E+02  0.34034958261E+02  0.27883783561E+03  0.28163006922E+03  0.00000000000E+00 0.  1.
          5    1    4    4  501    0  0.35107496163E+02  0.11408197183E+01 -0.39203069115E+02  0.52803321719E+02  0.41800000000E+01 0.  1.
         -5    1    4    4    0  501 -0.96956111815E+02  0.78377382928E+02 -0.10531781180E+03  0.16325690079E+03  0.41800000000E+01 0.  1.
</event>
<event>
11    1  0.8328696E-009  0.1575651E+03  0.7561462E-02  0.1089390E+00
         22   -1    0    0    0    0  0.00000000000E+00  0.00000000000E+00  0.65935366885E+03  0.65935366885E+03  0.00000000000E+00 0. -1.
         22   -1    0    0    0    0 -0.00000000000E+00 -0.00000000000E+00 -0.32244223090E+03  0.32244223090E+03  0.00000000000E+00 0. -1.
         24    2    1    2    0    0  0.36774201524E+02 -0.86096551439E+02 -0.25979744279E+03  0.28709074834E+03  0.78494766905E+02 0.  0.
         25    2    1    2    0    0 -0.31965656367E+02  0.12064213741E+03  0.12867119261E+03  0.21858694750E+03  0.12509056441E+03 0.  0.
        -24    2    1    2    0    0 -0.48085451568E+01 -0.34545585969E+02  0.46803768813E+03  0.47611820391E+03  0.80079628891E+02 0.  0.
        -13    1    3    3    0    0  0.12924296282E+02 -0.20770158170E+02 -0.17823078746E+03  0.17990178015E+03  0.00000000000E+00 0.  1.
         14    1    3    3    0    0  0.23849905241E+02 -0.65326393268E+02 -0.81566655335E+02  0.10718896818E+03  0.00000000000E+00 0. -1.
         11    1    5    5    0    0 -0.25646486060E+02  0.16133844900E+02  0.11854340114E+03  0.12235432625E+03  0.00000000000E+00 0. -1.
        -12    1    5    5    0    0  0.20837940903E+02 -0.50679430869E+02  0.34949428699E+03  0.35376387766E+03  0.00000000000E+00 0.  1.
          5    1    4    4  501    0 -0.72322897284E+02  0.65299397597E+02  0.37532496366E+02  0.10450250467E+03  0.41800000000E+01 0.  1.
         -5    1    4    4    0  501  0.40357240917E+02  0.55342739811E+02  0.91138696246E+02  0.11408444284E+03  0.41800000000E+01 0.  1.
</event>
<event>
11    1  0.8328696E-009  0.1299544E+03  0.7561462E-02  0.1119325E+00
         22   -1    0    0    0    0  0.00000000000E+00  0.00000000000E+00  0.99194124246E+03  0.99194124246E+03  0.00000000000E+00 0. -1.
         22   -1    0    0    0    0 -0.00000000000E+00 -0.00000000000E+00 -0.19103252921E+03  0.19103252921E+03  0.00000000000E+00 0.  1.
        -24    2    1    2    0    0  0.99508199515E+01  0.24484058725E+01 -0.91269112783E+02  0.12132413733E+03  0.79274723843E+02 0.  0.
         25    2    1    2    0    0  0.18750202970E+02  0.18369164432E+02 -0.33252178019E+02  0.13206877177E+03  0.12508979503E+03 0.  0.
         24    2    1    2    0    0 -0.28701022922E+02 -0.20817570304E+02  0.92543000405E+03  0.92958086258E+03  0.80266853229E+02 0.  0.
        -13    1    5    5    0    0  0.23903783028E+02 -0.36033733066E+01  0.13007338808E+03  0.13230064788E+03  0.00000000000E+00 0.  1.
         14    1    5    5    0    0 -0.52604805950E+02 -0.17214196998E+02  0.79535661596E+03  0.79728021469E+03  0.00000000000E+00 0. -1.
         13    1    3    3    0    0 -0.14734630127E+02 -0.35691501436E+01  0.91718762942E+01  0.17719240178E+02  0.00000000000E+00 0. -1.
        -14    1    3    3    0    0  0.24685450079E+02  0.60175560161E+01 -0.10044098908E+03  0.10360489715E+03  0.00000000000E+00 0.  1.
          5    1    4    4  501    0  0.39152956330E+02 -0.43535663585E+02  0.16751886358E+00  0.58701008984E+02  0.41800000000E+01 0.  1.
         -5    1    4    4    0  501 -0.20402753360E+02  0.61904828017E+02 -0.33419696883E+02  0.73367762786E+02  0.41800000000E+01 0.  1.
</event>
<event>
11    1  0.8328696E-009  0.1381634E+03  0.7561462E-02  0.1109627E+00
         22   -1    0    0    0    0  0.00000000000E+00  0.00000000000E+00  0.29002930180E+03  0.29002930180E+03  0.00000000000E+00 0.  1.
         22   -1    0    0    0    0 -0.00000000000E+00 -0.00000000000E+00 -0.75706768629E+03  0.75706768629E+03  0.00000000000E+00 0.  1.
         24    2    1    2    0    0  0.56563081651E+02 -0.10438310441E+02 -0.66752097669E+03  0.67459703551E+03  0.78667435883E+02 0.  0.
         25    2    1    2    0    0 -0.84252649982E+02 -0.19783618312E+01 -0.31767137711E+01  0.15086423820E+03  0.12508998327E+03 0.  0.
        -24    2    1    2    0    0  0.27689568331E+02  0.12416672272E+02  0.20365930597E+03  0.22163571437E+03  0.82002384301E+02 0.  0.
        -13    1    3    3    0    0  0.24604872644E+02  0.11972395542E+02 -0.61408517721E+02  0.67229041801E+02  0.00000000000E+00 0.  1.
         14    1    3    3    0    0  0.31958209007E+02 -0.22410705982E+02 -0.60611245897E+03  0.60736799371E+03  0.00000000000E+00 0. -1.
         13    1    5    5    0    0  0.81394107748E+01 -0.29587161709E+01 -0.59810753287E+01  0.10525078205E+02  0.00000000000E+00 0. -1.
        -14    1    5    5    0    0  0.19550157556E+02  0.15375388443E+02  0.20964038130E+03  0.21111063617E+03  0.00000000000E+00 0.  1.
          5    1    4    4  501    0 -0.25723599891E+02  0.50522638835E+02 -0.34078982629E+02  0.66280389885E+02  0.41800000000E+01 0. -1.
         -5    1    4    4    0  501 -0.58529050091E+02 -0.52501000666E+02  0.30902268858E+02  0.84583848317E+02  0.41800000000E+01 0. -1.
</event>
<event>
11    1  0.8328696E-009  0.1478749E+03  0.7561462E-02  0.1099070E+00
         22   -1    0    0    0    0  0.00000000000E+00  0.00000000000E+00  0.84994654019E+03  0.84994654019E+03  0.00000000000E+00 0. -1.
         22   -1    0    0    0    0 -0.00000000000E+00 -0.00000000000E+00 -0.35834502292E+03  0.35834502292E+03  0.00000000000E+00 0. -1.
        -24    2    1    2    0    0 -0.44822231502E+02  0.26370659588E+02 -0.30547372909E+03  0.32019451438E+03  0.80659058715E+02 0.  0.
         25    2    1    2    0    0 -0.34464807976E+02  0.14192653886E+01  0.62017097202E+02  0.14382164631E+03  0.12509479725E+03 0.  0.
         24    2    1    2    0    0  0.79287039479E+02 -0.27789924977E+02  0.73505814917E+03  0.74427540242E+03  0.81096716526E+02 0.  0.
        -11    1    5    5    0    0  0.73404758065E+01  0.11028014354E+02  0.16871992054E+02  0.21451428892E+02  0.00000000000E+00 0.  1.
         12    1    5    5    0    0  0.71946563672E+02 -0.38817939330E+02  0.71818615711E+03  0.72282397353E+03  0.00000000000E+00 0. -1.
         11    1    3    3    0    0 -0.76636065705E+01 -0.14478808570E+02 -0.20409585797E+03  0.20475225519E+03  0.00000000000E+00 0. -1.
        -12    1    3    3    0    0 -0.37158624932E+02  0.40849468158E+02 -0.10137787112E+03  0.11544225920E+03  0.00000000000E+00 0.  1.
          5    1    4    4  501    0 -0.78186266714E+02 -0.16813417053E+02  0.51203095979E+02  0.95052683989E+02  0.41800000000E+01 0. -1.
         -5    1    4    4    0  501  0.43721458738E+02  0.18232682441E+02  0.10814001223E+02  0.48768962318E+02  0.41800000000E+01 0. -1.
</event>
<event>
11    1  0.8328696E-009  0.1575214E+03  0.7561462E-02  0.1089432E+00
         22   -1    0    0    0    0  0.00000000000E+00  0.00000000000E+00  0.27896478848E+04  0.27896478848E+04  0.00000000000E+00 0.  1.
         22   -1    0    0    0    0 -0.00000000000E+00 -0.00000000000E+00 -0.10523939965E+03  0.10523939965E+03  0.00000000000E+00 0.  1.
         24    2    1    2    0    0 -0.32387537671E+02 -0.13462002330E+02 -0.73588089296E+02  0.11824030140E+03  0.85646855670E+02 0.  0.
         25    2    1    2    0    0 -0.54492224663E+02  0.63564670540E+02  0.77459461437E+03  0.78908462549E+03  0.12509140535E+03 0.  0.
        -24    2    1    2    0    0  0.86879762334E+02 -0.50102668210E+02  0.19834019601E+04  0.19875623576E+04  0.80389175193E+02 0.  0.
        -13    1    3    3    0    0 -0.30131576813E+02 -0.12034706624E+02 -0.93076616090E+02  0.98569785165E+02  0.00000000000E+00 0.  1.
         14    1    3    3    0    0 -0.22559608578E+01 -0.14272957059E+01  0.19488526794E+02  0.19670516237E+02  0.00000000000E+00 0. -1.
         13    1    5    5    0    0 -0.22213491269E+01  0.12524970014E+02  0.50253705567E+03  0.50269802227E+03  0.00000000000E+00 0. -1.
        -14    1    5    5    0    0  0.89101111461E+02 -0.62627638224E+02  0.14808649044E+04  0.14848643353E+04  0.00000000000E+00 0.  1.
          5    1    4    4  501    0  0.94248075284E+01  0.41727645347E+02  0.60443989433E+03  0.60596623804E+03  0.41800000000E+01 0.  1.
         -5    1    4    4    0  501 -0.63917032192E+02  0.21837025193E+02  0.17015472003E+03  0.18311838745E+03  0.41800000000E+01 0.  1.
</event>
<event>
11    1  0.8328696E-009  0.1490153E+03  0.7561462E-02  0.1097889E+00
         22   -1    0    0    0    0  0.00000000000E+00  0.00000000000E+00  0.12448116745E+04  0.12448116745E+04  0.00000000000E+00 0. -1.
         22   -1    0    0    0    0 -0.00000000000E+00 -0.00000000000E+00 -0.35968307691E+03  0.35968307691E+03  0.00000000000E+00 0.  1.
         24    2    1    2    0    0 -0.68524228649E+02 -0.21191314487E+02 -0.24271826036E+03  0.26605289777E+03  0.82020416846E+02 0.  0.
         25    2    1    2    0    0  0.14605255620E+03  0.41933041072E+01 -0.12426514964E+02  0.19274566406E+03  0.12509012659E+03 0.  0.
        -24    2    1    2    0    0 -0.77528327548E+02  0.16998010380E+02  0.11402733730E+04  0.11456961896E+04  0.78082135434E+02 0.  0.
        -13    1    3    3    0    0 -0.15053183597E+02 -0.47009623899E+02 -0.11863409612E+03  0.12849339219E+03  0.00000000000E+00 0.  1.
         14    1    3    3    0    0 -0.53471045052E+02  0.25818309411E+02 -0.12408416424E+03  0.13755950558E+03  0.00000000000E+00 0. -1.
         13    1    5    5    0    0 -0.66363821014E+02  0.25568562070E+02  0.11103785309E+04  0.11126537602E+04  0.00000000000E+00 0. -1.
        -14    1    5    5    0    0 -0.11164506534E+02 -0.85705516900E+01  0.29894842070E+02  0.33042429463E+02  0.00000000000E+00 0.  1.
          5    1    4    4  501    0 -0.13588519952E+02 -0.16269644257E+02 -0.22798948614E+02  0.31410406821E+02  0.41800000000E+01 0. -1.
         -5    1    4    4    0  501  0.15964107615E+03  0.20462948365E+02  0.10372433651E+02  0.16133525724E+03  0.41800000000E+01 0. -1.
</event>
<event>
11    1  0.8328696E-009  0.1592951E+03  0.7561462E-02  0.1087742E+00
         22   -1    0    0    0    0  0.00000000000E+00  0.00000000000E+00  0.10655704591E+03  0.10655704591E+03  0.00000000000E+00 0.  1.
         22   -1    0    0    0    0 -0.00000000000E+00 -0.00000000000E+00 -0.10633252075E+04  0.10633252075E+04  0.00000000000E+00 0. -1.
         24    2    1    2    0    0 -0.40964224645E+02  0.18983433756E+02 -0.70732225468E+03  0.71274339467E+03  0.75232547650E+02 0.  0.
         25    2    1    2    0    0  0.42542693661E+02  0.82048433466E+02 -0.28356741400E+03  0.32341808168E+03  0.12508777341E+03 0.  0.
        -24    2    1    2    0    0 -0.15784690157E+01 -0.10103186722E+03  0.34121507096E+02  0.13372077705E+03  0.80666220993E+02 0.  0.
        -13    1    3    3    0    0 -0.62259985178E+02  0.21058924271E+02 -0.49462168148E+03  0.49896932956E+03  0.00000000000E+00 0.  1.
         14    1    3    3    0    0  0.21295760533E+02 -0.20754905157E+01 -0.21270057320E+03  0.21377406512E+03  0.00000000000E+00 0. -1.
         13    1    5    5    0    0 -0.19809335268E+02  0.33828566223E+01 -0.50482358851E+01  0.20720477027E+02  0.00000000000E+00 0. -1.
        -14    1    5    5    0    0  0.18230866252E+02 -0.10441472384E+03  0.39169742981E+02  0.11300030002E+03  0.00000000000E+00 0.  1.
          5    1    4    4  501    0 -0.61407749976E+01  0.43088017493E+02 -0.24735695777E+03  0.25119160680E+03  0.41800000000E+01 0. -1.
         -5    1    4    4    0  501  0.48683468658E+02  0.38960415973E+02 -0.36210456230E+02  0.72226474881E+02  0.41800000000E+01 0. -1.
</event>
<event>
11    1  0.8328696E-009  0.1772304E+03  0.7561462E-02  0.1071905E+00
         22   -1    0    0    0    0  0.00000000000E+00  0.00000000000E+00  0.67671098118E+03  0.67671098118E+03  0.00000000000E+00 0.  1.
         22   -1    0    0    0    0 -0.00000000000E+00 -0.00000000000E+00 -0.28763617719E+03  0.28763617719E+03  0.00000000000E+00 0.  1.
         24    2    1    2    0    0 -0.12956259763E+01  0.97616442786E+01 -0.80451389344E+02  0.11573097866E+03  0.82609109845E+02 0.  0.
         25    2    1    2    0    0  0.33825027187E+02 -0.13054689133E+03 -0.13368912492E+03  0.22739067916E+03  0.12508843090E+03 0.  0.
        -24    2    1    2    0    0 -0.32529401211E+02  0.12078524705E+03  0.60321531826E+03  0.62122550055E+03  0.80032271676E+02 0.  0.
        -11    1    3    3    0    0  0.86866127777E+01  0.42408069547E+02 -0.23302670928E+02  0.49162140684E+02  0.00000000000E+00 0.  1.
         12    1    3    3    0    0 -0.99822387540E+01 -0.32646425269E+02 -0.57148718416E+02  0.66568837979E+02  0.00000000000E+00 0. -1.
         13    1    5    5    0    0 -0.27462743302E+02 -0.11848852702E+00  0.10699143402E+03  0.11045987173E+03  0.00000000000E+00 0. -1.
        -14    1    5    5    0    0 -0.50666579091E+01  0.12090373558E+03  0.49622388424E+03  0.51076562882E+03  0.00000000000E+00 0.  1.
          5    1    4    4  501    0 -0.33058985516E+02 -0.80479467916E+02 -0.11026779499E+03  0.14052152964E+03  0.41800000000E+01 0.  1.
         -5    1    4    4    0  501  0.66884012703E+02 -0.50067423412E+02 -0.23421329927E+02  0.86869149518E+02  0.41800000000E+01 0.  1.
</event>
<event>
11    1  0.8328696E-009  0.1544051E+03  0.7561462E-02  0.1092461E+00
         22   -1    0    0    0    0  0.00000000000E+00  0.00000000000E+00  0.18686533075E+04  0.18686533075E+04  0.00000000000E+00 0.  1.
         22   -1    0    0    0    0 -0.00000000000E+00 -0.00000000000E+00 -0.88112314764E+03  0.88112314764E+03  0.00000000000E+00 0. -1.
        -24    2    1    2    0    0  0.38640111311E+01 -0.79284406680E+02 -0.86240171031E+03  0.86979396498E+03  0.80646660445E+02 0.  0.
         25    2    1    2    0    0  0.29869069998E+02  0.14695068913E+03  0.79139258517E+03  0.81512895494E+03  0.12508526268E+03 0.  0.
         24    2    1    2    0    0 -0.33733081130E+02 -0.67666282451E+02  0.10585392850E+04  0.10648535353E+04  0.87698272780E+02 0.  0.
        -13    1    5    5    0    0 -0.24336179070E+02 -0.55040531655E+02  0.10336830151E+04  0.10354333805E+04  0.00000000000E+00 0.  1.
         14    1    5    5    0    0 -0.93969020595E+01 -0.12625750796E+02  0.24856269955E+02  0.29420154785E+02  0.00000000000E+00 0. -1.
         13    1    3    3    0    0  0.33079153828E+02 -0.65725572476E+02 -0.72227997568E+03  0.72601821228E+03  0.00000000000E+00 0. -1.
        -14    1    3    3    0    0 -0.29215142697E+02 -0.13558834204E+02 -0.14012173463E+03  0.14377575270E+03  0.00000000000E+00 0.  1.
          5    1    4    4  501    0 -0.16677516487E+02  0.41398719326E+01  0.11971927383E+02  0.21355972023E+02  0.41800000000E+01 0.  1.
         -5    1    4    4    0  501  0.46546586485E+02  0.14281081720E+03  0.77942065779E+03  0.79377298292E+03  0.41800000000E+01 0.  1.
</event>
<event>
11    1  0.8328696E-009  0.1949958E+03  0.7561462E-02  0.1058120E+00
         22   -1    0    0    0    0  0.00000000000E+00  0.00000000000E+00  0.12562971593E+04  0.12562971593E+04  0.00000000000E+00 0. -1.
         22   -1    0    0    0    0 -0.00000000000E+00 -0.00000000000E+00 -0.37455088654E+03  0.37455088654E+03  0.00000000000E+00 0.  1.
         24    2    1    2    0    0  0.10949633518E+03 -0.10344313854E+03 -0.33760608110E+03  0.37648401073E+03  0.71220881863E+02 0.  0.
         25    2    1    2    0    0 -0.64027057860E+02  0.10633013573E+03  0.54221385648E+03  0.57013033766E+03  0.12508866400E+03 0.  0.
        -24    2    1    2    0    0 -0.45469277321E+02 -0.28869971974E+01  0.67713849743E+03  0.68423369749E+03  0.87082823487E+02 0.  0.
        -11    1    3    3    0    0  0.26603001249E+02 -0.14714259580E+02 -0.14972425419E+03  0.15277951893E+03  0.00000000000E+00 0.  1.
         12    1    3    3    0    0  0.82893333933E+02 -0.88728878956E+02 -0.18788182691E+03  0.22370449180E+03  0.00000000000E+00 0. -1.
         11    1    5    5    0    0 -0.41953412182E+02  0.14657524620E+02  0.65124314123E+03  0.65275765856E+03  0.00000000000E+00 0. -1.
        -12    1    5    5    0    0 -0.35158651391E+01 -0.17544521817E+02  0.25895356204E+02  0.31476038925E+02  0.00000000000E+00 0.  1.
          5    1    4    4  501    0  0.21650026799E+02  0.58749882896E+02  0.33556977582E+03  0.34138661258E+03  0.41800000000E+01 0. -1.
         -5    1    4    4    0  501 -0.85677084659E+02  0.47580252837E+02  0.20664408065E+03  0.22874372508E+03  0.41800000000E+01 0. -1.
</event>
<event>
11    1  0.8328696E-009  0.2380803E+03  0.7561462E-02  0.1030448E+00
         22   -1    0    0    0    0  0.00000000000E+00  0.00000000000E+00  0.60888038226E+03  0.60888038226E+03  0.00000000000E+00 0.  1.
         22   -1    0    0    0    0 -0.00000000000E+00 -0.00000000000E+00 -0.20543214196E+03  0.20543214196E+03  0.00000000000E+00 0. -1.
        -24    2    1    2    0    0 -0.54966216683E+02 -0.29008302941E+02 -0.90836323447E+02  0.13597008898E+03  0.79836462989E+02 0.  0.
         25    2    1    2    0    0 -0.50574881677E+01  0.21620480961E+03  0.23249585225E+03  0.34128025589E+03  0.12509114223E+03 0.  0.
         24    2    1    2    0    0  0.60023704850E+02 -0.18719650667E+03  0.26178871150E+03  0.33706217935E+03  0.80201035077E+02 0.  0.
        -11    1    5    5    0    0  0.75139342191E+02 -0.17930486887E+03  0.24808606443E+03  0.31518701132E+03  0.00000000000E+00 0.  1.
         12    1    5    5    0    0 -0.15115637341E+02 -0.78916378018E+01  0.13702647070E+02  0.21875168025E+02  0.00000000000E+00 0. -1.
         13    1    3    3    0    0 -0.23575167230E+02 -0.47645408875E+02 -0.83106895098E+02  0.98654090182E+02  0.00000000000E+00 0. -1.
        -14    1    3    3    0    0 -0.31391049453E+02  0.18637105934E+02 -0.77294283490E+01  0.37315998793E+02  0.00000000000E+00 0.  1.
          5    1    4    4  501    0 -0.46074100965E+02  0.17170513510E+03  0.12339095783E+03  0.21644462820E+03  0.41800000000E+01 0.  1.
         -5    1    4    4    0  501  0.41016612798E+02  0.44499674507E+02  0.10910489441E+03  0.12483562769E+03  0.41800000000E+01 0.  1.
</event>
<event>
11    1  0.8328696E-009  0.1492990E+03  0.7561462E-02  0.1097597E+00
         22   -1    0    0    0    0  0.00000000000E+00  0.00000000000E+00  0.29269992326E+04  0.29269992326E+04  0.00000000000E+00 0. -1.
         22   -1    0    0    0    0 -0.00000000000E+00 -0.00000000000E+00 -0.59992158724E+03  0.59992158724E+03  0.00000000000E+00 0.  1.
         24    2    1    2    0    0  0.69569387561E-01  0.16844301543E+02 -0.58412191227E+03  0.59005770436E+03  0.81767663182E+02 0.  0.
         25    2    1    2    0    0 -0.39866899401E+02  0.56036127398E+02  0.43180334363E+03  0.45478684885E+03  0.12509009981E+03 0.  0.
        -24    2    1    2    0    0  0.39797330013E+02 -0.72880428941E+02  0.24793962140E+04  0.24820762666E+04  0.80010142831E+02 0.  0.
        -11    1    3    3    0    0  0.10097772410E+02 -0.20236536114E+02 -0.44934013040E+03  0.44990891877E+03  0.00000000000E+00 0.  1.
         12    1    3    3    0    0 -0.10028203022E+02  0.37080837657E+02 -0.13478178188E+03  0.14014878559E+03  0.00000000000E+00 0. -1.
         13    1    5    5    0    0  0.28429123981E+02 -0.48350457279E+02  0.22972358301E+04  0.22979204601E+04  0.00000000000E+00 0. -1.
        -14    1    5    5    0    0  0.11368206032E+02 -0.24529971662E+02  0.18216038386E+03  0.18415580650E+03  0.00000000000E+00 0.  1.
          5    1    4    4  501    0  0.41234092210E+02  0.83268982549E+00  0.88703210371E+02  0.97911570628E+02  0.41800000000E+01 0. -1.
         -5    1    4    4    0  501 -0.81100991611E+02  0.55203437572E+02  0.34310013326E+03  0.35687527822E+03  0.41800000000E+01 0. -1.
</event>
<event>
11    1  0.8328696E-009  0.1316832E+03  0.7561462E-02  0.1117218E+00
         22   -1    0    0    0    0  0.00000000000E+00  0.00000000000E+00  0.85687392446E+03  0.85687392446E+03  0.00000000000E+00 0.  1.
         22   -1    0    0    0    0 -0.00000000000E+00 -0.00000000000E+00 -0.46782183315E+04  0.46782183315E+04  0.00000000000E+00 0. -1.
        -24    2    1    2    0    0 -0.42647607516E+01 -0.43577048027E+02 -0.41936644563E+04  0.41947146057E+04  0.83017489446E+02 0.  0.
         25    2    1    2    0    0 -0.17362342728E+02  0.80713693793E+00 -0.47315780041E+03  0.48972316268E+03  0.12509344334E+03 0.  0.
         24    2    1    2    0    0  0.21627103480E+02  0.42769911089E+02  0.84547784975E+03  0.85065448755E+03  0.80518729909E+02 0.  0.
        -11    1    5    5    0    0 -0.21613643639E+02  0.20474924787E+02  0.57947842586E+03  0.58024272350E+03  0.00000000000E+00 0.  1.
         12    1    5    5    0    0  0.43240747119E+02  0.22294986302E+02  0.26599942389E+03  0.27041176404E+03  0.00000000000E+00 0. -1.
         11    1    3    3    0    0 -0.58614932247E+01 -0.16996478161E+02 -0.38424750468E+04  0.38425171076E+04  0.00000000000E+00 0. -1.
        -12    1    3    3    0    0  0.15967324731E+01 -0.26580569866E+02 -0.35118940956E+03  0.35219749806E+03  0.00000000000E+00 0.  1.
          5    1    4    4  501    0  0.15313506058E+02  0.26991837210E+02 -0.26312854296E+02  0.40901117894E+02  0.41800000000E+01 0.  1.
         -5    1    4    4    0  501 -0.32675848787E+02 -0.26184700272E+02 -0.44684494611E+03  0.44882204479E+03  0.41800000000E+01 0.  1.
</event>
<event>
11    1  0.1119997E-008  0.1574953E+03  0.7561462E-02  0.1089457E+00
         22   -1    0    0    0    0  0.00000000000E+00  0.00000000000E+00  0.10163222091E+04  0.10163222091E+04  0.00000000000E+00 0. -1.
         22   -1    0    0    0    0 -0.00000000000E+00 -0.00000000000E+00 -0.74467607078E+03  0.74467607078E+03  0.00000000000E+00 0. -1.
        -24    2    1    2    0    0  0.11063010506E+02 -0.12099666795E+02 -0.58753805895E+03  0.59340695263E+03  0.81621373330E+02 0.  0.
         25    2    1    2    0    0  0.13447484510E+02  0.10435325595E+03 -0.10565320337E+03  0.19463203775E+03  0.12509433987E+03 0.  0.
         24    2    1    2    0    0 -0.24510495016E+02 -0.92253589153E+02  0.96483740065E+03  0.97295928950E+03  0.81406880982E+02 0.  0.
        -11    1    5    5    0    0 -0.46989701927E+02 -0.37698377148E+02  0.63804620930E+03  0.64088389348E+03  0.00000000000E+00 0.  1.
         12    1    5    5    0    0  0.22479206911E+02 -0.54555212005E+02  0.32679119135E+03  0.33207539602E+03  0.00000000000E+00 0. -1.
         13    1    3    3    0    0 -0.10643538881E+01 -0.32781375155E+02 -0.53078732747E+03  0.53179971644E+03  0.00000000000E+00 0. -1.
        -14    1    3    3    0    0  0.12127364394E+02  0.20681708360E+02 -0.56750731478E+02  0.61607236191E+02  0.00000000000E+00 0.  1.
          5    1    4    4  501    0  0.28737123450E+02  0.46723977240E+02  0.17509906636E+02  0.57732326678E+02  0.41800000000E+01 0. -1.
         -5    1    4    4    0  501 -0.15289638940E+02  0.57629278709E+02 -0.12316311001E+03  0.13689971107E+03  0.41800000000E+01 0. -1.
</event>
<event>
11    1  0.8328696E-009  0.1553539E+03  0.7561462E-02  0.1091530E+00
         22   -1    0    0    0    0  0.00000000000E+00  0.00000000000E+00  0.92309231403E+02  0.92309231403E+02  0.00000000000E+00 0.  1.
         22   -1    0    0    0    0 -0.00000000000E+00 -0.00000000000E+00 -0.88625058017E+03  0.88625058017E+03  0.00000000000E+00 0.  1.
        -24    2    1    2    0    0  0.93905991798E+02 -0.87605245236E+01 -0.70833582231E+03  0.71880273990E+03  0.77734545974E+02 0.  0.
         25    2    1    2    0    0 -0.72541323902E+02 -0.36899610104E+02 -0.49321524519E+02  0.15716888726E+03  0.12508245858E+03 0.  0.
         24    2    1    2    0    0 -0.21364667895E+02  0.45660134628E+02 -0.36284001937E+02  0.10258818441E+03  0.81648697812E+02 0.  0.
        -11    1    5    5    0    0 -0.30666792396E+01 -0.29612094350E+01  0.23213725093E+02  0.23601913388E+02  0.00000000000E+00 0.  1.
         12    1    5    5    0    0 -0.18297988656E+02  0.48621344063E+02 -0.59497727030E+02  0.78986271017E+02  0.00000000000E+00 0. -1.
         11    1    3    3    0    0  0.72383825852E+01  0.27053851240E+02 -0.13862292229E+03  0.14142354696E+03  0.00000000000E+00 0. -1.
        -12    1    3    3    0    0  0.86667609213E+02 -0.35814375764E+02 -0.56971290002E+03  0.57737919295E+03  0.00000000000E+00 0.  1.
          5    1    4    4  501    0  0.19873371524E+02  0.15982289469E+02  0.17666658023E+02  0.31304435438E+02  0.41800000000E+01 0. -1.
         -5    1    4    4    0  501 -0.92414695426E+02 -0.52881899573E+02 -0.66988182542E+02  0.12586445183E+03  0.41800000000E+01 0. -1.
</event>
<event>
11    1  0.8328696E-009  0.1471522E+03  0.7561462E-02  0.1099825E+00
         22   -1    0    0    0    0  0.00000000000E+00  0.00000000000E+00  0.65333895987E+03  0.65333895987E+03  0.00000000000E+00 0. -1.
         22   -1    0    0    0    0 -0.00000000000E+00 -0.00000000000E+00 -0.30940967383E+03  0.30940967383E+03  0.00000000000E+00 0. -1.
        -24    2    1    2    0    0  0.92228201039E+02  0.11399328666E+02 -0.20162453672E+03  0.23636549342E+03  0.81118474538E+02 0.  0.
         25    2    1    2    0    0 -0.34785137406E+02  0.18505097243E+02 -0.35869667459E+02  0.13595685605E+03  0.12508073095E+03 0.  0.
         24    2    1    2    0    0 -0.57443063632E+02 -0.29904425908E+02  0.58142349023E+03  0.59042628423E+03  0.79724161155E+02 0.  0.
        -11    1    5    5    0    0 -0.47135557830E+02 -0.37469444634E+02  0.20190650362E+03  0.21069398733E+03  0.00000000000E+00 0.  1.
         12    1    5    5    0    0 -0.10307505803E+02  0.75650187263E+01  0.37951698661E+03  0.37973229690E+03  0.00000000000E+00 0. -1.
         13    1    3    3    0    0  0.52396971789E+02 -0.28444115299E+02 -0.14362519232E+03  0.15550789761E+03  0.00000000000E+00 0. -1.
        -14    1    3    3    0    0  0.39831229249E+02  0.39843443964E+02 -0.57999344396E+02  0.80857595814E+02  0.00000000000E+00 0.  1.
          5    1    4    4  501    0 -0.40997686051E+02 -0.32112882944E+02 -0.59851960704E+02  0.79446693529E+02  0.41800000000E+01 0.  1.
         -5    1    4    4    0  501  0.62125486450E+01  0.50617980187E+02  0.23982293246E+02  0.56510162521E+02  0.41800000000E+01 0.  1.
</event>
<event>
11    1  0.8328696E-009  0.1992226E+03  0.7561462E-02  0.1055075E+00
         22   -1    0    0    0    0  0.00000000000E+00  0.00000000000E+00  0.90156326470E+03  0.90156326470E+03  0.00000000000E+00 0.  1.
         22   -1    0    0    0    0 -0.00000000000E+00 -0.00000000000E+00 -0.89960450498E+03  0.89960450498E+03  0.00000000000E+00 0. -1.
        -24    2    1    2    0    0  0.13331967707E+03  0.82212860531E+02 -0.77133437400E+03  0.79123983216E+03  0.81059637009E+02 0.  0.
         25    2    1    2    0    0 -0.95571277908E+02 -0.11443857135E+03 -0.33611039117E+02  0.19749345877E+03  0.12507561126E+03 0.  0.
         24    2    1    2    0    0 -0.37748399159E+02  0.32225710823E+02  0.80690417283E+03  0.81243447875E+03  0.80572948564E+02 0.  0.
        -11    1    5    5    0    0 -0.42121612264E+02 -0.74019627570E+01  0.61211338429E+03  0.61360558545E+03  0.00000000000E+00 0.  1.
         12    1    5    5    0    0  0.43732131051E+01  0.39627673580E+02  0.19479078855E+03  0.19882889329E+03  0.00000000000E+00 0. -1.
         11    1    3    3    0    0  0.51465879173E+02 -0.58731467410E+01 -0.31982453689E+03  0.32399222980E+03  0.00000000000E+00 0. -1.
        -12    1    3    3    0    0  0.81853797894E+02  0.88086007272E+02 -0.45150983711E+03  0.46724760236E+03  0.00000000000E+00 0.  1.
          5    1    4    4  501    0 -0.11172103884E+03 -0.11657321591E+03 -0.54690617462E+02  0.17052695161E+03  0.41800000000E+01 0. -1.
         -5    1    4    4    0  501  0.16149760930E+02  0.21346445553E+01  0.21079578344E+02  0.26966507164E+02  0.41800000000E+01 0. -1.
</event>
<event>
11    1  0.8328696E-009  0.1376095E+03  0.7561462E-02  0.1110257E+00
         22   -1    0    0    0    0  0.00000000000E+00  0.00000000000E+00  0.31924096409E+03  0.31924096409E+03  0.00000000000E+00 0. -1.
         22   -1    0    0    0    0 -0.00000000000E+00 -0.00000000000E+00 -0.37511000605E+03  0.37511000605E+03  0.00000000000E+00 0.  1.
         24    2    1    2    0    0  0.58117876295E+02  0.27392383497E+01 -0.32484648698E+03  0.33952385059E+03  0.79787305063E+02 0.  0.
         25    2    1    2    0    0 -0.42231830183E+02 -0.11348175124E+02  0.97427068397E+02  0.16446914789E+03  0.12508300601E+03 0.  0.
        -24    2    1    2    0    0 -0.15886046112E+02  0.86089367742E+01  0.17155037662E+03  0.19035797165E+03  0.80499350299E+02 0.  0.
        -11    1    3    3    0    0  0.75441899200E+02 -0.13617467497E+01 -0.29729683697E+03  0.30672258440E+03  0.00000000000E+00 0.  1.
         12    1    3    3    0    0 -0.17324022904E+02  0.41009850994E+01 -0.27549650005E+02  0.32801266192E+02  0.00000000000E+00 0. -1.
         13    1    5    5    0    0 -0.34681714283E+02 -0.20570368386E+02  0.13056754584E+03  0.13665227912E+03  0.00000000000E+00 0. -1.
        -14    1    5    5    0    0  0.18795668171E+02  0.29179305160E+02  0.40982830779E+02  0.53705692531E+02  0.00000000000E+00 0.  1.
          5    1    4    4  501    0  0.98100270374E+01  0.10109268567E+01 -0.26956999808E+02  0.29007082622E+02  0.41800000000E+01 0.  1.
         -5    1    4    4    0  501 -0.52041857220E+02 -0.12359101981E+02  0.12438406821E+03  0.13546206527E+03  0.41800000000E+01 0.  1.
</event>
<event>
11    1  0.8328696E-009  0.1762050E+03  0.7561462E-02  0.1072755E+00
         22   -1    0    0    0    0  0.00000000000E+00  0.00000000000E+00  0.50898125039E+02  0.50898125039E+02  0.00000000000E+00 0.  1.
         22   -1    0    0    0    0 -0.00000000000E+00 -0.00000000000E+00 -0.83550679577E+03  0.83550679577E+03  0.00000000000E+00 0. -1.
         24    2    1    2    0    0  0.16735328122E+01 -0.26287875724E+01 -0.20531751777E+03  0.22055587908E+03  0.80497835105E+02 0.  0.
         25    2    1    2    0    0 -0.12487273542E+03 -0.28263684855E+01 -0.28649853407E+03  0.33664357993E+03  0.12508517688E+03 0.  0.
        -24    2    1    2    0    0  0.12319920261E+03  0.54551560579E+01 -0.29279261889E+03  0.32920546180E+03  0.86260745127E+02 0.  0.
        -13    1    3    3    0    0  0.75431718054E+01 -0.41006316359E+02 -0.10978754721E+03  0.11743816647E+03  0.00000000000E+00 0.  1.
         14    1    3    3    0    0 -0.58696389933E+01  0.38377528787E+02 -0.95529970559E+02  0.10311771260E+03  0.00000000000E+00 0. -1.
         13    1    5    5    0    0  0.29160148829E+01 -0.57085628851E+01 -0.10949011437E+03  0.10967760016E+03  0.00000000000E+00 0. -1.
        -14    1    5    5    0    0  0.12028318773E+03  0.11163718943E+02 -0.18330250452E+03  0.21952786164E+03  0.00000000000E+00 0.  1.
          5    1    4    4  501    0  0.23464289647E+02 -0.54471716397E+01 -0.70077221895E+02  0.74219498759E+02  0.41800000000E+01 0. -1.
         -5    1    4    4    0  501 -0.14833702507E+03  0.26208031542E+01 -0.21642131218E+03  0.26242408117E+03  0.41800000000E+01 0. -1.
</event>
<event>
11    1  0.8328696E-009  0.1445644E+03  0.7561462E-02  0.1102566E+00
         22   -1    0    0    0    0  0.00000000000E+00  0.00000000000E+00  0.43326144021E+03  0.43326144021E+03  0.00000000000E+00 0.  1.
         22   -1    0    0    0    0 -0.00000000000E+00 -0.00000000000E+00 -0.31271299230E+03  0.31271299230E+03  0.00000000000E+00 0. -1.
         24    2    1    2    0    0 -0.66407710450E+02 -0.29627861730E+02 -0.25796340088E+03  0.28003730670E+03  0.81166389281E+02 0.  0.
         25    2    1    2    0    0  0.75553697304E+02 -0.90402977039E+00  0.10983072680E+03  0.18281066623E+03  0.12509105760E+03 0.  0.
        -24    2    1    2    0    0 -0.91459868537E+01  0.30531891501E+02  0.26868112200E+03  0.28312645958E+03  0.83397849620E+02 0.  0.
        -11    1    3    3    0    0 -0.42668941648E+02  0.10401526787E+02 -0.48346502429E+02  0.65316266259E+02  0.00000000000E+00 0.  1.
         12    1    3    3    0    0 -0.23738768802E+02 -0.40029388517E+02 -0.20961689846E+03  0.21472104044E+03  0.00000000000E+00 0. -1.
         13    1    5    5    0    0 -0.40902659862E+02  0.92545702030E+00  0.84315206321E+02  0.93717330689E+02  0.00000000000E+00 0. -1.
        -14    1    5    5    0    0  0.31756673009E+02  0.29606434480E+02  0.18436591568E+03  0.18940912889E+03  0.00000000000E+00 0.  1.
          5    1    4    4  501    0 -0.33042565157E+02 -0.10438544193E+02  0.40881099474E+02  0.53754172036E+02  0.41800000000E+01 0.  1.
         -5    1    4    4    0  501  0.10859626246E+03  0.95345144223E+01  0.68949627324E+02  0.12905649419E+03  0.41800000000E+01 0.  1.
</event>
<event>
11    1  0.8328696E-009  0.1309466E+03  0.7561462E-02  0.1118111E+00
         22   -1    0    0    0    0  0.00000000000E+00  0.00000000000E+00  0.25471060954E+03  0.25471060954E+03  0.00000000000E+00 0.  1.
         22   -1    0    0    0    0 -0.00000000000E+00 -0.00000000000E+00 -0.45907323174E+03  0.45907323174E+03  0.00000000000E+00 0. -1.
        -24    2    1    2    0    0 -0.29504548459E+02  0.29504137038E+02 -0.35738721213E+03  0.36866341914E+03  0.80287512917E+02 0.  0.
         25    2    1    2    0    0 -0.93688568387E+01 -0.26809870844E+02 -0.38092289602E+02  0.13381031080E+03  0.12509049563E+03 0.  0.
         24    2    1    2    0    0  0.38873405297E+02 -0.26942661945E+01  0.19111687954E+03  0.21131011135E+03  0.81288995588E+02 0.  0.
        -13    1    5    5    0    0 -0.21215852358E+02  0.16182311091E+02  0.67233664324E+02  0.72334951455E+02  0.00000000000E+00 0.  1.
         14    1    5    5    0    0  0.60089257655E+02 -0.18876577285E+02  0.12388321522E+03  0.13897515989E+03  0.00000000000E+00 0. -1.
         11    1    3    3    0    0  0.17821781904E+02 -0.90507677783E+01 -0.17917602400E+03  0.18028749231E+03  0.00000000000E+00 0. -1.
        -12    1    3    3    0    0 -0.47326330363E+02  0.38554904817E+02 -0.17821118814E+03  0.18837592683E+03  0.00000000000E+00 0.  1.
          5    1    4    4  501    0 -0.57035749365E+02  0.14438952603E+02  0.19476599097E+01  0.59015471167E+02  0.41800000000E+01 0.  1.
         -5    1    4    4    0  501  0.47666892527E+02 -0.41248823447E+02 -0.40039949512E+02  0.74794839633E+02  0.41800000000E+01 0.  1.
</event>
<event>
11    1  0.8328696E-009  0.1633493E+03  0.7561462E-02  0.1083969E+00
         22   -1    0    0    0    0  0.00000000000E+00  0.00000000000E+00  0.12452796348E+03  0.12452796348E+03  0.00000000000E+00 0. -1.
         22   -1    0    0    0    0 -0.00000000000E+00 -0.00000000000E+00 -0.48291396898E+03  0.48291396898E+03  0.00000000000E+00 0. -1.
         24    2    1    2    0    0  0.55711975841E+02 -0.91096084104E+02 -0.26376911964E+03  0.29588447203E+03  0.81062639488E+02 0.  0.
         25    2    1    2    0    0 -0.95885579186E+02  0.54847162764E+02 -0.12784544978E+03  0.21022352352E+03  0.12508882944E+03 0.  0.
        -24    2    1    2    0    0  0.40173603346E+02  0.36248921341E+02  0.33228563925E+02  0.10133393690E+03  0.78971682289E+02 0.  0.
        -13    1    3    3    0    0  0.58351750337E+02 -0.64413547533E+02 -0.11201265128E+03  0.14177752262E+03  0.00000000000E+00 0.  1.
         14    1    3    3    0    0 -0.26397744965E+01 -0.26682536571E+02 -0.15175646836E+03  0.15410694941E+03  0.00000000000E+00 0. -1.
         11    1    5    5    0    0  0.41586725659E+02  0.79316560462E+01  0.52207164912E+02  0.67215734667E+02  0.00000000000E+00 0. -1.
        -12    1    5    5    0    0 -0.14131223137E+01  0.28317265294E+02 -0.18978600986E+02  0.34118202236E+02  0.00000000000E+00 0.  1.
          5    1    4    4  501    0 -0.55592531661E+02  0.64679479161E+02 -0.14242568830E+03  0.16606177673E+03  0.41800000000E+01 0. -1.
         -5    1    4    4    0  501 -0.40293047525E+02 -0.98323163975E+01  0.14580238518E+02  0.44161746794E+02  0.41800000000E+01 0. -1.
</event>
<event>
11    1  0.8328696E-009  0.2024220E+03  0.7561462E-02  0.1052824E+00
         22   -1    0    0    0    0  0.00000000000E+00  0.00000000000E+00  0.43964980611E+03  0.43964980611E+03  0.00000000000E+00 0.  1.
         22   -1    0    0    0    0 -0.00000000000E+00 -0.00000000000E+00 -0.45539501435E+03  0.45539501435E+03  0.00000000000E+00 0. -1.
         24    2    1    2    0    0  0.15737460265E+03 -0.95203999083E+01 -0.37896239336E+03  0.41824106027E+03  0.80347279590E+02 0.  0.
         25    2    1    2    0    0 -0.17827011674E+03  0.12932945756E+02  0.21193004043E+03  0.30414979053E+03  0.12508100349E+03 0.  0.
        -24    2    1    2    0    0  0.20895514088E+02 -0.34125458476E+01  0.15128714470E+03  0.17265396966E+03  0.80456976765E+02 0.  0.
        -13    1    3    3    0    0  0.37135771135E+02  0.27170210503E+02 -0.61610431721E+02  0.76896886370E+02  0.00000000000E+00 0.  1.
         14    1    3    3    0    0  0.12023883152E+03 -0.36690610412E+02 -0.31735196164E+03  0.34134417390E+03  0.00000000000E+00 0. -1.
         13    1    5    5    0    0  0.38606814704E+01  0.18296910053E+02 -0.17294973282E+00  0.18700579951E+02  0.00000000000E+00 0. -1.
        -14    1    5    5    0    0  0.17034832617E+02 -0.21709455900E+02  0.15146009443E+03  0.15395338971E+03  0.00000000000E+00 0.  1.
          5    1    4    4  501    0  0.10078760829E+02  0.17213311741E+02 -0.23342726737E+00  0.20381521269E+02  0.41800000000E+01 0. -1.
         -5    1    4    4    0  501 -0.18834887757E+03 -0.42803659854E+01  0.21216346769E+03  0.28376826926E+03  0.41800000000E+01 0. -1.
</event>
<event>
11    1  0.8328696E-009  0.1487291E+03  0.7561462E-02  0.1098185E+00
         22   -1    0    0    0    0  0.00000000000E+00  0.00000000000E+00  0.76682156063E+02  0.76682156063E+02  0.00000000000E+00 0.  1.
         22   -1    0    0    0    0 -0.00000000000E+00 -0.00000000000E+00 -0.25434657028E+04  0.25434657028E+04  0.00000000000E+00 0. -1.
        -24    2    1    2    0    0  0.92093705386E+01 -0.72972318353E+02 -0.13875982530E+04  0.13919982271E+04  0.82585597643E+02 0.  0.
         25    2    1    2    0    0 -0.81210475448E+02  0.34689328912E+02 -0.10980284262E+04  0.11086528265E+04  0.12508466748E+03 0.  0.
         24    2    1    2    0    0  0.72001104909E+02  0.38282989441E+02  0.18843132420E+02  0.11949680527E+03  0.85291713797E+02 0.  0.
        -13    1    5    5    0    0  0.16761020340E+02  0.45026143869E+02  0.37344883569E+02  0.60851670177E+02  0.00000000000E+00 0.  1.
         14    1    5    5    0    0  0.55240084569E+02 -0.67431544282E+01 -0.18501751149E+02  0.58645135096E+02  0.00000000000E+00 0. -1.
         13    1    3    3    0    0  0.24681129995E+02  0.71027166210E+01 -0.20715258331E+03  0.20873859138E+03  0.00000000000E+00 0. -1.
        -14    1    3    3    0    0 -0.15471759457E+02 -0.80075034974E+02 -0.11804456696E+04  0.11832596357E+04  0.00000000000E+00 0.  1.
          5    1    4    4  501    0 -0.15598024873E+02 -0.45566369493E+02 -0.41142154309E+03  0.41425203793E+03  0.41800000000E+01 0. -1.
         -5    1    4    4    0  501 -0.65612450575E+02  0.80255698404E+02 -0.68660688309E+03  0.69440078852E+03  0.41800000000E+01 0. -1.
</event>
<event>
11    1  0.8328696E-009  0.1950544E+03  0.7561462E-02  0.1058077E+00
         22   -1    0    0    0    0  0.00000000000E+00  0.00000000000E+00  0.69288998132E+03  0.69288998132E+03  0.00000000000E+00 0. -1.
         22   -1    0    0    0    0 -0.00000000000E+00 -0.00000000000E+00 -0.18666351758E+03  0.18666351758E+03  0.00000000000E+00 0. -1.
         24    2    1    2    0    0  0.59892116296E+02  0.14220239316E+03 -0.89184203632E+02  0.19535998389E+03  0.80019465833E+02 0.  0.
         25    2    1    2    0    0 -0.61483101689E+02 -0.11694232437E+03  0.16503155919E+03  0.24563869751E+03  0.12508906892E+03 0.  0.
        -24    2    1    2    0    0  0.15909853931E+01 -0.25260068786E+02  0.43037910818E+03  0.43855481751E+03  0.80396199500E+02 0.  0.
        -11    1    3    3    0    0  0.30455943648E+02  0.44927356784E+02  0.78530814592E+01  0.54842527107E+02  0.00000000000E+00 0.  1.
         12    1    3    3    0    0  0.29436172648E+02  0.97275036375E+02 -0.97037285092E+02  0.14051745678E+03  0.00000000000E+00 0. -1.
         11    1    5    5    0    0  0.22814532275E+01  0.29283970381E+02  0.13173773575E+03  0.13497254154E+03  0.00000000000E+00 0. -1.
        -12    1    5    5    0    0 -0.69046783432E+00 -0.54544039167E+02  0.29864137243E+03  0.30358227597E+03  0.00000000000E+00 0.  1.
          5    1    4    4  501    0 -0.43952355956E+02 -0.13154849777E+03  0.17239390438E+03  0.22130058185E+03  0.41800000000E+01 0. -1.
         -5    1    4    4    0  501 -0.17530745733E+02  0.14606173398E+02 -0.73623451875E+01  0.24338115661E+02  0.41800000000E+01 0. -1.
</event>
<event>
11    1  0.1000550E-008  0.1446147E+03  0.7561462E-02  0.1102512E+00
         22   -1    0    0    0    0  0.00000000000E+00  0.00000000000E+00  0.55850827955E+03  0.55850827955E+03  0.00000000000E+00 0. -1.
         22   -1    0    0    0    0 -0.00000000000E+00 -0.00000000000E+00 -0.83335732709E+03  0.83335732709E+03  0.00000000000E+00 0.  1.
        -24    2    1    2    0    0  0.38846038911E+02  0.49585408601E+02 -0.64272303698E+03  0.65082411021E+03  0.80693200927E+02 0.  0.
         25    2    1    2    0    0 -0.49204810400E+02 -0.11972863955E+03 -0.13623253283E+03  0.22575498941E+03  0.12509976717E+03 0.  0.
         24    2    1    2    0    0  0.10358771489E+02  0.70143230949E+02  0.50410652227E+03  0.51528650703E+03  0.79808655806E+02 0.  0.
        -11    1    5    5    0    0  0.24313004523E+02  0.30248535985E+02  0.78323037426E+02  0.87410493133E+02  0.00000000000E+00 0.  1.
         12    1    5    5    0    0 -0.13954233033E+02  0.39894694964E+02  0.42578348484E+03  0.42787601390E+03  0.00000000000E+00 0. -1.
         11    1    3    3    0    0  0.39283413816E+02  0.49357073751E+02 -0.24156252728E+03  0.24966329709E+03  0.00000000000E+00 0. -1.
        -12    1    3    3    0    0 -0.43737490462E+00  0.22833485069E+00 -0.40116050971E+03  0.40116081312E+03  0.00000000000E+00 0.  1.
          5    1    4    4  501    0 -0.23637414663E+02  0.16677468456E+02  0.26793126439E+01  0.29351600336E+02  0.41800000000E+01 0. -1.
         -5    1    4    4    0  501 -0.25567395738E+02 -0.13640610801E+03 -0.13891184547E+03  0.19640338907E+03  0.41800000000E+01 0. -1.
</event>
<event>
11    1  0.8328696E-009  0.4491593E+03  0.7561462E-02  0.9514902E-01
         22   -1    0    0    0    0  0.00000000000E+00  0.00000000000E+00  0.18056855986E+03  0.18056855986E+03  0.00000000000E+00 0.  1.
         22   -1    0    0    0    0 -0.00000000000E+00 -0.00000000000E+00 -0.24710138862E+04  0.24710138862E+04  0.00000000000E+00 0.  1.
        -24    2    1    2    0    0  0.61815300846E+02 -0.27287371530E+02 -0.10110050463E+04  0.10163129787E+04  0.78709179471E+02 0.  0.
         25    2    1    2    0    0 -0.12749374260E+03  0.44404064872E+03 -0.10360907002E+04  0.11412966711E+04  0.12508956916E+03 0.  0.
         24    2    1    2    0    0  0.65678441750E+02 -0.41675327719E+03 -0.24334957979E+03  0.49397279622E+03  0.82420590076E+02 0.  0.
        -13    1    5    5    0    0  0.13366549699E+02 -0.12126052910E+03 -0.11477970323E+03  0.16750271891E+03  0.00000000000E+00 0.  1.
         14    1    5    5    0    0  0.52311892050E+02 -0.29549274809E+03 -0.12856987655E+03  0.32647007731E+03  0.00000000000E+00 0. -1.
         13    1    3    3    0    0  0.49409414999E+02 -0.95739120062E+00 -0.25480955102E+03  0.25955753539E+03  0.00000000000E+00 0. -1.
        -14    1    3    3    0    0  0.12405885848E+02 -0.26329980329E+02 -0.75619549527E+03  0.75675544328E+03  0.00000000000E+00 0.  1.
          5    1    4    4  501    0 -0.13382864709E+03  0.24457116958E+03 -0.61915716701E+03  0.67904214423E+03  0.41800000000E+01 0. -1.
         -5    1    4    4    0  501  0.63349044899E+01  0.19946947913E+03 -0.41693353322E+03  0.46225452690E+03  0.41800000000E+01 0. -1.
</event>
<event>
11    1  0.8328696E-009  0.2192564E+03  0.7561462E-02  0.1041684E+00
         22   -1    0    0    0    0  0.00000000000E+00  0.00000000000E+00  0.64911842801E+03  0.64911842801E+03  0.00000000000E+00 0. -1.
         22   -1    0    0    0    0 -0.00000000000E+00 -0.00000000000E+00 -0.42973396251E+03  0.42973396251E+03  0.00000000000E+00 0.  1.
         24    2    1    2    0    0  0.30040811716E+02  0.42342361109E+02 -0.25942882949E+03  0.27662779251E+03  0.80773090239E+02 0.  0.
         25    2    1    2    0    0  0.78992199048E+02  0.10801316021E+03 -0.85871828274E+02  0.20230621262E+03  0.12508885836E+03 0.  0.
        -24    2    1    2    0    0 -0.10903301076E+03 -0.15035552132E+03  0.56468512326E+03  0.59991838538E+03  0.80856666145E+02 0.  0.
        -11    1    3    3    0    0 -0.84692190127E+01  0.45732835161E+02 -0.20277593915E+03  0.20804158570E+03  0.00000000000E+00 0.  1.
         12    1    3    3    0    0  0.38510030729E+02 -0.33904740522E+01 -0.56652890344E+02  0.68586206816E+02  0.00000000000E+00 0. -1.
         11    1    5    5    0    0 -0.11849708627E+03 -0.12116194943E+03  0.43995129709E+03  0.47146465536E+03  0.00000000000E+00 0. -1.
        -12    1    5    5    0    0  0.94640755076E+01 -0.29193571886E+02  0.12473382617E+03  0.12845373002E+03  0.00000000000E+00 0.  1.
          5    1    4    4  501    0  0.93443094765E+02  0.11884268827E+03 -0.45581812813E+02  0.15795686301E+03  0.41800000000E+01 0. -1.
         -5    1    4    4    0  501 -0.14450895717E+02 -0.10829528059E+02 -0.40290015461E+02  0.44349349611E+02  0.41800000000E+01 0. -1.
</event>
<event>
11    1  0.8328696E-009  0.6843008E+03  0.7561462E-02  0.9055765E-01
         22   -1    0    0    0    0  0.00000000000E+00  0.00000000000E+00  0.18742342094E+04  0.18742342094E+04  0.00000000000E+00 0.  1.
         22   -1    0    0    0    0 -0.00000000000E+00 -0.00000000000E+00 -0.13869036544E+04  0.13869036544E+04  0.00000000000E+00 0.  1.
         24    2    1    2    0    0 -0.36280219388E+03  0.72110434803E+03 -0.66677602802E+03  0.10500712493E+04  0.80264839032E+02 0.  0.
         25    2    1    2    0    0  0.46723242637E+03 -0.34936979162E+03 -0.32558619783E+03  0.67971867396E+03  0.12508282041E+03 0.  0.
        -24    2    1    2    0    0 -0.10443023249E+03 -0.37173455641E+03  0.14796927808E+04  0.15313479405E+04  0.80271634830E+02 0.  0.
        -13    1    3    3    0    0 -0.32161324022E+03  0.64883621397E+03 -0.62690524393E+03  0.95782759081E+03  0.00000000000E+00 0.  1.
         14    1    3    3    0    0 -0.41188953657E+02  0.72268134061E+02 -0.39870784091E+02  0.92243658471E+02  0.00000000000E+00 0. -1.
         13    1    5    5    0    0 -0.36551993916E+02 -0.58602672610E+02  0.36701364152E+03  0.37345593389E+03  0.00000000000E+00 0. -1.
        -14    1    5    5    0    0 -0.67878238579E+02 -0.31313188380E+03  0.11126791393E+04  0.11578920066E+04  0.00000000000E+00 0.  1.
          5    1    4    4  501    0  0.35196520899E+03 -0.19023697672E+03 -0.21574134940E+03  0.45456728643E+03  0.41800000000E+01 0.  1.
         -5    1    4    4    0  501  0.11526721739E+03 -0.15913281490E+03 -0.10984484843E+03  0.22515138753E+03  0.41800000000E+01 0.  1.
</event>
<event>
11    1  0.8328696E-009  0.2272676E+03  0.7561462E-02  0.1036758E+00
         22   -1    0    0    0    0  0.00000000000E+00  0.00000000000E+00  0.68975021665E+03  0.68975021665E+03  0.00000000000E+00 0.  1.
         22   -1    0    0    0    0 -0.00000000000E+00 -0.00000000000E+00 -0.22833376474E+04  0.22833376474E+04  0.00000000000E+00 0. -1.
        -24    2    1    2    0    0 -0.55896825843E+02 -0.76057774556E+02 -0.22014235379E+04  0.22048819435E+04  0.79558477545E+02 0.  0.
         25    2    1    2    0    0  0.22734570888E+03  0.32691107543E+02  0.25300877217E+03  0.36389005271E+03  0.12509097411E+03 0.  0.
         24    2    1    2    0    0 -0.17144888304E+03  0.43366667013E+02  0.35482733502E+03  0.40431586779E+03  0.79331557188E+02 0.  0.
        -11    1    5    5    0    0 -0.16889305809E+03  0.43328829388E+02  0.28272438432E+03  0.33216762337E+03  0.00000000000E+00 0.  1.
         12    1    5    5    0    0 -0.25558249486E+01  0.37837624776E-01  0.72102950705E+02  0.72148244423E+02  0.00000000000E+00 0. -1.
         13    1    3    3    0    0 -0.14950754257E+02 -0.71777297929E+02 -0.17646473681E+04  0.17661698218E+04  0.00000000000E+00 0. -1.
        -14    1    3    3    0    0 -0.40946071587E+02 -0.42804766278E+01 -0.43677616982E+03  0.43871212176E+03  0.00000000000E+00 0.  1.
          5    1    4    4  501    0  0.78144737577E+02  0.56355444035E+01  0.12367233317E+02  0.79427830334E+02  0.41800000000E+01 0.  1.
         -5    1    4    4    0  501  0.14920097130E+03  0.27055563140E+02  0.24064153886E+03  0.28446222237E+03  0.41800000000E+01 0.  1.
</event>
<event>
11    1  0.8328696E-009  0.1552800E+03  0.7561462E-02  0.1091603E+00
         22   -1    0    0    0    0  0.00000000000E+00  0.00000000000E+00  0.14815449601E+04  0.14815449601E+04  0.00000000000E+00 0. -1.
         22   -1    0    0    0    0 -0.00000000000E+00 -0.00000000000E+00 -0.19856885049E+04  0.19856885049E+04  0.00000000000E+00 0.  1.
        -24    2    1    2    0    0 -0.10474214328E+02 -0.54651253673E+02 -0.19361031783E+04  0.19386237194E+04  0.81669698651E+02 0.  0.
         25    2    1    2    0    0 -0.73965335997E+01  0.14178442000E+03  0.15146335693E+03  0.24237297417E+03  0.12508389045E+03 0.  0.
         24    2    1    2    0    0  0.17870747928E+02 -0.87133166323E+02  0.12804962766E+04  0.12862367714E+04  0.82600033708E+02 0.  0.
        -11    1    5    5    0    0 -0.23195813908E+02 -0.26663519825E+02  0.18767035375E+03  0.19096897850E+03  0.00000000000E+00 0.  1.
         12    1    5    5    0    0  0.41066561835E+02 -0.60469646499E+02  0.10928259228E+04  0.10952677929E+04  0.00000000000E+00 0. -1.
         13    1    3    3    0    0  0.35477097361E+02 -0.22133827607E+02 -0.94252983115E+03  0.94345694834E+03  0.00000000000E+00 0. -1.
        -14    1    3    3    0    0 -0.45951311689E+02 -0.32517426067E+02 -0.99357334719E+03  0.99516677109E+03  0.00000000000E+00 0.  1.
          5    1    4    4  501    0  0.42516295648E+02  0.11413400096E+03  0.63442831211E+02  0.13739239718E+03  0.41800000000E+01 0.  1.
         -5    1    4    4    0  501 -0.49912829247E+02  0.27650419038E+02  0.88020525723E+02  0.10498057699E+03  0.41800000000E+01 0.  1.
</event>
<event>
11    1  0.8328696E-009  0.1463359E+03  0.7561462E-02  0.1100683E+00
         22   -1    0    0    0    0  0.00000000000E+00  0.00000000000E+00  0.28834343561E+03  0.28834343561E+03  0.00000000000E+00 0.  1.
         22   -1    0    0    0    0 -0.00000000000E+00 -0.00000000000E+00 -0.45194322833E+03  0.45194322833E+03  0.00000000000E+00 0. -1.
        -24    2    1    2    0    0  0.25497796796E+02 -0.75708247408E+02 -0.38396972329E+03  0.39932571391E+03  0.75142538008E+02 0.  0.
         25    2    1    2    0    0 -0.38541070240E+01  0.32709012194E+02  0.35883203178E+02  0.13423559819E+03  0.12508740117E+03 0.  0.
         24    2    1    2    0    0 -0.21643689772E+02  0.42999235214E+02  0.18448672739E+03  0.20672535184E+03  0.79891394890E+02 0.  0.
        -11    1    5    5    0    0 -0.80067479775E+01  0.19366537818E+02  0.17726687505E+03  0.17850130473E+03  0.00000000000E+00 0.  1.
         12    1    5    5    0    0 -0.13636941795E+02  0.23632697396E+02  0.72198523359E+01  0.28224047114E+02  0.00000000000E+00 0. -1.
         13    1    3    3    0    0 -0.35217792585E+01 -0.52552053494E+02 -0.10078584390E+03  0.11371854548E+03  0.00000000000E+00 0. -1.
        -14    1    3    3    0    0  0.29019576055E+02 -0.23156193914E+02 -0.28318387939E+03  0.28560716843E+03  0.00000000000E+00 0.  1.
          5    1    4    4  501    0 -0.41914595590E+02 -0.13330942827E+02  0.55759659078E+02  0.71141825536E+02  0.41800000000E+01 0. -1.
         -5    1    4    4    0  501  0.38060488566E+02  0.46039955021E+02 -0.19876455900E+02  0.63093772651E+02  0.41800000000E+01 0. -1.
</event>
<event>
11    1  0.8328696E-009  0.1434822E+03  0.7561462E-02  0.1103731E+00
         22   -1    0    0    0    0  0.00000000000E+00  0.00000000000E+00  0.30899334533E+04  0.30899334533E+04  0.00000000000E+00 0.  1.
         22   -1    0    0    0    0 -0.00000000000E+00 -0.00000000000E+00 -0.37526053834E+03  0.37526053834E+03  0.00000000000E+00 0.  1.
         24    2    1    2    0    0 -0.29904115591E+02  0.16510152579E+02 -0.35914423304E+03  0.36942995078E+03  0.79542863518E+02 0.  0.
         25    2    1    2    0    0  0.96257431815E+02 -0.41264316426E+01  0.62418592904E+03  0.64384634154E+03  0.12509003514E+03 0.  0.
        -24    2    1    2    0    0 -0.66353316224E+02 -0.12383720936E+02  0.24496312189E+04  0.24519176993E+04  0.81554743175E+02 0.  0.
        -13    1    3    3    0    0 -0.53103107058E+02 -0.66508654089E+01 -0.20835604961E+03  0.21511954211E+03  0.00000000000E+00 0.  1.
         14    1    3    3    0    0  0.23198991468E+02  0.23161017988E+02 -0.15078818343E+03  0.15431040867E+03  0.00000000000E+00 0. -1.
         11    1    5    5    0    0  0.17644166594E+01  0.24742534529E+02  0.36403918288E+03  0.36488331402E+03  0.00000000000E+00 0. -1.
        -12    1    5    5    0    0 -0.68117732884E+02 -0.37126255465E+02  0.20855920361E+04  0.20870343853E+04  0.00000000000E+00 0.  1.
          5    1    4    4  501    0 -0.83842446854E+01 -0.44271887199E+02  0.20306970417E+03  0.20805064937E+03  0.41800000000E+01 0.  1.
         -5    1    4    4    0  501  0.10464167650E+03  0.40145455556E+02  0.42111622487E+03  0.43579569217E+03  0.41800000000E+01 0.  1.
</event>
<event>
11    1  0.1064883E-008  0.1596705E+03  0.7561462E-02  0.1087388E+00
         22   -1    0    0    0    0  0.00000000000E+00  0.00000000000E+00  0.43479241765E+03  0.43479241765E+03  0.00000000000E+00 0. -1.
         22   -1    0    0    0    0 -0.00000000000E+00 -0.00000000000E+00 -0.12491353752E+04  0.12491353752E+04  0.00000000000E+00 0. -1.
        -24    2    1    2    0    0  0.96873073211E+02  0.41174236073E+02 -0.10245653749E+04  0.10331162713E+04  0.80717487076E+02 0.  0.
         25    2    1    2    0    0 -0.77305187312E+02  0.28584251526E+02 -0.18687036682E+03  0.23949722155E+03  0.12508090868E+03 0.  0.
         24    2    1    2    0    0 -0.19567885898E+02 -0.69758487599E+02  0.39709278413E+03  0.41131429995E+03  0.79041921676E+02 0.  0.
        -11    1    5    5    0    0 -0.79676396252E+01 -0.50299449750E+02  0.90176941104E+02  0.10356350049E+03  0.00000000000E+00 0.  1.
         12    1    5    5    0    0 -0.11600246273E+02 -0.19459037849E+02  0.30691584303E+03  0.30775079946E+03  0.00000000000E+00 0. -1.
         13    1    3    3    0    0  0.66360616259E+02  0.15099582920E+01 -0.81333076241E+03  0.81603488923E+03  0.00000000000E+00 0. -1.
        -14    1    3    3    0    0  0.30512456951E+02  0.39664277781E+02 -0.21123461245E+03  0.21708138211E+03  0.00000000000E+00 0.  1.
          5    1    4    4  501    0 -0.85516868211E+02  0.40071579648E+02 -0.19906932205E+03  0.22037453034E+03  0.41800000000E+01 0.  1.
         -5    1    4    4    0  501  0.82116808988E+01 -0.11487328122E+02  0.12198955224E+02  0.19122691211E+02  0.41800000000E+01 0.  1.
</event>
<event>
11    1  0.8328696E-009  0.1639047E+03  0.7561462E-02  0.1083461E+00
         22   -1    0    0    0    0  0.00000000000E+00  0.00000000000E+00  0.25229783708E+03  0.25229783708E+03  0.00000000000E+00 0. -1.
         22   -1    0    0    0    0 -0.00000000000E+00 -0.00000000000E+00 -0.15579249514E+04  0.15579249514E+04  0.00000000000E+00 0.  1.
        -24    2    1    2    0    0  0.65730006120E+01  0.11695928163E+02 -0.13892031287E+04  0.13916042257E+04  0.80603902147E+02 0.  0.
         25    2    1    2    0    0 -0.10253305963E+03 -0.53155798566E+02 -0.96381189409E+02  0.19564234314E+03  0.12509206816E+03 0.  0.
         24    2    1    2    0    0  0.95960059020E+02  0.41459870403E+02  0.17995720384E+03  0.22297621963E+03  0.80040899062E+02 0.  0.
        -11    1    5    5    0    0  0.39385550519E+02 -0.19484613586E+01  0.13153850337E+02  0.41569722997E+02  0.00000000000E+00 0.  1.
         12    1    5    5    0    0  0.56574508501E+02  0.43408331762E+02  0.16680335350E+03  0.18140649663E+03  0.00000000000E+00 0. -1.
         11    1    3    3    0    0  0.52842784415E+01  0.15928464623E+02 -0.57631322001E+02  0.60025068592E+02  0.00000000000E+00 0. -1.
        -12    1    3    3    0    0  0.12887221704E+01 -0.42325364604E+01 -0.13315718067E+04  0.13315791571E+04  0.00000000000E+00 0.  1.
          5    1    4    4  501    0 -0.36247552949E+02  0.39176050069E+02 -0.48493439586E+02  0.72233884546E+02  0.41800000000E+01 0. -1.
         -5    1    4    4    0  501 -0.66285506683E+02 -0.92331848635E+02 -0.47887749824E+02  0.12340845859E+03  0.41800000000E+01 0. -1.
</event>
<event>
11    1  0.8328696E-009  0.1332666E+03  0.7561462E-02  0.1115319E+00
         22   -1    0    0    0    0  0.00000000000E+00  0.00000000000E+00  0.72393149560E+03  0.72393149560E+03  0.00000000000E+00 0.  1.
         22   -1    0    0    0    0 -0.00000000000E+00 -0.00000000000E+00 -0.39444294799E+03  0.39444294799E+03  0.00000000000E+00 0.  1.
        -24    2    1    2    0    0  0.20952046347E+02 -0.66301979946E+01 -0.23517422572E+03  0.24968342656E+03  0.80944112084E+02 0.  0.
         25    2    1    2    0    0 -0.66052042471E+02  0.12694841214E+02 -0.11497567026E+03  0.18273332834E+03  0.12509209898E+03 0.  0.
         24    2    1    2    0    0  0.45099996124E+02 -0.60646432197E+01  0.67963844360E+03  0.68595768869E+03  0.80986092074E+02 0.  0.
        -11    1    5    5    0    0 -0.72319511995E+00  0.83332822617E+01  0.49816898864E+03  0.49823920746E+03  0.00000000000E+00 0.  1.
         12    1    5    5    0    0  0.45823191244E+02 -0.14397925481E+02  0.18146945496E+03  0.18771848123E+03  0.00000000000E+00 0. -1.
         13    1    3    3    0    0 -0.22263644591E+02  0.60056711106E+01 -0.16295406139E+03  0.16457753212E+03  0.00000000000E+00 0. -1.
        -14    1    3    3    0    0  0.43215690938E+02 -0.12635869105E+02 -0.72220164336E+02  0.85105894437E+02  0.00000000000E+00 0.  1.
          5    1    4    4  501    0 -0.86188327035E+01  0.32619100129E+02 -0.11692552374E+03  0.12176756741E+03  0.41800000000E+01 0.  1.
         -5    1    4    4    0  501 -0.57433209768E+02 -0.19924258915E+02  0.19498534836E+01  0.60965760933E+02  0.41800000000E+01 0.  1.
</event>
<event>
11    1  0.8328696E-009  0.1321243E+03  0.7561462E-02  0.1116686E+00
         22   -1    0    0    0    0  0.00000000000E+00  0.00000000000E+00  0.98552566115E+02  0.98552566115E+02  0.00000000000E+00 0.  1.
         22   -1    0    0    0    0 -0.00000000000E+00 -0.00000000000E+00 -0.74521107826E+03  0.74521107826E+03  0.00000000000E+00 0. -1.
        -24    2    1    2    0    0 -0.15603992376E+02 -0.25998294614E+01 -0.50327801910E+03  0.50918986424E+03  0.75731827140E+02 0.  0.
         25    2    1    2    0    0  0.17191444696E+02  0.44671558263E+02 -0.18941497175E+03  0.23198741014E+03  0.12509609528E+03 0.  0.
         24    2    1    2    0    0 -0.15874523202E+01 -0.42071728802E+02  0.46034478706E+02  0.10258636999E+03  0.81438564018E+02 0.  0.
        -11    1    5    5    0    0 -0.17776643207E+02 -0.64599507915E+00  0.54483822593E+02  0.57314162976E+02  0.00000000000E+00 0.  1.
         12    1    5    5    0    0  0.16189190887E+02 -0.41425733723E+02 -0.84493438867E+01  0.45272207017E+02  0.00000000000E+00 0. -1.
         11    1    3    3    0    0 -0.41081189741E+02 -0.47444470994E+01 -0.42111745715E+03  0.42314310422E+03  0.00000000000E+00 0. -1.
        -12    1    3    3    0    0  0.25477197364E+02  0.21446176379E+01 -0.82160561950E+02  0.86046760022E+02  0.00000000000E+00 0.  1.
          5    1    4    4  501    0  0.53231206298E+02 -0.15395315618E+02 -0.12472962927E+03  0.13654863560E+03  0.41800000000E+01 0. -1.
         -5    1    4    4    0  501 -0.36039761602E+02  0.60066873882E+02 -0.64685342482E+02  0.95438774543E+02  0.41800000000E+01 0. -1.
</event>
<event>
11    1  0.8328696E-009  0.1531755E+03  0.7561462E-02  0.1093678E+00
         22   -1    0    0    0    0  0.00000000000E+00  0.00000000000E+00  0.87570727093E+03  0.87570727093E+03  0.00000000000E+00 0.  1.
         22   -1    0    0    0    0 -0.00000000000E+00 -0.00000000000E+00 -0.45440807795E+02  0.45440807795E+02  0.00000000000E+00 0.  1.
         24    2    1    2    0    0  0.17496401862E+02  0.66199667874E+02  0.13502215897E+03  0.17100324232E+03  0.79514812240E+02 0.  0.
         25    2    1    2    0    0 -0.71078066834E+02  0.25303786586E+02  0.31485250789E+03  0.34709000168E+03  0.12508794645E+03 0.  0.
        -24    2    1    2    0    0  0.53581664972E+02 -0.91503454460E+02  0.38039179627E+03  0.40305483472E+03  0.80693271828E+02 0.  0.
        -11    1    3    3    0    0 -0.24056646457E+02  0.12796563652E+02  0.77641402151E+02  0.82284030091E+02  0.00000000000E+00 0.  1.
         12    1    3    3    0    0  0.41553048319E+02  0.53403104222E+02  0.57380756823E+02  0.88719212230E+02  0.00000000000E+00 0. -1.
         11    1    5    5    0    0 -0.17356924430E+02 -0.13832366787E+02  0.12319803154E+03  0.12518127724E+03  0.00000000000E+00 0. -1.
        -12    1    5    5    0    0  0.70938589402E+02 -0.77671087672E+02  0.25719376473E+03  0.27787355747E+03  0.00000000000E+00 0.  1.
          5    1    4    4  501    0  0.19264853073E+02  0.48544517825E+02  0.10254847840E+03  0.11515801143E+03  0.41800000000E+01 0.  1.
         -5    1    4    4    0  501 -0.90342919908E+02 -0.23240731239E+02  0.21230402949E+03  0.23193199025E+03  0.41800000000E+01 0.  1.
</event>
<event>
11    1  0.8328696E-009  0.1864739E+03  0.7561462E-02  0.1064523E+00
         22   -1    0    0    0    0  0.00000000000E+00  0.00000000000E+00  0.33798383083E+03  0.33798383083E+03  0.00000000000E+00 0. -1.
         22   -1    0    0    0    0 -0.00000000000E+00 -0.00000000000E+00 -0.15618524000E+04  0.15618524000E+04  0.00000000000E+00 0.  1.
        -24    2    1    2    0    0 -0.82522139361E+02 -0.10898747768E+03 -0.12872779302E+04  0.12969939771E+04  0.80129477959E+02 0.  0.
         25    2    1    2    0    0  0.14769337590E+03  0.76313578761E+02 -0.21812892670E+03  0.30143674108E+03  0.12508710813E+03 0.  0.
         24    2    1    2    0    0 -0.65171236536E+02  0.32673898918E+02  0.28153828771E+03  0.30140551269E+03  0.79161871436E+02 0.  0.
        -11    1    5    5    0    0 -0.32762913400E+01  0.36718875379E+02  0.16832009391E+03  0.17230979051E+03  0.00000000000E+00 0.  1.
         12    1    5    5    0    0 -0.61894945196E+02 -0.40449764616E+01  0.11321819380E+03  0.12909572217E+03  0.00000000000E+00 0. -1.
         13    1    3    3    0    0 -0.74714690388E+02 -0.40708943407E+02 -0.86325074951E+03  0.86743377820E+03  0.00000000000E+00 0. -1.
        -14    1    3    3    0    0 -0.78074489730E+01 -0.68278534271E+02 -0.42402718071E+03  0.42956019891E+03  0.00000000000E+00 0.  1.
          5    1    4    4  501    0  0.97006362570E+02  0.10916223257E+03 -0.13766020146E+03  0.20073472760E+03  0.41800000000E+01 0.  1.
         -5    1    4    4    0  501  0.50687013328E+02 -0.32848653805E+02 -0.80468725240E+02  0.10070201348E+03  0.41800000000E+01 0.  1.
</event>
<event>
11    1  0.8328696E-009  0.1399956E+03  0.7561462E-02  0.1107563E+00
         22   -1    0    0    0    0  0.00000000000E+00  0.00000000000E+00  0.17613621266E+03  0.17613621266E+03  0.00000000000E+00 0. -1.
         22   -1    0    0    0    0 -0.00000000000E+00 -0.00000000000E+00 -0.44946656578E+03  0.44946656578E+03  0.00000000000E+00 0. -1.
         24    2    1    2    0    0  0.66127326898E+01  0.32516378290E+01 -0.25556952339E+03  0.26786047163E+03  0.79869578673E+02 0.  0.
         25    2    1    2    0    0  0.55308535214E+02  0.11480910546E+02 -0.14225466472E+03  0.19763851285E+03  0.12503498211E+03 0.  0.
        -24    2    1    2    0    0 -0.61921267904E+02 -0.14732548375E+02  0.12449383499E+03  0.16010379397E+03  0.77994990175E+02 0.  0.
        -13    1    3    3    0    0 -0.29992602113E+02 -0.89971528008E+01 -0.52291626395E+02  0.60950136432E+02  0.00000000000E+00 0.  1.
         14    1    3    3    0    0  0.36605334803E+02  0.12248790630E+02 -0.20327789699E+03  0.20691033520E+03  0.00000000000E+00 0. -1.
         13    1    5    5    0    0 -0.67192128817E+02  0.74412378790E+01  0.11867785204E+03  0.13658179513E+03  0.00000000000E+00 0. -1.
        -14    1    5    5    0    0  0.52708609128E+01 -0.22173786254E+02  0.58159829446E+01  0.23521998835E+02  0.00000000000E+00 0.  1.
          5    1    4    4  501    0  0.93398697289E+02 -0.80767474439E+01 -0.10387453426E+03  0.13998550558E+03  0.41800000000E+01 0. -1.
         -5    1    4    4    0  501 -0.38090162075E+02  0.19557657989E+02 -0.38380130459E+02  0.57653007267E+02  0.41800000000E+01 0. -1.
</event>
<event>
11    1  0.8328696E-009  0.1739375E+03  0.7561462E-02  0.1074655E+00
         22   -1    0    0    0    0  0.00000000000E+00  0.00000000000E+00  0.11390076240E+04  0.11390076240E+04  0.00000000000E+00 0. -1.
         22   -1    0    0    0    0 -0.00000000000E+00 -0.00000000000E+00 -0.77814129476E+03  0.77814129476E+03  0.00000000000E+00 0. -1.
         24    2    1    2    0    0  0.37099824619E+02 -0.46013884156E+02 -0.74631431743E+03  0.75195088496E+03  0.70366174167E+02 0.  0.
         25    2    1    2    0    0  0.17846567482E+02  0.14672734400E+03  0.40293448281E+03  0.44704655531E+03  0.12508801590E+03 0.  0.
        -24    2    1    2    0    0 -0.54946392101E+02 -0.10071345985E+03  0.70424616388E+03  0.71815147851E+03  0.81342361310E+02 0.  0.
        -11    1    3    3    0    0  0.16226976329E+02 -0.56002574378E+02 -0.33883029129E+03  0.34381036836E+03  0.00000000000E+00 0.  1.
         12    1    3    3    0    0  0.20872848290E+02  0.99886902218E+01 -0.40748402615E+03  0.40814051660E+03  0.00000000000E+00 0. -1.
         11    1    5    5    0    0 -0.61358722235E+02 -0.10876643768E+03  0.57041089130E+03  0.58392089847E+03  0.00000000000E+00 0. -1.
        -12    1    5    5    0    0  0.64123301339E+01  0.80529778341E+01  0.13383527258E+03  0.13423058004E+03  0.00000000000E+00 0.  1.
          5    1    4    4  501    0 -0.13518206273E+01  0.88817705890E+02  0.84083256244E+02  0.12238414390E+03  0.41800000000E+01 0. -1.
         -5    1    4    4    0  501  0.19198388110E+02  0.57909638114E+02  0.31885122657E+03  0.32466241140E+03  0.41800000000E+01 0. -1.
</event>
<event>
11    1  0.8328696E-009  0.1362308E+03  0.7561462E-02  0.1111842E+00
         22   -1    0    0    0    0  0.00000000000E+00  0.00000000000E+00  0.12710797113E+04  0.12710797113E+04  0.00000000000E+00 0. -1.
         22   -1    0    0    0    0 -0.00000000000E+00 -0.00000000000E+00 -0.57614055705E+03  0.57614055705E+03  0.00000000000E+00 0. -1.
        -24    2    1    2    0    0  0.32400368510E+02  0.24479179579E+02 -0.53143276672E+03  0.53911295251E+03  0.81073891629E+02 0.  0.
         25    2    1    2    0    0 -0.84356500388E+02 -0.20441775868E+02  0.11238376079E+03  0.18924076191E+03  0.12509224964E+03 0.  0.
         24    2    1    2    0    0  0.51956131878E+02 -0.40374037106E+01  0.11139881602E+04  0.11188665540E+04  0.90426789156E+02 0.  0.
        -13    1    5    5    0    0 -0.57506734881E+01  0.15467446154E+02  0.41653750664E+02  0.44803427106E+02  0.00000000000E+00 0.  1.
         14    1    5    5    0    0  0.57706805366E+02 -0.19504849865E+02  0.10723344096E+04  0.10740631269E+04  0.00000000000E+00 0. -1.
         13    1    3    3    0    0  0.46021572535E+02  0.43317939978E+01 -0.47999527859E+03  0.48221594441E+03  0.00000000000E+00 0. -1.
        -14    1    3    3    0    0 -0.13621204024E+02  0.20147385581E+02 -0.51437488134E+02  0.56897008097E+02  0.00000000000E+00 0.  1.
          5    1    4    4  501    0 -0.40838793581E+02 -0.34409441014E+02  0.12959159176E+03  0.14022578132E+03  0.41800000000E+01 0. -1.
         -5    1    4    4    0  501 -0.43517706807E+02  0.13967665146E+02 -0.17207830969E+02  0.49014980588E+02  0.41800000000E+01 0. -1.
</event>
<event>
11    1  0.8328696E-009  0.1338125E+03  0.7561462E-02  0.1114671E+00
         22   -1    0    0    0    0  0.00000000000E+00  0.00000000000E+00  0.19807596842E+04  0.19807596842E+04  0.00000000000E+00 0.  1.
         22   -1    0    0    0    0 -0.00000000000E+00 -0.00000000000E+00 -0.82722750258E+02  0.82722750258E+02  0.00000000000E+00 0.  1.
        -24    2    1    2    0    0  0.26914041799E+02 -0.29937189877E+01 -0.51606387361E+02  0.10025527037E+03  0.81575560198E+02 0.  0.
         25    2    1    2    0    0  0.81212984790E+01 -0.38417490336E+02  0.99517610867E+03  0.10037753895E+04  0.12509071243E+03 0.  0.
         24    2    1    2    0    0 -0.35035340278E+02  0.41411209323E+02  0.95446721259E+03  0.95945177450E+03  0.81226130961E+02 0.  0.
        -13    1    5    5    0    0 -0.48749679034E+02  0.24190442259E+02  0.88288847003E+03  0.88456416342E+03  0.00000000000E+00 0.  1.
         14    1    5    5    0    0  0.13714338756E+02  0.17220767064E+02  0.71578742563E+02  0.74887611076E+02  0.00000000000E+00 0. -1.
         11    1    3    3    0    0 -0.10417972794E+02 -0.24485964352E+02  0.70050949129E+01  0.27516685159E+02  0.00000000000E+00 0. -1.
        -12    1    3    3    0    0  0.37332014593E+02  0.21492245365E+02 -0.58611482274E+02  0.72738585213E+02  0.00000000000E+00 0.  1.
          5    1    4    4  501    0 -0.43762590235E+02 -0.45624851909E+01  0.15144708338E+03  0.15776460959E+03  0.41800000000E+01 0. -1.
         -5    1    4    4    0  501  0.51883888715E+02 -0.33855005145E+02  0.84372902529E+03  0.84601077995E+03  0.41800000000E+01 0. -1.
</event>
<event>
11    1  0.8328696E-009  0.1607599E+03  0.7561462E-02  0.1086365E+00
         22   -1    0    0    0    0  0.00000000000E+00  0.00000000000E+00  0.40395040317E+03  0.40395040317E+03  0.00000000000E+00 0.  1.
         22   -1    0    0    0    0 -0.00000000000E+00 -0.00000000000E+00 -0.93256442909E+03  0.93256442909E+03  0.00000000000E+00 0.  1.
        -24    2    1    2    0    0 -0.77172705077E+00  0.43801448788E+01 -0.64559551074E+03  0.65032506429E+03  0.78162296079E+02 0.  0.
         25    2    1    2    0    0 -0.10516266465E+02 -0.10455576487E+03 -0.24930203202E+03  0.29806397107E+03  0.12509247721E+03 0.  0.
         24    2    1    2    0    0  0.11287993516E+02  0.10017561999E+03  0.36628351684E+03  0.38812579690E+03  0.79469779602E+02 0.  0.
        -13    1    5    5    0    0  0.29323886378E+02  0.10513920061E+03  0.32391392045E+03  0.34181042945E+03  0.00000000000E+00 0.  1.
         14    1    5    5    0    0 -0.18035892862E+02 -0.49635806158E+01  0.42369596383E+02  0.46315367445E+02  0.00000000000E+00 0. -1.
         13    1    3    3    0    0  0.23262301420E+02 -0.82397752165E+01 -0.72463676081E+02  0.76550721186E+02  0.00000000000E+00 0. -1.
        -14    1    3    3    0    0 -0.24034028471E+02  0.12619920095E+02 -0.57313183466E+03  0.57377434310E+03  0.00000000000E+00 0.  1.
          5    1    4    4  501    0 -0.23071720741E+02 -0.11463126804E+03 -0.11965406622E+03  0.16735351766E+03  0.41800000000E+01 0.  1.
         -5    1    4    4    0  501  0.12555454275E+02  0.10075503163E+02 -0.12964796580E+03  0.13071045342E+03  0.41800000000E+01 0.  1.
</event>
<event>
11    1  0.8328696E-009  0.2838212E+03  0.7561462E-02  0.1007281E+00
         22   -1    0    0    0    0  0.00000000000E+00  0.00000000000E+00  0.18133435949E+04  0.18133435949E+04  0.00000000000E+00 0.  1.
         22   -1    0    0    0    0 -0.00000000000E+00 -0.00000000000E+00 -0.29313883530E+03  0.29313883530E+03  0.00000000000E+00 0. -1.
        -24    2    1    2    0    0 -0.85385731387E+02  0.24000106963E+03 -0.18607593496E+03  0.32576061852E+03  0.81268016194E+02 0.  0.
         25    2    1    2    0    0  0.11362672755E+03 -0.23004047450E+03  0.53507867797E+03  0.60645437294E+03  0.12509221283E+03 0.  0.
         24    2    1    2    0    0 -0.28240996161E+02 -0.99605951350E+01  0.11712020166E+04  0.11742674388E+04  0.79328977635E+02 0.  0.
        -11    1    5    5    0    0 -0.19025648102E+02 -0.26264351432E+02  0.11047743109E+04  0.11052502293E+04  0.00000000000E+00 0.  1.
         12    1    5    5    0    0 -0.92153480583E+01  0.16303756297E+02  0.66427705740E+02  0.69017209442E+02  0.00000000000E+00 0. -1.
         13    1    3    3    0    0 -0.10100275451E+03  0.19716021440E+03 -0.15962512178E+03  0.27304557507E+03  0.00000000000E+00 0. -1.
        -14    1    3    3    0    0  0.15617023119E+02  0.42840855230E+02 -0.26450813183E+02  0.52715043451E+02  0.00000000000E+00 0.  1.
          5    1    4    4  501    0  0.22062951202E+02  0.28843266354E+01  0.11700501534E+03  0.11917524562E+03  0.41800000000E+01 0. -1.
         -5    1    4    4    0  501  0.91563776346E+02 -0.23292480113E+03  0.41807366264E+03  0.48727912731E+03  0.41800000000E+01 0. -1.
</event>
<event>
11    1  0.8328696E-009  0.1444738E+03  0.7561462E-02  0.1102663E+00
         22   -1    0    0    0    0  0.00000000000E+00  0.00000000000E+00  0.10205377634E+04  0.10205377634E+04  0.00000000000E+00 0.  1.
         22   -1    0    0    0    0 -0.00000000000E+00 -0.00000000000E+00 -0.29448339567E+03  0.29448339567E+03  0.00000000000E+00 0.  1.
         24    2    1    2    0    0  0.15959956929E+02 -0.13863934359E+02 -0.23935575320E+03  0.25768841903E+03  0.93087140953E+02 0.  0.
         25    2    1    2    0    0 -0.29679407408E+02 -0.57869756793E+02  0.73798404239E+02  0.15913378992E+03  0.12509029799E+03 0.  0.
        -24    2    1    2    0    0  0.13719450479E+02  0.71733691151E+02  0.89161171665E+03  0.89819895008E+03  0.80348957016E+02 0.  0.
        -11    1    3    3    0    0  0.24604467524E+02 -0.40987675928E+02 -0.21491611736E+03  0.22016881455E+03  0.00000000000E+00 0.  1.
         12    1    3    3    0    0 -0.86445105945E+01  0.27123741569E+02 -0.24439635839E+02  0.37519604476E+02  0.00000000000E+00 0. -1.
         11    1    5    5    0    0  0.31675794213E+02  0.72640452617E+02  0.50596479473E+03  0.51213315144E+03  0.00000000000E+00 0. -1.
        -12    1    5    5    0    0 -0.17956343734E+02 -0.90676146527E+00  0.38564692191E+03  0.38606579864E+03  0.00000000000E+00 0.  1.
          5    1    4    4  501    0 -0.47872358815E+02 -0.79834408069E+02  0.15998431070E+02  0.94544791749E+02  0.41800000000E+01 0. -1.
         -5    1    4    4    0  501  0.18192951407E+02  0.21964651277E+02  0.57799973169E+02  0.64588998173E+02  0.41800000000E+01 0. -1.
</event>
<event>
11    1  0.8328696E-009  0.1443070E+03  0.7561462E-02  0.1102842E+00
         22   -1    0    0    0    0  0.00000000000E+00  0.00000000000E+00  0.10143184914E+03  0.10143184914E+03  0.00000000000E+00 0. -1.
         22   -1    0    0    0    0 -0.00000000000E+00 -0.00000000000E+00 -0.16309052389E+04  0.16309052389E+04  0.00000000000E+00 0. -1.
         24    2    1    2    0    0 -0.30079522260E+02 -0.50235808536E+02 -0.12894256632E+04  0.12932195322E+04  0.79811047942E+02 0.  0.
         25    2    1    2    0    0 -0.21581057402E+02  0.98110470442E+02 -0.28245659515E+03  0.32483580845E+03  0.12508064543E+03 0.  0.
        -24    2    1    2    0    0  0.51660579662E+02 -0.47874661906E+02  0.42408868616E+02  0.11428174739E+03  0.79378881989E+02 0.  0.
        -11    1    3    3    0    0 -0.33093891059E+02 -0.61551898641E+02 -0.66086076385E+03  0.66454555227E+03  0.00000000000E+00 0.  1.
         12    1    3    3    0    0  0.30143687986E+01  0.11316090105E+02 -0.62856489938E+03  0.62867397994E+03  0.00000000000E+00 0. -1.
         11    1    5    5    0    0  0.42122170607E+02  0.38650683175E+01  0.44802678357E+02  0.61615712264E+02  0.00000000000E+00 0. -1.
        -12    1    5    5    0    0  0.95384090551E+01 -0.51739730224E+02 -0.23938097419E+01  0.52666035127E+02  0.00000000000E+00 0.  1.
          5    1    4    4  501    0  0.36192374877E+02 -0.40647418529E+01 -0.11188490047E+03  0.11773747695E+03  0.41800000000E+01 0. -1.
         -5    1    4    4    0  501 -0.57773432279E+02  0.10217521230E+03 -0.17057169467E+03  0.20709833150E+03  0.41800000000E+01 0. -1.
</event>
<event>
11    1  0.8328696E-009  0.1554901E+03  0.7561462E-02  0.1091397E+00
         22   -1    0    0    0    0  0.00000000000E+00  0.00000000000E+00  0.13536361822E+04  0.13536361822E+04  0.00000000000E+00 0.  1.
         22   -1    0    0    0    0 -0.00000000000E+00 -0.00000000000E+00 -0.55534328019E+03  0.55534328019E+03  0.00000000000E+00 0.  1.
         24    2    1    2    0    0  0.16330184040E+02 -0.61504655120E+02 -0.48479442808E+03  0.49540825015E+03  0.79713231730E+02 0.  0.
         25    2    1    2    0    0 -0.81258385585E+02 -0.62821315668E+01  0.27368441659E+02  0.15178374614E+03  0.12508750372E+03 0.  0.
        -24    2    1    2    0    0  0.64928201545E+02  0.67786786687E+02  0.12557188884E+04  0.12617874661E+04  0.80417430039E+02 0.  0.
        -11    1    3    3    0    0 -0.26971912519E+02 -0.38522243974E+02 -0.32127270163E+03  0.32469615975E+03  0.00000000000E+00 0.  1.
         12    1    3    3    0    0  0.43302096559E+02 -0.22982411146E+02 -0.16352172645E+03  0.17071209040E+03  0.00000000000E+00 0. -1.
         11    1    5    5    0    0  0.45845014017E+02  0.21096370743E+02  0.26360935229E+03  0.26839655881E+03  0.00000000000E+00 0. -1.
        -12    1    5    5    0    0  0.19083187529E+02  0.46690415944E+02  0.99210953610E+03  0.99339090725E+03  0.00000000000E+00 0.  1.
          5    1    4    4  501    0 -0.47512215342E+02 -0.64063080332E+02  0.28297551901E+02  0.84733185423E+02  0.41800000000E+01 0.  1.
         -5    1    4    4    0  501 -0.33746170243E+02  0.57780948765E+02 -0.92911024194E+00  0.67050560715E+02  0.41800000000E+01 0.  1.
</event>
<event>
11    1  0.8328696E-009  0.1278989E+03  0.7561462E-02  0.1121878E+00
         22   -1    0    0    0    0  0.00000000000E+00  0.00000000000E+00  0.20657374292E+03  0.20657374292E+03  0.00000000000E+00 0. -1.
         22   -1    0    0    0    0 -0.00000000000E+00 -0.00000000000E+00 -0.23396034930E+04  0.23396034930E+04  0.00000000000E+00 0.  1.
        -24    2    1    2    0    0  0.21780165382E+01  0.17280769117E+02 -0.15177825628E+04  0.15200029999E+04  0.80261094189E+02 0.  0.
         25    2    1    2    0    0  0.11823697130E+02  0.56428072866E+01 -0.80693370017E+03  0.81667585902E+03  0.12508325688E+03 0.  0.
         24    2    1    2    0    0 -0.14001713668E+02 -0.22923576404E+02  0.19168651283E+03  0.20949837699E+03  0.80151808599E+02 0.  0.
        -11    1    5    5    0    0  0.19898125500E+02  0.16975050552E+02  0.31336013251E+02  0.40817073218E+02  0.00000000000E+00 0.  1.
         12    1    5    5    0    0 -0.33899839168E+02 -0.39898626956E+02  0.16035049957E+03  0.16868130377E+03  0.00000000000E+00 0. -1.
         13    1    3    3    0    0  0.37017610878E+02  0.27036035293E+02 -0.88712326643E+03  0.88830678291E+03  0.00000000000E+00 0. -1.
        -14    1    3    3    0    0 -0.34839594340E+02 -0.97552661761E+01 -0.63065929633E+03  0.63169621702E+03  0.00000000000E+00 0.  1.
          5    1    4    4  501    0  0.67934090885E+02  0.13117155584E+01 -0.49785116885E+03  0.50248385051E+03  0.41800000000E+01 0.  1.
         -5    1    4    4    0  501 -0.56110393755E+02  0.43310917283E+01 -0.30908253132E+03  0.31419200851E+03  0.41800000000E+01 0.  1.
</event>
<event>
11    1  0.8328696E-009  0.1784384E+03  0.7561462E-02  0.1070913E+00
         22   -1    0    0    0    0  0.00000000000E+00  0.00000000000E+00  0.63403326517E+03  0.63403326517E+03  0.00000000000E+00 0.  1.
         22   -1    0    0    0    0 -0.00000000000E+00 -0.00000000000E+00 -0.83980530592E+03  0.83980530592E+03  0.00000000000E+00 0.  1.
        -24    2    1    2    0    0  0.41167227342E+01  0.12474815260E+03 -0.69971976617E+03  0.71531331826E+03  0.80537836674E+02 0.  0.
         25    2    1    2    0    0 -0.23161480041E+02 -0.14993860662E+03 -0.53621898815E+02  0.20381322442E+03  0.12508590049E+03 0.  0.
         24    2    1    2    0    0  0.19044757306E+02  0.25190454026E+02  0.54756962424E+03  0.55471202841E+03  0.82919716111E+02 0.  0.
        -13    1    5    5    0    0  0.38398550559E+02 -0.16267071638E+01  0.45103663118E+03  0.45267111408E+03  0.00000000000E+00 0.  1.
         14    1    5    5    0    0 -0.19353793252E+02  0.26817161190E+02  0.96532993063E+02  0.10204091433E+03  0.00000000000E+00 0. -1.
         11    1    3    3    0    0 -0.48209297081E+01  0.73919486379E+01 -0.39667996767E+01  0.96756275037E+01  0.00000000000E+00 0. -1.
        -12    1    3    3    0    0  0.89376524424E+01  0.11735620396E+03 -0.69575296649E+03  0.70563769076E+03  0.00000000000E+00 0.  1.
          5    1    4    4  501    0  0.29875928401E+00 -0.53856314668E+02 -0.84346263094E+02  0.10016165127E+03  0.41800000000E+01 0. -1.
         -5    1    4    4    0  501 -0.23460239325E+02 -0.96082291955E+02  0.30724364278E+02  0.10365157315E+03  0.41800000000E+01 0. -1.
</event>
<event>
11    1  0.8328696E-009  0.2243792E+03  0.7561462E-02  0.1038508E+00
         22   -1    0    0    0    0  0.00000000000E+00  0.00000000000E+00  0.87995438026E+03  0.87995438026E+03  0.00000000000E+00 0. -1.
         22   -1    0    0    0    0 -0.00000000000E+00 -0.00000000000E+00 -0.31218550160E+03  0.31218550160E+03  0.00000000000E+00 0.  1.
         24    2    1    2    0    0 -0.23137874469E+02 -0.19103608770E+03 -0.22063305454E+03  0.30351380262E+03  0.80072064965E+02 0.  0.
         25    2    1    2    0    0 -0.11607999431E+03  0.14440674080E+03  0.31317829720E+03  0.38478095157E+03  0.12509141852E+03 0.  0.
        -24    2    1    2    0    0  0.13921786878E+03  0.46629346902E+02  0.47522363599E+03  0.50384512768E+03  0.80414535362E+02 0.  0.
        -13    1    3    3    0    0 -0.24551945876E+02 -0.18814108066E+03 -0.17610196447E+03  0.25886630945E+03  0.00000000000E+00 0.  1.
         14    1    3    3    0    0  0.14140714069E+01 -0.28950070371E+01 -0.44531090064E+02  0.44647493165E+02  0.00000000000E+00 0. -1.
         11    1    5    5    0    0  0.82994191025E+02 -0.10773516957E+02  0.19206161212E+03  0.20950362112E+03  0.00000000000E+00 0. -1.
        -12    1    5    5    0    0  0.56223677755E+02  0.57402863860E+02  0.28316202387E+03  0.29434150656E+03  0.00000000000E+00 0.  1.
          5    1    4    4  501    0 -0.44667194124E+02  0.54882572706E+02  0.23651108818E+03  0.24690529004E+03  0.41800000000E+01 0. -1.
         -5    1    4    4    0  501 -0.71412800187E+02  0.89524168092E+02  0.76667209019E+02  0.13787566153E+03  0.41800000000E+01 0. -1.
</event>
<event>
11    1  0.8328696E-009  0.1349477E+03  0.7561462E-02  0.1113335E+00
         22   -1    0    0    0    0  0.00000000000E+00  0.00000000000E+00  0.37817045096E+03  0.37817045096E+03  0.00000000000E+00 0.  1.
         22   -1    0    0    0    0 -0.00000000000E+00 -0.00000000000E+00 -0.33430211627E+03  0.33430211627E+03  0.00000000000E+00 0. -1.
         24    2    1    2    0    0  0.54330101095E+02 -0.25737093059E+01 -0.27110929693E+03  0.28788161506E+03  0.80107362602E+02 0.  0.
         25    2    1    2    0    0 -0.11655861185E+02  0.15719745992E+02  0.37542863182E+02  0.13206059169E+03  0.12509022259E+03 0.  0.
        -24    2    1    2    0    0 -0.42674239911E+02 -0.13146036686E+02  0.27743476843E+03  0.29253036049E+03  0.81302226525E+02 0.  0.
        -11    1    3    3    0    0  0.84533046268E+01  0.81061885235E+01  0.97284617963E+00  0.11752237284E+02  0.00000000000E+00 0.  1.
         12    1    3    3    0    0  0.45876796469E+02 -0.10679897829E+02 -0.27208214311E+03  0.27612937777E+03  0.00000000000E+00 0. -1.
         13    1    5    5    0    0  0.63289109996E+01  0.23283461117E+02  0.14107557827E+03  0.14312404920E+03  0.00000000000E+00 0. -1.
        -14    1    5    5    0    0 -0.49003150910E+02 -0.36429497803E+02  0.13635919017E+03  0.14940631129E+03  0.00000000000E+00 0.  1.
          5    1    4    4  501    0 -0.10976148937E+02  0.39849162870E+02  0.75912669892E+02  0.86536913956E+02  0.41800000000E+01 0. -1.
         -5    1    4    4    0  501 -0.67971224812E+00 -0.24129416878E+02 -0.38369806710E+02  0.45523677736E+02  0.41800000000E+01 0. -1.
</event>
<event>
11    1  0.8328696E-009  0.1391645E+03  0.7561462E-02  0.1108495E+00
         22   -1    0    0    0    0  0.00000000000E+00  0.00000000000E+00  0.25161809987E+03  0.25161809987E+03  0.00000000000E+00 0. -1.
         22   -1    0    0    0    0 -0.00000000000E+00 -0.00000000000E+00 -0.27130211295E+03  0.27130211295E+03  0.00000000000E+00 0. -1.
         24    2    1    2    0    0  0.13092107325E+02  0.18696981863E+02 -0.15700611781E+03  0.17782252186E+03  0.80305341328E+02 0.  0.
         25    2    1    2    0    0 -0.37267901347E+02 -0.71414997338E+02 -0.28629240199E+02  0.15151286964E+03  0.12509003940E+03 0.  0.
        -24    2    1    2    0    0  0.24175794023E+02  0.52718015475E+02  0.16595134492E+03  0.19358482132E+03  0.81065257615E+02 0.  0.
        -11    1    3    3    0    0  0.25603950655E+02 -0.20201427107E+02 -0.11368778395E+03  0.11827329439E+03  0.00000000000E+00 0.  1.
         12    1    3    3    0    0 -0.12511843330E+02  0.38898408970E+02 -0.43318333860E+02  0.59549227470E+02  0.00000000000E+00 0. -1.
         11    1    5    5    0    0 -0.46944338448E+01  0.45466706629E+02  0.15543255185E+03  0.16201400339E+03  0.00000000000E+00 0. -1.
        -12    1    5    5    0    0  0.28870227867E+02  0.72513088460E+01  0.10518793076E+02  0.31570817932E+02  0.00000000000E+00 0.  1.
          5    1    4    4  501    0 -0.83510738841E+02 -0.51339396434E+02 -0.21229042149E+02  0.10038885276E+03  0.41800000000E+01 0. -1.
         -5    1    4    4    0  501  0.46242837493E+02 -0.20075600904E+02 -0.74001980492E+01  0.51124016883E+02  0.41800000000E+01 0. -1.
</event>
<event>
11    1  0.8328696E-009  0.1281769E+03  0.7561462E-02  0.1121530E+00
         22   -1    0    0    0    0  0.00000000000E+00  0.00000000000E+00  0.56636650108E+03  0.56636650108E+03  0.00000000000E+00 0. -1.
         22   -1    0    0    0    0 -0.00000000000E+00 -0.00000000000E+00 -0.10897657437E+04  0.10897657437E+04  0.00000000000E+00 0. -1.
        -24    2    1    2    0    0 -0.36780793498E+00  0.82669071295E+01 -0.93030518264E+03  0.93386735627E+03  0.81068053104E+02 0.  0.
         25    2    1    2    0    0  0.12711393349E+02 -0.33151722826E+02 -0.12686678264E+03  0.18167102383E+03  0.12509422094E+03 0.  0.
         24    2    1    2    0    0 -0.12343585414E+02  0.24884815697E+02  0.53377272265E+03  0.54059386469E+03  0.80974001633E+02 0.  0.
        -11    1    5    5    0    0 -0.10145553258E+02  0.18081247336E+02  0.28359723410E+02  0.35130295587E+02  0.00000000000E+00 0.  1.
         12    1    5    5    0    0 -0.21980321556E+01  0.68035683601E+01  0.50541299924E+03  0.50546356910E+03  0.00000000000E+00 0. -1.
         11    1    3    3    0    0  0.39977057791E+01 -0.11522868216E+02 -0.87298476321E+03  0.87306995993E+03  0.00000000000E+00 0. -1.
        -12    1    3    3    0    0 -0.43655137141E+01  0.19789775345E+02 -0.57320419430E+02  0.60797396341E+02  0.00000000000E+00 0.  1.
          5    1    4    4  501    0  0.32236618477E+02  0.37805162396E+02 -0.24573161831E+02  0.55585452746E+02  0.41800000000E+01 0.  1.
         -5    1    4    4    0  501 -0.19525225128E+02 -0.70956885222E+02 -0.10229362081E+03  0.12608557108E+03  0.41800000000E+01 0.  1.
</event>
<event>
11    1  0.8328696E-009  0.1814328E+03  0.7561462E-02  0.1068490E+00
         22   -1    0    0    0    0  0.00000000000E+00  0.00000000000E+00  0.65339377585E+03  0.65339377585E+03  0.00000000000E+00 0.  1.
         22   -1    0    0    0    0 -0.00000000000E+00 -0.00000000000E+00 -0.45460668021E+03  0.45460668021E+03  0.00000000000E+00 0. -1.
        -24    2    1    2    0    0 -0.10654432794E+03 -0.73491408605E+02 -0.31334009118E+03  0.34909177068E+03  0.83248847840E+02 0.  0.
         25    2    1    2    0    0  0.14279011234E+03  0.36418810841E+02 -0.41598529269E+02  0.19772156730E+03  0.12509210435E+03 0.  0.
         24    2    1    2    0    0 -0.36245784409E+02  0.37072597763E+02  0.55372571608E+03  0.56118711807E+03  0.75037846765E+02 0.  0.
        -13    1    5    5    0    0 -0.14985508920E+02  0.58526813566E+02  0.39800803222E+03  0.40256719575E+03  0.00000000000E+00 0.  1.
         14    1    5    5    0    0 -0.21260275489E+02 -0.21454215803E+02  0.15571768386E+03  0.15861992232E+03  0.00000000000E+00 0. -1.
         13    1    3    3    0    0 -0.71691893106E+02 -0.19750624775E+02 -0.89992921098E+02  0.11674134042E+03  0.00000000000E+00 0. -1.
        -14    1    3    3    0    0 -0.34852434830E+02 -0.53740783830E+02 -0.22334717008E+03  0.23235043026E+03  0.00000000000E+00 0.  1.
          5    1    4    4  501    0 -0.21887144217E+02 -0.18869069573E+01 -0.13934393693E+02  0.26348571639E+02  0.41800000000E+01 0. -1.
         -5    1    4    4    0  501  0.16467725656E+03  0.38305717799E+02 -0.27664135576E+02  0.17137299566E+03  0.41800000000E+01 0. -1.
</event>
<event>
11    1  0.8328696E-009  0.1284830E+03  0.7561462E-02  0.1121147E+00
         22   -1    0    0    0    0  0.00000000000E+00  0.00000000000E+00  0.48838476732E+03  0.48838476732E+03  0.00000000000E+00 0.  1.
         22   -1    0    0    0    0 -0.00000000000E+00 -0.00000000000E+00 -0.16997768873E+03  0.16997768873E+03  0.00000000000E+00 0. -1.
         24    2    1    2    0    0 -0.25816940029E+02  0.64510382373E+01 -0.11987706668E+03  0.14635774377E+03  0.79636346963E+02 0.  0.
         25    2    1    2    0    0  0.50531040264E+02 -0.10818501245E+02  0.11643488052E+03  0.17854437726E+03  0.12510230713E+03 0.  0.
        -24    2    1    2    0    0 -0.24714100235E+02  0.43674630072E+01  0.32184926476E+03  0.33346033502E+03  0.83540315570E+02 0.  0.
        -11    1    3    3    0    0  0.13116130654E+02 -0.72785160885E+01  0.42129964033E+01  0.15580725865E+02  0.00000000000E+00 0.  1.
         12    1    3    3    0    0 -0.38933070683E+02  0.13729554326E+02 -0.12409006309E+03  0.13077701790E+03  0.00000000000E+00 0. -1.
         11    1    5    5    0    0 -0.29854058500E+02 -0.19426627880E+02  0.55147069911E+02  0.65649508753E+02  0.00000000000E+00 0. -1.
        -12    1    5    5    0    0  0.51399582646E+01  0.23794090887E+02  0.26670219485E+03  0.26781082627E+03  0.00000000000E+00 0.  1.
          5    1    4    4  501    0  0.31376175262E+02 -0.64762443560E+02  0.38399025397E+02  0.81673716833E+02  0.41800000000E+01 0.  1.
         -5    1    4    4    0  501  0.19154865002E+02  0.53943942316E+02  0.78035855126E+02  0.96870660424E+02  0.41800000000E+01 0.  1.
</event>
<event>
11    1  0.8328696E-009  0.1349522E+03  0.7561462E-02  0.1113330E+00
         22   -1    0    0    0    0  0.00000000000E+00  0.00000000000E+00  0.13634350283E+04  0.13634350283E+04  0.00000000000E+00 0. -1.
         22   -1    0    0    0    0 -0.00000000000E+00 -0.00000000000E+00 -0.10500651888E+03  0.10500651888E+03  0.00000000000E+00 0. -1.
        -24    2    1    2    0    0  0.13268397319E+02 -0.15980006532E+02 -0.57311780688E+02  0.10034308346E+03  0.79703721472E+02 0.  0.
         25    2    1    2    0    0 -0.62795602569E+02  0.18127503995E+02  0.18146836489E+03  0.22989319330E+03  0.12509284059E+03 0.  0.
         24    2    1    2    0    0  0.49527205250E+02 -0.21474974625E+01  0.11342719252E+04  0.11382052704E+04  0.80503922143E+02 0.  0.
        -11    1    5    5    0    0  0.61525964658E+01 -0.13709734228E+02  0.35922083270E+02  0.38938506935E+02  0.00000000000E+00 0.  1.
         12    1    5    5    0    0  0.43374608784E+02  0.11562236766E+02  0.10983498420E+04  0.10992667635E+04  0.00000000000E+00 0. -1.
         11    1    3    3    0    0  0.41518626243E+02 -0.27924143963E+02 -0.25520072248E+02  0.56167857612E+02  0.00000000000E+00 0. -1.
        -12    1    3    3    0    0 -0.28250228924E+02  0.11944137431E+02 -0.31791708440E+02  0.44175225848E+02  0.00000000000E+00 0.  1.
          5    1    4    4  501    0 -0.69988007937E+02  0.56999694317E+02  0.16230606923E+03  0.18576334116E+03  0.41800000000E+01 0.  1.
         -5    1    4    4    0  501  0.71924053679E+01 -0.38872190322E+02  0.19162295659E+02  0.44129852145E+02  0.41800000000E+01 0.  1.
</event>
<event>
11    1  0.8328696E-009  0.1766740E+03  0.7561462E-02  0.1072365E+00
         22   -1    0    0    0    0  0.00000000000E+00  0.00000000000E+00  0.53598146583E+03  0.53598146583E+03  0.00000000000E+00 0. -1.
         22   -1    0    0    0    0 -0.00000000000E+00 -0.00000000000E+00 -0.58243333203E+03  0.58243333203E+03  0.00000000000E+00 0.  1.
         24    2    1    2    0    0 -0.11036602039E+03  0.51430582486E+02 -0.49608936044E+03  0.51727186938E+03  0.81484784121E+02 0.  0.
         25    2    1    2    0    0  0.14410995746E+03 -0.97604814893E+02  0.98014432455E+02  0.23568927431E+03  0.12509286682E+03 0.  0.
        -24    2    1    2    0    0 -0.33743937068E+02  0.46174232407E+02  0.35162306178E+03  0.36545365416E+03  0.81528416752E+02 0.  0.
        -11    1    3    3    0    0 -0.26331463567E+02  0.55370378745E+02 -0.24054879469E+03  0.24823969755E+03  0.00000000000E+00 0.  1.
         12    1    3    3    0    0 -0.84034556821E+02 -0.39397962587E+01 -0.25554056575E+03  0.26903217183E+03  0.00000000000E+00 0. -1.
         13    1    5    5    0    0 -0.30268057421E+02  0.19835718898E+02  0.32773332483E+03  0.32972525419E+03  0.00000000000E+00 0. -1.
        -14    1    5    5    0    0 -0.34758796469E+01  0.26338513509E+02  0.23889736945E+02  0.35728399971E+02  0.00000000000E+00 0.  1.
          5    1    4    4  501    0  0.30168124942E+02 -0.92648866773E+02  0.63814055262E+02  0.11654884953E+03  0.41800000000E+01 0.  1.
         -5    1    4    4    0  501  0.11394183251E+03 -0.49559481205E+01  0.34200377192E+02  0.11914042479E+03  0.41800000000E+01 0.  1.
</event>
<event>
11    1  0.8328696E-009  0.2154267E+03  0.7561462E-02  0.1044121E+00
         22   -1    0    0    0    0  0.00000000000E+00  0.00000000000E+00  0.24069316240E+04  0.24069316240E+04  0.00000000000E+00 0. -1.
         22   -1    0    0    0    0 -0.00000000000E+00 -0.00000000000E+00 -0.30819564061E+03  0.30819564061E+03  0.00000000000E+00 0. -1.
        -24    2    1    2    0    0 -0.54333335684E+02 -0.47344863848E+02 -0.27911564517E+03  0.29942097581E+03  0.80955110257E+02 0.  0.
         25    2    1    2    0    0  0.16771805552E+03  0.14478912475E+03  0.13222914015E+04  0.13465493822E+04  0.12508977389E+03 0.  0.
         24    2    1    2    0    0 -0.11338471984E+03 -0.97444260898E+02  0.10555602271E+04  0.10691569066E+04  0.80855545419E+02 0.  0.
        -11    1    5    5    0    0 -0.27980855583E+02 -0.41552379069E+02  0.15651515037E+03  0.16433660815E+03  0.00000000000E+00 0.  1.
         12    1    5    5    0    0 -0.85403864257E+02 -0.55891881829E+02  0.89904507675E+03  0.90482029846E+03  0.00000000000E+00 0. -1.
         11    1    3    3    0    0 -0.15679846018E+02 -0.27086894529E+02 -0.23602714457E+03  0.23809319688E+03  0.00000000000E+00 0. -1.
        -12    1    3    3    0    0 -0.38653489667E+02 -0.20257969320E+02 -0.43088500594E+02  0.61327778924E+02  0.00000000000E+00 0.  1.
          5    1    4    4  501    0  0.18027793228E+03  0.13809512842E+03  0.13005226370E+04  0.13202071804E+04  0.41800000000E+01 0. -1.
         -5    1    4    4    0  501 -0.12559876751E+02  0.66939963288E+01  0.21768764446E+02  0.26342201813E+02  0.41800000000E+01 0. -1.
</event>
<event>
11    1  0.8328696E-009  0.1270930E+03  0.7561462E-02  0.1122893E+00
         22   -1    0    0    0    0  0.00000000000E+00  0.00000000000E+00  0.36978947510E+03  0.36978947510E+03  0.00000000000E+00 0.  1.
         22   -1    0    0    0    0 -0.00000000000E+00 -0.00000000000E+00 -0.26113964072E+03  0.26113964072E+03  0.00000000000E+00 0. -1.
         24    2    1    2    0    0 -0.15919912429E+02 -0.21185727656E+02 -0.19802682846E+03  0.21447439017E+03  0.77989490195E+02 0.  0.
         25    2    1    2    0    0  0.11198488506E+02 -0.35024692472E+01  0.32934147475E+02  0.12989708102E+03  0.12510363764E+03 0.  0.
        -24    2    1    2    0    0  0.47214239233E+01  0.24688196903E+02  0.27374251537E+03  0.28655764463E+03  0.80922926720E+02 0.  0.
        -13    1    3    3    0    0 -0.42616035763E+02 -0.44595723967E+01 -0.65616116656E+02  0.78367653117E+02  0.00000000000E+00 0.  1.
         14    1    3    3    0    0  0.26696123334E+02 -0.16726155260E+02 -0.13241071180E+03  0.13610673705E+03  0.00000000000E+00 0. -1.
         11    1    5    5    0    0 -0.17658893895E+02 -0.56825779951E+01  0.11962749971E+02  0.22073414170E+02  0.00000000000E+00 0. -1.
        -12    1    5    5    0    0  0.22380317818E+02  0.30370774898E+02  0.26177976539E+03  0.26448423046E+03  0.00000000000E+00 0.  1.
          5    1    4    4  501    0 -0.88359860033E+01 -0.27319199478E+02  0.73254248565E+02  0.78791310698E+02  0.41800000000E+01 0. -1.
         -5    1    4    4    0  501  0.20034474509E+02  0.23816730231E+02 -0.40320101090E+02  0.51105770317E+02  0.41800000000E+01 0. -1.
</event>
<event>
11    1  0.8328696E-009  0.2124291E+03  0.7561462E-02  0.1046066E+00
         22   -1    0    0    0    0  0.00000000000E+00  0.00000000000E+00  0.47097610343E+03  0.47097610343E+03  0.00000000000E+00 0.  1.
         22   -1    0    0    0    0 -0.00000000000E+00 -0.00000000000E+00 -0.18550732048E+03  0.18550732048E+03  0.00000000000E+00 0. -1.
        -24    2    1    2    0    0  0.39360331536E+02  0.44094147932E+02 -0.45632817161E+02  0.10905595232E+03  0.79481552282E+02 0.  0.
         25    2    1    2    0    0 -0.18477951343E+03  0.38307617370E+02  0.92095717926E+02  0.24441583293E+03  0.12508611431E+03 0.  0.
         24    2    1    2    0    0  0.14541918190E+03 -0.82401765302E+02  0.23900588218E+03  0.30301163866E+03  0.82191557100E+02 0.  0.
        -11    1    5    5    0    0  0.56471361469E+02  0.28241471438E+01  0.11537199056E+03  0.12848224266E+03  0.00000000000E+00 0.  1.
         12    1    5    5    0    0  0.88947820428E+02 -0.85225912446E+02  0.12363389162E+03  0.17452939600E+03  0.00000000000E+00 0. -1.
         11    1    3    3    0    0 -0.17549665073E+02 -0.99088896812E+01 -0.13604519269E+02  0.24315834006E+02  0.00000000000E+00 0. -1.
        -12    1    3    3    0    0  0.56909996608E+02  0.54003037613E+02 -0.32028297892E+02  0.84740118311E+02  0.00000000000E+00 0.  1.
          5    1    4    4  501    0 -0.19723728104E+03  0.46245690618E+02  0.10127513329E+03  0.22652888106E+03  0.41800000000E+01 0.  1.
         -5    1    4    4    0  501  0.12457767607E+02 -0.79380732478E+01 -0.91794153651E+01  0.17886951866E+02  0.41800000000E+01 0.  1.
</event>
<event>
11    1  0.8328696E-009  0.1439397E+03  0.7561462E-02  0.1103237E+00
         22   -1    0    0    0    0  0.00000000000E+00  0.00000000000E+00  0.13731890859E+04  0.13731890859E+04  0.00000000000E+00 0. -1.
         22   -1    0    0    0    0 -0.00000000000E+00 -0.00000000000E+00 -0.11007508728E+03  0.11007508728E+03  0.00000000000E+00 0.  1.
         24    2    1    2    0    0  0.98520382785E+01 -0.66676623803E+02 -0.58130923730E+02  0.11916162132E+03  0.79230378530E+02 0.  0.
         25    2    1    2    0    0  0.10116654767E+02  0.12547815649E+03  0.41379578328E+03  0.45024577110E+03  0.12508872719E+03 0.  0.
        -24    2    1    2    0    0 -0.19968693045E+02 -0.58801532686E+02  0.90744913907E+03  0.91385678075E+03  0.88396305245E+02 0.  0.
        -13    1    3    3    0    0  0.23015928128E+02 -0.57845105520E+02 -0.35850053797E+01  0.62358972440E+02  0.00000000000E+00 0.  1.
         14    1    3    3    0    0 -0.13163889849E+02 -0.88315182833E+01 -0.54545918350E+02  0.56802648881E+02  0.00000000000E+00 0. -1.
         13    1    5    5    0    0 -0.34157001911E+02 -0.19792427041E+02  0.74967210173E+03  0.75071079722E+03  0.00000000000E+00 0. -1.
        -14    1    5    5    0    0  0.14188308866E+02 -0.39009105645E+02  0.15777703734E+03  0.16314598354E+03  0.00000000000E+00 0.  1.
          5    1    4    4  501    0 -0.13444950615E+02 -0.20661738343E+02  0.31143513556E+02  0.39938264422E+02  0.41800000000E+01 0. -1.
         -5    1    4    4    0  501  0.23561605381E+02  0.14613989483E+03  0.38265226972E+03  0.41030750667E+03  0.41800000000E+01 0. -1.
</event>
<event>
11    1  0.8328696E-009  0.2546446E+03  0.7561462E-02  0.1021454E+00
         22   -1    0    0    0    0  0.00000000000E+00  0.00000000000E+00  0.26520899377E+03  0.26520899377E+03  0.00000000000E+00 0. -1.
         22   -1    0    0    0    0 -0.00000000000E+00 -0.00000000000E+00 -0.21285990216E+04  0.21285990216E+04  0.00000000000E+00 0.  1.
        -24    2    1    2    0    0 -0.15801563713E+03  0.16899500272E+03 -0.16168389942E+04  0.16353268098E+04  0.81223082592E+02 0.  0.
         25    2    1    2    0    0  0.74886474940E+02 -0.18836677873E+03 -0.45842298484E+03  0.51661335843E+03  0.12509077351E+03 0.  0.
         24    2    1    2    0    0  0.83129162189E+02  0.19371776009E+02  0.21187195118E+03  0.24186784718E+03  0.79527407163E+02 0.  0.
        -13    1    5    5    0    0 -0.13835232600E+02  0.12167384590E+02  0.46685270680E+02  0.50189375443E+02  0.00000000000E+00 0.  1.
         14    1    5    5    0    0  0.96964394789E+02  0.72043914193E+01  0.16518668050E+03  0.19167847174E+03  0.00000000000E+00 0. -1.
         13    1    3    3    0    0 -0.14336705611E+03  0.11030052111E+03 -0.13244417955E+04  0.13367372170E+04  0.00000000000E+00 0. -1.
        -14    1    3    3    0    0 -0.14648581020E+02  0.58694481616E+02 -0.29239719869E+03  0.29858959275E+03  0.00000000000E+00 0.  1.
          5    1    4    4  501    0  0.10786165986E+02 -0.15873850115E+03 -0.24857750605E+03  0.29516521142E+03  0.41800000000E+01 0. -1.
         -5    1    4    4    0  501  0.64100308955E+02 -0.29628277588E+02 -0.20984547880E+03  0.22144814701E+03  0.41800000000E+01 0. -1.
</event>
<event>
11    1  0.8328696E-009  0.1477258E+03  0.7561462E-02  0.1099225E+00
         22   -1    0    0    0    0  0.00000000000E+00  0.00000000000E+00  0.11815159545E+04  0.11815159545E+04  0.00000000000E+00 0.  1.
         22   -1    0    0    0    0 -0.00000000000E+00 -0.00000000000E+00 -0.61587361639E+03  0.61587361639E+03  0.00000000000E+00 0. -1.
         24    2    1    2    0    0 -0.14065747772E+02 -0.24358341947E+02 -0.59125204906E+03  0.59751312483E+03  0.81558413116E+02 0.  0.
         25    2    1    2    0    0  0.38854571818E+00  0.98033857832E+02  0.33513448198E+03  0.37090988400E+03  0.12509289663E+03 0.  0.
        -24    2    1    2    0    0  0.13677202054E+02 -0.73675515885E+02  0.82175990523E+03  0.82896656209E+03  0.79253212716E+02 0.  0.
        -13    1    3    3    0    0 -0.18397216565E+02 -0.23858518604E+02 -0.69576605120E+02  0.75819459687E+02  0.00000000000E+00 0.  1.
         14    1    3    3    0    0  0.43314687926E+01 -0.49982334306E+00 -0.52167544394E+03  0.52169366514E+03  0.00000000000E+00 0. -1.
         11    1    5    5    0    0  0.44403881212E+02 -0.50883179499E+02  0.61501563342E+03  0.61871239843E+03  0.00000000000E+00 0. -1.
        -12    1    5    5    0    0 -0.30726679158E+02 -0.22792336386E+02  0.20674427181E+03  0.21025416366E+03  0.00000000000E+00 0.  1.
          5    1    4    4  501    0  0.62739014049E+01  0.12215449662E+03  0.20824096705E+03  0.24154265801E+03  0.41800000000E+01 0. -1.
         -5    1    4    4    0  501 -0.58853556867E+01 -0.24120638792E+02  0.12689351493E+03  0.12936722598E+03  0.41800000000E+01 0. -1.
</event>
<event>
11    1  0.1317012E-008  0.1787504E+03  0.7561462E-02  0.1070658E+00
         22   -1    0    0    0    0  0.00000000000E+00  0.00000000000E+00  0.14933629502E+04  0.14933629502E+04  0.00000000000E+00 0.  1.
         22   -1    0    0    0    0 -0.00000000000E+00 -0.00000000000E+00 -0.12944037449E+04  0.12944037449E+04  0.00000000000E+00 0.  1.
        -24    2    1    2    0    0  0.81051884891E+02  0.85092376391E+02 -0.92706532147E+03  0.93784414291E+03  0.79318380863E+02 0.  0.
         25    2    1    2    0    0 -0.16732254566E+03 -0.12258998377E+03 -0.31834745495E+03  0.40002136888E+03  0.12508738976E+03 0.  0.
         24    2    1    2    0    0  0.86270660764E+02  0.37497607375E+02  0.14443719817E+04  0.14499011832E+04  0.84583226095E+02 0.  0.
        -11    1    5    5    0    0  0.74165164642E+02  0.85226396296E+01  0.55782342880E+03  0.56279666377E+03  0.00000000000E+00 0.  1.
         12    1    5    5    0    0  0.12105496121E+02  0.28974967745E+02  0.88654855291E+03  0.88710451946E+03  0.00000000000E+00 0. -1.
         13    1    3    3    0    0  0.81094808527E+01  0.42979502130E+02 -0.15056218078E+03  0.15678638833E+03  0.00000000000E+00 0. -1.
        -14    1    3    3    0    0  0.72942404039E+02  0.42112874261E+02 -0.77650314069E+03  0.78105775458E+03  0.00000000000E+00 0.  1.
          5    1    4    4  501    0  0.11197487034E+02 -0.45906010114E+02 -0.72490341153E+02  0.86631792322E+02  0.41800000000E+01 0. -1.
         -5    1    4    4    0  501 -0.17852003269E+03 -0.76683973652E+02 -0.24585711380E+03  0.31338957655E+03  0.41800000000E+01 0. -1.
</event>
<event>
11    1  0.8328696E-009  0.1398573E+03  0.7561462E-02  0.1107718E+00
         22   -1    0    0    0    0  0.00000000000E+00  0.00000000000E+00  0.85430810415E+03  0.85430810415E+03  0.00000000000E+00 0.  1.
         22   -1    0    0    0    0 -0.00000000000E+00 -0.00000000000E+00 -0.76177078387E+03  0.76177078387E+03  0.00000000000E+00 0. -1.
         24    2    1    2    0    0  0.44814945424E+02 -0.46809414778E+02 -0.53222503317E+03  0.54296856972E+03  0.85743111209E+02 0.  0.
         25    2    1    2    0    0 -0.18584277620E+02  0.55014260670E+02 -0.20054869231E+03  0.24339120466E+03  0.12509019253E+03 0.  0.
        -24    2    1    2    0    0 -0.26230667803E+02 -0.82048458916E+01  0.82531104576E+03  0.82971911364E+03  0.80870995167E+02 0.  0.
        -11    1    3    3    0    0 -0.13069307594E+02  0.26223996038E+01 -0.14572534427E+02  0.19749494685E+02  0.00000000000E+00 0.  1.
         12    1    3    3    0    0  0.57884253017E+02 -0.49431814382E+02 -0.51765249874E+03  0.52321907503E+03  0.00000000000E+00 0. -1.
         13    1    5    5    0    0 -0.17359212131E+02  0.34923615638E+02  0.29189962191E+03  0.29449344720E+03  0.00000000000E+00 0. -1.
        -14    1    5    5    0    0 -0.88714556718E+01 -0.43128461530E+02  0.53341142385E+03  0.53522566644E+03  0.00000000000E+00 0.  1.
          5    1    4    4  501    0 -0.55778368490E+02  0.48477450762E+02 -0.53020908529E+02  0.91049320509E+02  0.41800000000E+01 0. -1.
         -5    1    4    4    0  501  0.37194090870E+02  0.65368099073E+01 -0.14752778378E+03  0.15234188415E+03  0.41800000000E+01 0. -1.
</event>
<event>
11    1  0.8328696E-009  0.1564903E+03  0.7561462E-02  0.1090426E+00
         22   -1    0    0    0    0  0.00000000000E+00  0.00000000000E+00  0.11612500116E+04  0.11612500116E+04  0.00000000000E+00 0. -1.
         22   -1    0    0    0    0 -0.00000000000E+00 -0.00000000000E+00 -0.46438460095E+03  0.46438460095E+03  0.00000000000E+00 0.  1.
        -24    2    1    2    0    0  0.54246029349E+02 -0.10243604329E+01 -0.35072630344E+03  0.36349978056E+03  0.78609601989E+02 0.  0.
         25    2    1    2    0    0 -0.63021990673E+02 -0.92443755513E+02 -0.35864491174E+02  0.17161451336E+03  0.12509060807E+03 0.  0.
         24    2    1    2    0    0  0.87759613236E+01  0.93468115946E+02  0.10834562053E+04  0.10905203186E+04  0.80894439927E+02 0.  0.
        -13    1    5    5    0    0 -0.29637285943E+02  0.89610362715E+01  0.29353788811E+03  0.29516632708E+03  0.00000000000E+00 0.  1.
         14    1    5    5    0    0  0.38413247267E+02  0.84507079675E+02  0.78991831718E+03  0.79535399156E+03  0.00000000000E+00 0. -1.
         13    1    3    3    0    0  0.30479223338E+02  0.19881362743E+02 -0.54165377461E+02  0.65254423262E+02  0.00000000000E+00 0. -1.
        -14    1    3    3    0    0  0.23766806012E+02 -0.20905723176E+02 -0.29656092598E+03  0.29824535730E+03  0.00000000000E+00 0.  1.
          5    1    4    4  501    0 -0.42898758609E+02 -0.12070428029E+03 -0.44402888381E+02  0.13564260270E+03  0.41800000000E+01 0.  1.
         -5    1    4    4    0  501 -0.20123232064E+02  0.28260524779E+02  0.85383972074E+01  0.35971910657E+02  0.41800000000E+01 0.  1.
</event>
<event>
11    1  0.8328696E-009  0.4112490E+03  0.7561462E-02  0.9617138E-01
         22   -1    0    0    0    0  0.00000000000E+00  0.00000000000E+00  0.35488600268E+03  0.35488600268E+03  0.00000000000E+00 0. -1.
         22   -1    0    0    0    0 -0.00000000000E+00 -0.00000000000E+00 -0.17455284541E+04  0.17455284541E+04  0.00000000000E+00 0.  1.
         24    2    1    2    0    0 -0.10159880096E+02  0.67363154180E+02 -0.92861418826E+03  0.93450237002E+03  0.79557219855E+02 0.  0.
         25    2    1    2    0    0 -0.38332429966E+03 -0.59124842295E+02 -0.61343821975E+03  0.73646960720E+03  0.12509103558E+03 0.  0.
        -24    2    1    2    0    0  0.39348417976E+03 -0.82383118852E+01  0.15140995662E+03  0.42944247953E+03  0.81229297418E+02 0.  0.
        -11    1    3    3    0    0 -0.37380919628E+02  0.76735832304E+01 -0.40518629811E+03  0.40697930317E+03  0.00000000000E+00 0.  1.
         12    1    3    3    0    0  0.27221039532E+02  0.59689570949E+02 -0.52342789015E+03  0.52752306685E+03  0.00000000000E+00 0. -1.
         11    1    5    5    0    0  0.10768297349E+03  0.21196063053E+01  0.41899724944E+01  0.10778530224E+03  0.00000000000E+00 0. -1.
        -12    1    5    5    0    0  0.28580120627E+03 -0.10357918191E+02  0.14721998412E+03  0.32165717729E+03  0.00000000000E+00 0.  1.
          5    1    4    4  501    0 -0.74384624051E+02 -0.34275797042E+02 -0.58170707760E+02  0.10054454833E+03  0.41800000000E+01 0. -1.
         -5    1    4    4    0  501 -0.30893967561E+03 -0.24849045253E+02 -0.55526751199E+03  0.63592505886E+03  0.41800000000E+01 0. -1.
</event>
<event>
11    1  0.8328696E-009  0.1543412E+03  0.7561462E-02  0.1092524E+00
         22   -1    0    0    0    0  0.00000000000E+00  0.00000000000E+00  0.77614552947E+03  0.77614552947E+03  0.00000000000E+00 0.  1.
         22   -1    0    0    0    0 -0.00000000000E+00 -0.00000000000E+00 -0.74422053968E+02  0.74422053968E+02  0.00000000000E+00 0.  1.
        -24    2    1    2    0    0 -0.18637894168E+02 -0.83730382961E+02  0.28100510769E+02  0.11982104131E+03  0.78799080605E+02 0.  0.
         25    2    1    2    0    0  0.36413246818E+02  0.10231109733E+03  0.25573232581E+03  0.30469426414E+03  0.12508431938E+03 0.  0.
         24    2    1    2    0    0 -0.17775352650E+02 -0.18580714374E+02  0.41789063893E+03  0.42605227800E+03  0.78909767285E+02 0.  0.
        -11    1    5    5    0    0 -0.36011630534E+02 -0.12739585404E+02  0.39196315778E+03  0.39382007519E+03  0.00000000000E+00 0.  1.
         12    1    5    5    0    0  0.18236277885E+02 -0.58411289696E+01  0.25927481153E+02  0.32232202805E+02  0.00000000000E+00 0. -1.
         11    1    3    3    0    0  0.12608571732E+02 -0.32231797832E+02 -0.22391165546E+02  0.41221707475E+02  0.00000000000E+00 0. -1.
        -12    1    3    3    0    0 -0.31246465901E+02 -0.51498585129E+02  0.50491676315E+02  0.78599333831E+02  0.00000000000E+00 0.  1.
          5    1    4    4  501    0  0.12590210732E+02  0.12081494061E+03  0.14179176641E+03  0.18675422539E+03  0.41800000000E+01 0.  1.
         -5    1    4    4    0  501  0.23823036086E+02 -0.18503843271E+02  0.11394055940E+03  0.11794003875E+03  0.41800000000E+01 0.  1.
</event>
<event>
11    1  0.8328696E-009  0.2009433E+03  0.7561462E-02  0.1053859E+00
         22   -1    0    0    0    0  0.00000000000E+00  0.00000000000E+00  0.16637006188E+04  0.16637006188E+04  0.00000000000E+00 0.  1.
         22   -1    0    0    0    0 -0.00000000000E+00 -0.00000000000E+00 -0.24119393254E+04  0.24119393254E+04  0.00000000000E+00 0. -1.
        -24    2    1    2    0    0  0.52757109734E+02  0.14870446292E+03 -0.23646888629E+04  0.23713241980E+04  0.80800396262E+02 0.  0.
         25    2    1    2    0    0 -0.67675597649E+01 -0.13146176633E+03  0.15200067932E+03  0.23681401347E+03  0.12509466252E+03 0.  0.
         24    2    1    2    0    0 -0.45989549969E+02 -0.17242696589E+02  0.14644494770E+04  0.14675017327E+04  0.80849955871E+02 0.  0.
        -11    1    5    5    0    0 -0.99185945782E+01 -0.30932642076E+02  0.21346645213E+03  0.21592390569E+03  0.00000000000E+00 0.  1.
         12    1    5    5    0    0 -0.36070955391E+02  0.13689945486E+02  0.12509830249E+04  0.12515778270E+04  0.00000000000E+00 0. -1.
         11    1    3    3    0    0 -0.18962829487E+02  0.53485178149E+02 -0.90381009828E+03  0.90558983372E+03  0.00000000000E+00 0. -1.
        -12    1    3    3    0    0  0.71719939221E+02  0.95219284772E+02 -0.14608787646E+04  0.14657343643E+04  0.00000000000E+00 0.  1.
          5    1    4    4  501    0 -0.35826096958E+02  0.86371400202E+01  0.43708085217E+02  0.57323455272E+02  0.41800000000E+01 0.  1.
         -5    1    4    4    0  501  0.29058537193E+02 -0.14009890635E+03  0.10829259410E+03  0.17949055820E+03  0.41800000000E+01 0.  1.
</event>
<event>
11    1  0.8328696E-009  0.1467048E+03  0.7561462E-02  0.1100294E+00
         22   -1    0    0    0    0  0.00000000000E+00  0.00000000000E+00  0.24722912549E+04  0.24722912549E+04  0.00000000000E+00 0. -1.
         22   -1    0    0    0    0 -0.00000000000E+00 -0.00000000000E+00 -0.19770673206E+04  0.19770673206E+04  0.00000000000E+00 0. -1.
        -24    2    1    2    0    0  0.47295256220E+02  0.15780424679E+01 -0.13337133174E+04  0.13373534335E+04  0.86508158745E+02 0.  0.
         25    2    1    2    0    0 -0.10834689379E+03  0.44655239381E+02 -0.62881220214E+03  0.65175487202E+03  0.12508592188E+03 0.  0.
         24    2    1    2    0    0  0.61051637571E+02 -0.46233281849E+02  0.24577494538E+04  0.24602502699E+04  0.80213428598E+02 0.  0.
        -13    1    5    5    0    0  0.18611860789E+02  0.22519876582E+02  0.52431703849E+03  0.52513036768E+03  0.00000000000E+00 0.  1.
         14    1    5    5    0    0  0.42439776781E+02 -0.68753158431E+02  0.19334324153E+04  0.19351199023E+04  0.00000000000E+00 0. -1.
         11    1    3    3    0    0  0.55501043447E+02  0.28094329090E+02 -0.11359154678E+04  0.11376175135E+04  0.00000000000E+00 0. -1.
        -12    1    3    3    0    0 -0.82057872279E+01 -0.26516286622E+02 -0.19779784963E+03  0.19973591995E+03  0.00000000000E+00 0.  1.
          5    1    4    4  501    0 -0.10623010934E+03  0.47366533401E+02 -0.63379780071E+03  0.64439549129E+03  0.41800000000E+01 0. -1.
         -5    1    4    4    0  501 -0.21167844518E+01 -0.27112940202E+01  0.49855985691E+01  0.73593807329E+01  0.41800000000E+01 0. -1.
</event>
<event>
11    1  0.8328696E-009  0.1572732E+03  0.7561462E-02  0.1089670E+00
         22   -1    0    0    0    0  0.00000000000E+00  0.00000000000E+00  0.49535340752E+03  0.49535340752E+03  0.00000000000E+00 0.  1.
         22   -1    0    0    0    0 -0.00000000000E+00 -0.00000000000E+00 -0.10374155641E+04  0.10374155641E+04  0.00000000000E+00 0.  1.
        -24    2    1    2    0    0 -0.89477268895E+02  0.36059605390E+02 -0.93107503594E+03  0.94032986627E+03  0.89515686142E+02 0.  0.
         25    2    1    2    0    0  0.83400837160E+02 -0.94958694153E+01 -0.39275076983E+02  0.15567258477E+03  0.12508217619E+03 0.  0.
         24    2    1    2    0    0  0.60764317354E+01 -0.26563735975E+02  0.42828795636E+03  0.43676652055E+03  0.81190299988E+02 0.  0.
        -13    1    5    5    0    0 -0.12333577942E+02 -0.21042537626E+02  0.40833262030E+03  0.40906042871E+03  0.00000000000E+00 0.  1.
         14    1    5    5    0    0  0.18410009677E+02 -0.55211983482E+01  0.19955336068E+02  0.27706091841E+02  0.00000000000E+00 0. -1.
         13    1    3    3    0    0 -0.95378405455E+01 -0.53130301092E+01 -0.98089016781E+01  0.14676963015E+02  0.00000000000E+00 0. -1.
        -14    1    3    3    0    0 -0.79939428350E+02  0.41372635499E+02 -0.92126613426E+03  0.92565290326E+03  0.00000000000E+00 0.  1.
          5    1    4    4  501    0  0.73200590149E+02 -0.60653940417E+02 -0.99264811333E+01  0.95672536885E+02  0.41800000000E+01 0. -1.
         -5    1    4    4    0  501  0.10200247011E+02  0.51158071001E+02 -0.29348595850E+02  0.60000047883E+02  0.41800000000E+01 0. -1.
</event>
<event>
11    1  0.8328696E-009  0.1319752E+03  0.7561462E-02  0.1116866E+00
         22   -1    0    0    0    0  0.00000000000E+00  0.00000000000E+00  0.50294896434E+02  0.50294896434E+02  0.00000000000E+00 0. -1.
         22   -1    0    0    0    0 -0.00000000000E+00 -0.00000000000E+00 -0.16549937698E+04  0.16549937698E+04  0.00000000000E+00 0. -1.
         24    2    1    2    0    0 -0.29352518649E+02  0.29121114699E+02 -0.13154408442E+04  0.13185939310E+04  0.81214103369E+02 0.  0.
         25    2    1    2    0    0  0.48534480483E+02 -0.20505222076E+02 -0.28393635059E+03  0.31470925382E+03  0.12508398507E+03 0.  0.
        -24    2    1    2    0    0 -0.19181961834E+02 -0.86158926230E+01 -0.53216785047E+01  0.71985481358E+02  0.68639696960E+02 0.  0.
        -11    1    3    3    0    0  0.18750479446E+02  0.15980940251E+02 -0.87373463454E+03  0.87408190836E+03  0.00000000000E+00 0.  1.
         12    1    3    3    0    0 -0.48102998095E+02  0.13140174448E+02 -0.44170620968E+03  0.44451202265E+03  0.00000000000E+00 0. -1.
         11    1    5    5    0    0  0.19388753963E+02 -0.85446190699E+01  0.17226674140E+02  0.27307372580E+02  0.00000000000E+00 0. -1.
        -12    1    5    5    0    0 -0.38570715797E+02 -0.71273553080E-01 -0.22548352645E+02  0.44678108778E+02  0.00000000000E+00 0.  1.
          5    1    4    4  501    0  0.14754239969E+02  0.26287007135E+02 -0.62625062176E+01  0.31070656982E+02  0.41800000000E+01 0. -1.
         -5    1    4    4    0  501  0.33780240514E+02 -0.46792229211E+02 -0.27767384438E+03  0.28363859683E+03  0.41800000000E+01 0. -1.
</event>
<event>
11    1  0.8328696E-009  0.1702592E+03  0.7561462E-02  0.1077806E+00
         22   -1    0    0    0    0  0.00000000000E+00  0.00000000000E+00  0.48694595498E+03  0.48694595498E+03  0.00000000000E+00 0.  1.
         22   -1    0    0    0    0 -0.00000000000E+00 -0.00000000000E+00 -0.54750084831E+03  0.54750084831E+03  0.00000000000E+00 0. -1.
        -24    2    1    2    0    0 -0.10472289710E+03 -0.39803280237E+02 -0.45106464299E+03  0.47183368660E+03  0.81342051595E+02 0.  0.
         25    2    1    2    0    0  0.14286483673E+03  0.72120951373E+02  0.52130485716E+02  0.20970624222E+03  0.12508927725E+03 0.  0.
         24    2    1    2    0    0 -0.38141939628E+02 -0.32317671136E+02  0.33837926394E+03  0.35290687448E+03  0.86853303684E+02 0.  0.
        -11    1    5    5    0    0 -0.89520219526E+01 -0.24828424199E+02  0.31122524255E+03  0.31234234574E+03  0.00000000000E+00 0.  1.
         12    1    5    5    0    0 -0.29189917675E+02 -0.74892469375E+01  0.27154021396E+02  0.40564528735E+02  0.00000000000E+00 0. -1.
         11    1    3    3    0    0 -0.88687798287E+02 -0.42776031181E+02 -0.44267552677E+03  0.45349414154E+03  0.00000000000E+00 0. -1.
        -12    1    3    3    0    0 -0.16035098812E+02  0.29727509440E+01 -0.83891162247E+01  0.18339545063E+02  0.00000000000E+00 0.  1.
          5    1    4    4  501    0  0.11421985517E+03  0.34033857587E+00 -0.35641750024E+01  0.11435238034E+03  0.41800000000E+01 0.  1.
         -5    1    4    4    0  501  0.28644981553E+02  0.71780612797E+02  0.55694660718E+02  0.95353861874E+02  0.41800000000E+01 0.  1.
</event>
<event>
11    1  0.8328696E-009  0.1294589E+03  0.7561462E-02  0.1119936E+00
         22   -1    0    0    0    0  0.00000000000E+00  0.00000000000E+00  0.81160662337E+02  0.81160662337E+02  0.00000000000E+00 0.  1.
         22   -1    0    0    0    0 -0.00000000000E+00 -0.00000000000E+00 -0.88501904468E+03  0.88501904468E+03  0.00000000000E+00 0.  1.
        -24    2    1    2    0    0  0.63503380872E+01 -0.33105185603E+02 -0.73301928794E+03  0.73838285732E+03  0.82192988710E+02 0.  0.
         25    2    1    2    0    0 -0.26238430126E+02  0.22958393020E+02 -0.64892457518E+02  0.14516957332E+03  0.12509049105E+03 0.  0.
         24    2    1    2    0    0  0.19888092039E+02  0.10146792583E+02 -0.59466368944E+01  0.82627276377E+02  0.79331019825E+02 0.  0.
        -13    1    5    5    0    0  0.33779832043E+02  0.25222804668E+02  0.22325924706E+02  0.47704442583E+02  0.00000000000E+00 0.  1.
         14    1    5    5    0    0 -0.13891740004E+02 -0.15076012085E+02 -0.28272561601E+02  0.34922833794E+02  0.00000000000E+00 0. -1.
         11    1    3    3    0    0 -0.34394403901E+02 -0.86900006405E+01 -0.18950193430E+03  0.19279386462E+03  0.00000000000E+00 0. -1.
        -12    1    3    3    0    0  0.40744741988E+02 -0.24415184963E+02 -0.54351735363E+03  0.54558899270E+03  0.00000000000E+00 0.  1.
          5    1    4    4  501    0  0.35289660176E+02 -0.25579826065E+02 -0.47851079429E+02  0.64860510477E+02  0.41800000000E+01 0.  1.
         -5    1    4    4    0  501 -0.61528090302E+02  0.48538219085E+02 -0.17041378089E+02  0.80309062847E+02  0.41800000000E+01 0.  1.
</event>
<event>
11    1  0.8328696E-009  0.1580419E+03  0.7561462E-02  0.1088934E+00
         22   -1    0    0    0    0  0.00000000000E+00  0.00000000000E+00  0.17232822362E+04  0.17232822362E+04  0.00000000000E+00 0. -1.
         22   -1    0    0    0    0 -0.00000000000E+00 -0.00000000000E+00 -0.30086491471E+03  0.30086491471E+03  0.00000000000E+00 0.  1.
        -24    2    1    2    0    0 -0.86543082428E+02 -0.16329128845E+02 -0.18538745034E+03  0.22084927531E+03  0.81544773573E+02 0.  0.
         25    2    1    2    0    0  0.13573868199E+03  0.41752197259E+02 -0.31959165728E+01  0.18927460579E+03  0.12508567764E+03 0.  0.
         24    2    1    2    0    0 -0.49195599557E+02 -0.25423068414E+02  0.16110006884E+04  0.16140232698E+04  0.81739574292E+02 0.  0.
        -11    1    5    5    0    0 -0.85285962572E+01  0.26652585339E+02  0.28308422758E+03  0.28446401735E+03  0.00000000000E+00 0.  1.
         12    1    5    5    0    0 -0.40667003300E+02 -0.52075653753E+02  0.13279164608E+04  0.13295592524E+04  0.00000000000E+00 0. -1.
         13    1    3    3    0    0 -0.10350128148E+02 -0.43967609925E+01  0.72281039368E+01  0.13367952215E+02  0.00000000000E+00 0. -1.
        -14    1    3    3    0    0 -0.76192954280E+02 -0.11932367852E+02 -0.19261555428E+03  0.20748132310E+03  0.00000000000E+00 0.  1.
          5    1    4    4  501    0  0.12629288929E+03 -0.34122232384E+01 -0.37241704266E+02  0.13177994571E+03  0.41800000000E+01 0.  1.
         -5    1    4    4    0  501  0.94457926910E+01  0.45164420497E+02  0.34045787693E+02  0.57494660083E+02  0.41800000000E+01 0.  1.
</event>
<event>
11    1  0.8328696E-009  0.1410015E+03  0.7561462E-02  0.1106445E+00
         22   -1    0    0    0    0  0.00000000000E+00  0.00000000000E+00  0.81897610254E+02  0.81897610254E+02  0.00000000000E+00 0. -1.
         22   -1    0    0    0    0 -0.00000000000E+00 -0.00000000000E+00 -0.83126216080E+03  0.83126216080E+03  0.00000000000E+00 0.  1.
        -24    2    1    2    0    0  0.36223038029E+02  0.44367576859E+02 -0.44848730728E+03  0.45936345603E+03  0.81199320093E+02 0.  0.
         25    2    1    2    0    0 -0.69549683556E+02 -0.58636331433E+02 -0.32738158068E+03  0.36207969866E+03  0.12509049111E+03 0.  0.
         24    2    1    2    0    0  0.33326645527E+02  0.14268754574E+02  0.26504337419E+02  0.91716616361E+02  0.79969964084E+02 0.  0.
        -11    1    5    5    0    0  0.91680012624E+01  0.44729538836E+02  0.26591808727E+02  0.52838510417E+02  0.00000000000E+00 0.  1.
         12    1    5    5    0    0  0.24158644264E+02 -0.30460784263E+02 -0.87471308502E-01  0.38878105944E+02  0.00000000000E+00 0. -1.
         13    1    3    3    0    0  0.51815486503E+02  0.28290292951E+02 -0.16965209523E+03  0.17963022779E+03  0.00000000000E+00 0. -1.
        -14    1    3    3    0    0 -0.15592448474E+02  0.16077283908E+02 -0.27883521204E+03  0.27973322824E+03  0.00000000000E+00 0.  1.
          5    1    4    4  501    0 -0.97191261077E+02 -0.69047844139E+02 -0.29416373988E+03  0.31743270826E+03  0.41800000000E+01 0.  1.
         -5    1    4    4    0  501  0.27641577522E+02  0.10411512706E+02 -0.33217840797E+02  0.44646990402E+02  0.41800000000E+01 0.  1.
</event>
<event>
11    1  0.8328696E-009  0.1442435E+03  0.7561462E-02  0.1102910E+00
         22   -1    0    0    0    0  0.00000000000E+00  0.00000000000E+00  0.58739723871E+03  0.58739723871E+03  0.00000000000E+00 0.  1.
         22   -1    0    0    0    0 -0.00000000000E+00 -0.00000000000E+00 -0.33062916404E+03  0.33062916404E+03  0.00000000000E+00 0. -1.
         24    2    1    2    0    0  0.69921110619E+02  0.23550864125E+02 -0.28199836852E+03  0.30477621040E+03  0.89004795729E+02 0.  0.
         25    2    1    2    0    0 -0.26070472712E+02 -0.59807963822E+02  0.12437236963E+03  0.18807822475E+03  0.12509304623E+03 0.  0.
        -24    2    1    2    0    0 -0.43850637908E+02  0.36257099697E+02  0.41439407356E+03  0.42517196760E+03  0.76231870686E+02 0.  0.
        -13    1    3    3    0    0  0.23248570066E+02 -0.14372086992E+02 -0.15180019467E+02  0.31264770679E+02  0.00000000000E+00 0.  1.
         14    1    3    3    0    0  0.46672540553E+02  0.37922951117E+02 -0.26681834906E+03  0.27351143972E+03  0.00000000000E+00 0. -1.
         13    1    5    5    0    0  0.11550269140E+02 -0.14190506202E+02  0.52342107194E+02  0.55447951891E+02  0.00000000000E+00 0. -1.
        -14    1    5    5    0    0 -0.55400907047E+02  0.50447605898E+02  0.36205196636E+03  0.36972401571E+03  0.00000000000E+00 0.  1.
          5    1    4    4  501    0  0.20969414624E+02  0.46634769789E+01 -0.15615494844E+02  0.26884576367E+02  0.41800000000E+01 0. -1.
         -5    1    4    4    0  501 -0.47039887335E+02 -0.64471440801E+02  0.13998786448E+03  0.16119364839E+03  0.41800000000E+01 0. -1.
</event>
<event>
11    1  0.8328696E-009  0.4551126E+03  0.7561462E-02  0.9499826E-01
         22   -1    0    0    0    0  0.00000000000E+00  0.00000000000E+00  0.29655600407E+03  0.29655600407E+03  0.00000000000E+00 0.  1.
         22   -1    0    0    0    0 -0.00000000000E+00 -0.00000000000E+00 -0.24908175896E+04  0.24908175896E+04  0.00000000000E+00 0.  1.
         24    2    1    2    0    0  0.39698955508E+03  0.12659060569E+03 -0.16997069936E+04  0.17519272925E+04  0.81360222159E+02 0.  0.
         25    2    1    2    0    0 -0.48126127210E+03 -0.17844076022E+03 -0.64783180859E+03  0.83593504423E+03  0.12509128276E+03 0.  0.
        -24    2    1    2    0    0  0.84271717019E+02  0.51850154526E+02  0.15327721660E+03  0.19951125702E+03  0.80750701151E+02 0.  0.
        -13    1    3    3    0    0  0.33701101968E+03  0.11623993003E+03 -0.15468498597E+04  0.15873980714E+04  0.00000000000E+00 0.  1.
         14    1    3    3    0    0  0.59978535403E+02  0.10350675667E+02 -0.15285713388E+03  0.16452922104E+03  0.00000000000E+00 0. -1.
         13    1    5    5    0    0  0.37129451724E+02  0.55308749271E+02  0.42363456742E+02  0.78945021365E+02  0.00000000000E+00 0. -1.
        -14    1    5    5    0    0  0.47142265296E+02 -0.34585947453E+01  0.11091375986E+03  0.12056623565E+03  0.00000000000E+00 0.  1.
          5    1    4    4  501    0 -0.32826770366E+03 -0.70252952054E+02 -0.46981166815E+03  0.57743886124E+03  0.41800000000E+01 0. -1.
         -5    1    4    4    0  501 -0.15299356844E+03 -0.10818780817E+03 -0.17802014044E+03  0.25849618300E+03  0.41800000000E+01 0. -1.
</event>
<event>
11    1  0.8328696E-009  0.1751387E+03  0.7561462E-02  0.1073644E+00
         22   -1    0    0    0    0  0.00000000000E+00  0.00000000000E+00  0.56334940465E+03  0.56334940465E+03  0.00000000000E+00 0.  1.
         22   -1    0    0    0    0 -0.00000000000E+00 -0.00000000000E+00 -0.21678023108E+03  0.21678023108E+03  0.00000000000E+00 0.  1.
        -24    2    1    2    0    0  0.30825967706E+01 -0.13177030325E+02 -0.47306380939E+02  0.94603164208E+02  0.80800547458E+02 0.  0.
         25    2    1    2    0    0 -0.39896911869E+01 -0.11039858900E+03 -0.83202259844E+02  0.18647281584E+03  0.12508288818E+03 0.  0.
         24    2    1    2    0    0  0.90709441632E+00  0.12357561932E+03  0.47707781435E+03  0.49905365568E+03  0.78610138007E+02 0.  0.
        -13    1    5    5    0    0 -0.57103591800E+01  0.54863255649E+02  0.35106578512E+03  0.35537272054E+03  0.00000000000E+00 0.  1.
         14    1    5    5    0    0  0.66174535963E+01  0.68712363674E+02  0.12601202923E+03  0.14368093515E+03  0.00000000000E+00 0. -1.
         11    1    3    3    0    0  0.13341983766E+02 -0.29071924681E+02  0.10589651243E+02  0.33694599699E+02  0.00000000000E+00 0. -1.
        -12    1    3    3    0    0 -0.10259386996E+02  0.15894894355E+02 -0.57896032182E+02  0.60908564508E+02  0.00000000000E+00 0.  1.
          5    1    4    4  501    0  0.69853873532E+01 -0.13719092338E+03 -0.65095485985E+02  0.15206919408E+03  0.41800000000E+01 0. -1.
         -5    1    4    4    0  501 -0.10975078540E+02  0.26792334378E+02 -0.18106773859E+02  0.34403621756E+02  0.41800000000E+01 0. -1.
</event>
<event>
11    1  0.8328696E-009  0.1411512E+03  0.7561462E-02  0.1106280E+00
         22   -1    0    0    0    0  0.00000000000E+00  0.00000000000E+00  0.77243874776E+03  0.77243874776E+03  0.00000000000E+00 0.  1.
         22   -1    0    0    0    0 -0.00000000000E+00 -0.00000000000E+00 -0.74889198916E+02  0.74889198916E+02  0.00000000000E+00 0. -1.
         24    2    1    2    0    0  0.40609024332E+02 -0.57611411637E+02  0.90087957487E+01  0.10443776006E+03  0.76537048011E+02 0.  0.
         25    2    1    2    0    0 -0.26512505388E+02  0.40616173806E+02  0.16484092464E+03  0.21253659774E+03  0.12508672363E+03 0.  0.
        -24    2    1    2    0    0 -0.14096518944E+02  0.16995237831E+02  0.52369982845E+03  0.53035358886E+03  0.80782850560E+02 0.  0.
        -11    1    3    3    0    0  0.34730665985E+02  0.46049047786E+01  0.20940098108E+02  0.40815585461E+02  0.00000000000E+00 0.  1.
         12    1    3    3    0    0  0.58783583472E+01 -0.62216316415E+02 -0.11931302359E+02  0.63622174602E+02  0.00000000000E+00 0. -1.
         11    1    5    5    0    0 -0.19443605669E+02 -0.25396214253E+02  0.35069819934E+03  0.35215372854E+03  0.00000000000E+00 0. -1.
        -12    1    5    5    0    0  0.53470867252E+01  0.42391452084E+02  0.17300162911E+03  0.17819986033E+03  0.00000000000E+00 0.  1.
          5    1    4    4  501    0  0.35072784971E+02  0.55222735226E+02  0.11290595147E+03  0.13055603015E+03  0.41800000000E+01 0.  1.
         -5    1    4    4    0  501 -0.61585290359E+02 -0.14606561420E+02  0.51934973171E+02  0.81980567597E+02  0.41800000000E+01 0.  1.
</event>
<event>
11    1  0.8328696E-009  0.1294545E+03  0.7561462E-02  0.1119941E+00
         22   -1    0    0    0    0  0.00000000000E+00  0.00000000000E+00  0.70412120005E+03  0.70412120005E+03  0.00000000000E+00 0. -1.
         22   -1    0    0    0    0 -0.00000000000E+00 -0.00000000000E+00 -0.13967920611E+04  0.13967920611E+04  0.00000000000E+00 0. -1.
         24    2    1    2    0    0  0.29190389529E+02  0.36832271563E+02 -0.12309079269E+04  0.12345390281E+04  0.82119379038E+02 0.  0.
         25    2    1    2    0    0 -0.31556152677E+02 -0.27834750798E+01 -0.13433525386E+03  0.18626942962E+03  0.12508717550E+03 0.  0.
        -24    2    1    2    0    0  0.23657631481E+01 -0.34048796483E+02  0.67257231969E+03  0.68010480341E+03  0.94995268411E+02 0.  0.
        -11    1    3    3    0    0  0.33702222480E+01  0.58545068066E+02 -0.64486162987E+03  0.64752251317E+03  0.00000000000E+00 0.  1.
         12    1    3    3    0    0  0.25820167281E+02 -0.21712796503E+02 -0.58604629700E+03  0.58701651492E+03  0.00000000000E+00 0. -1.
         13    1    5    5    0    0  0.23182057634E+02 -0.40452667259E+02  0.63475082492E+03  0.63646086747E+03  0.00000000000E+00 0. -1.
        -14    1    5    5    0    0 -0.20816294486E+02  0.64038707756E+01  0.37821494773E+02  0.43643935935E+02  0.00000000000E+00 0.  1.
          5    1    4    4  501    0  0.27254490761E+02  0.13746016769E+02  0.75621395235E+01  0.31724101214E+02  0.41800000000E+01 0. -1.
         -5    1    4    4    0  501 -0.58810643438E+02 -0.16529491848E+02 -0.14189739338E+03  0.15454532840E+03  0.41800000000E+01 0. -1.
</event>
<event>
11    1  0.8328696E-009  0.2261514E+03  0.7561462E-02  0.1037431E+00
         22   -1    0    0    0    0  0.00000000000E+00  0.00000000000E+00  0.53718246178E+03  0.53718246178E+03  0.00000000000E+00 0.  1.
         22   -1    0    0    0    0 -0.00000000000E+00 -0.00000000000E+00 -0.12219938906E+04  0.12219938906E+04  0.00000000000E+00 0. -1.
        -24    2    1    2    0    0  0.52811480978E+02  0.39122733102E+02 -0.99836324878E+03  0.10035174861E+04  0.77450161786E+02 0.  0.
         25    2    1    2    0    0 -0.22048006774E+03  0.39386518239E+02 -0.11572359450E+03  0.28142834383E+03  0.12508878566E+03 0.  0.
         24    2    1    2    0    0  0.16766858676E+03 -0.78509251341E+02  0.42927541447E+03  0.47423052248E+03  0.79628823030E+02 0.  0.
        -13    1    5    5    0    0  0.77605675836E+02 -0.19251785480E+02  0.27231918830E+03  0.28381510263E+03  0.00000000000E+00 0.  1.
         14    1    5    5    0    0  0.90062910924E+02 -0.59257465861E+02  0.15695622617E+03  0.19041541985E+03  0.00000000000E+00 0. -1.
         11    1    3    3    0    0  0.55765865431E+02  0.41984732711E+02 -0.47158237820E+03  0.47672055647E+03  0.00000000000E+00 0. -1.
        -12    1    3    3    0    0 -0.29543844526E+01 -0.28619996092E+01 -0.52678087058E+03  0.52679692960E+03  0.00000000000E+00 0.  1.
          5    1    4    4  501    0 -0.54189411576E+02 -0.23965782912E+02 -0.80393491199E+02  0.99957175354E+02  0.41800000000E+01 0.  1.
         -5    1    4    4    0  501 -0.16629065616E+03  0.63352301151E+02 -0.35330103300E+02  0.18147116847E+03  0.41800000000E+01 0.  1.
</event>
<event>
11    1  0.8328696E-009  0.1328565E+03  0.7561462E-02  0.1115808E+00
         22   -1    0    0    0    0  0.00000000000E+00  0.00000000000E+00  0.22271478278E+02  0.22271478278E+02  0.00000000000E+00 0. -1.
         22   -1    0    0    0    0 -0.00000000000E+00 -0.00000000000E+00 -0.23108529076E+04  0.23108529076E+04  0.00000000000E+00 0. -1.
         24    2    1    2    0    0 -0.19713142295E+02 -0.35115738919E+02 -0.15603056304E+04  0.15630003075E+04  0.82429230069E+02 0.  0.
         25    2    1    2    0    0  0.41390366591E+02  0.63875398436E+02 -0.56208510411E+03  0.58084466946E+03  0.12509051443E+03 0.  0.
        -24    2    1    2    0    0 -0.21677224296E+02 -0.28759659517E+02 -0.16619069475E+03  0.18927940884E+03  0.83128379742E+02 0.  0.
        -11    1    3    3    0    0 -0.32443844612E+02 -0.55687335720E+02 -0.12919140838E+04  0.12935206540E+04  0.00000000000E+00 0.  1.
         12    1    3    3    0    0  0.12730702316E+02  0.20571596800E+02 -0.26839154662E+03  0.26947965354E+03  0.00000000000E+00 0. -1.
         11    1    5    5    0    0 -0.85882665252E+01 -0.12554733845E+02  0.56157942742E+01  0.16214709654E+02  0.00000000000E+00 0. -1.
        -12    1    5    5    0    0 -0.13088957771E+02 -0.16204925672E+02 -0.17180648903E+03  0.17306469918E+03  0.00000000000E+00 0.  1.
          5    1    4    4  501    0  0.82452994294E+02  0.57002854230E+02 -0.32628562968E+03  0.34136140114E+03  0.41800000000E+01 0. -1.
         -5    1    4    4    0  501 -0.41062627702E+02  0.68725442067E+01 -0.23579947444E+03  0.23948326831E+03  0.41800000000E+01 0. -1.
</event>
<event>
11    1  0.8328696E-009  0.1828133E+03  0.7561462E-02  0.1067390E+00
         22   -1    0    0    0    0  0.00000000000E+00  0.00000000000E+00  0.20021538639E+04  0.20021538639E+04  0.00000000000E+00 0.  1.
         22   -1    0    0    0    0 -0.00000000000E+00 -0.00000000000E+00 -0.29084774976E+03  0.29084774976E+03  0.00000000000E+00 0.  1.
         24    2    1    2    0    0  0.12543082756E+03  0.35835479249E+02 -0.18712836706E+03  0.24204122116E+03  0.80931161521E+02 0.  0.
         25    2    1    2    0    0 -0.14330075743E+03 -0.30389956168E+02  0.48047287533E+02  0.19852917647E+03  0.12508651228E+03 0.  0.
        -24    2    1    2    0    0  0.17869929874E+02 -0.54455230804E+01  0.18503871937E+04  0.18524312160E+04  0.84968556205E+02 0.  0.
        -13    1    3    3    0    0  0.74286689060E+02  0.47450873969E+02 -0.16075601530E+03  0.18333737772E+03  0.00000000000E+00 0.  1.
         14    1    3    3    0    0  0.51144138500E+02 -0.11615394720E+02 -0.26372351755E+02  0.58703843439E+02  0.00000000000E+00 0. -1.
         11    1    5    5    0    0  0.32478159784E+02  0.25846357413E+02  0.54148677758E+03  0.54307531278E+03  0.00000000000E+00 0. -1.
        -12    1    5    5    0    0 -0.14608229910E+02 -0.31291880493E+02  0.13089004161E+04  0.13093559032E+04  0.00000000000E+00 0.  1.
          5    1    4    4  501    0 -0.12494712770E+03 -0.72313882079E+02  0.23169304135E+02  0.14627156701E+03  0.41800000000E+01 0.  1.
         -5    1    4    4    0  501 -0.18353629730E+02  0.41923925911E+02  0.24877983398E+02  0.52257609455E+02  0.41800000000E+01 0.  1.
</event>
<event>
11    1  0.8328696E-009  0.1299542E+03  0.7561462E-02  0.1119325E+00
         22   -1    0    0    0    0  0.00000000000E+00  0.00000000000E+00  0.65479741271E+03  0.65479741271E+03  0.00000000000E+00 0. -1.
         22   -1    0    0    0    0 -0.00000000000E+00 -0.00000000000E+00 -0.45753171788E+03  0.45753171788E+03  0.00000000000E+00 0. -1.
        -24    2    1    2    0    0  0.32552502096E+02  0.30433827850E+02 -0.43310892283E+03  0.44284493297E+03  0.80885180078E+02 0.  0.
         25    2    1    2    0    0  0.13114562130E+02 -0.19579727070E+02  0.29185446380E+03  0.31840438778E+03  0.12508784379E+03 0.  0.
         24    2    1    2    0    0 -0.45667064225E+02 -0.10854100780E+02  0.33852015386E+03  0.35107980983E+03  0.80360724500E+02 0.  0.
        -11    1    5    5    0    0  0.19237629035E+02 -0.13995584093E+02  0.14506814689E+03  0.14700588419E+03  0.00000000000E+00 0.  1.
         12    1    5    5    0    0 -0.64904693260E+02  0.31414833130E+01  0.19345200697E+03  0.20407392564E+03  0.00000000000E+00 0. -1.
         13    1    3    3    0    0  0.57765946576E+02  0.14566657308E+02 -0.33698644831E+03  0.34221186191E+03  0.00000000000E+00 0. -1.
        -14    1    3    3    0    0 -0.25213444481E+02  0.15867170542E+02 -0.96122474518E+02  0.10063307106E+03  0.00000000000E+00 0.  1.
          5    1    4    4  501    0 -0.40553781720E+02  0.22344590840E+02  0.55501926199E+02  0.72400456929E+02  0.41800000000E+01 0.  1.
         -5    1    4    4    0  501  0.53668343850E+02 -0.41924317910E+02  0.23635253760E+03  0.24600393085E+03  0.41800000000E+01 0.  1.
</event>
<event>
11    1  0.8328696E-009  0.2050412E+03  0.7561462E-02  0.1051015E+00
         22   -1    0    0    0    0  0.00000000000E+00  0.00000000000E+00  0.93175714856E+03  0.93175714856E+03  0.00000000000E+00 0.  1.
         22   -1    0    0    0    0 -0.00000000000E+00 -0.00000000000E+00 -0.62475883015E+03  0.62475883015E+03  0.00000000000E+00 0. -1.
        -24    2    1    2    0    0  0.15254222708E+03  0.18585993811E+02 -0.42273558969E+03  0.45736473453E+03  0.82840517838E+02 0.  0.
         25    2    1    2    0    0 -0.19601634850E+03 -0.63076853672E+02 -0.10179531031E+03  0.26155406244E+03  0.12508854476E+03 0.  0.
         24    2    1    2    0    0  0.43474121425E+02  0.44490859861E+02  0.83152921841E+03  0.83759718173E+03  0.79112337368E+02 0.  0.
        -11    1    5    5    0    0  0.23730268881E+02  0.55278580857E+02  0.76510075635E+03  0.76746206065E+03  0.00000000000E+00 0.  1.
         12    1    5    5    0    0  0.19743852543E+02 -0.10787720996E+02  0.66428462056E+02  0.70135121078E+02  0.00000000000E+00 0. -1.
         13    1    3    3    0    0  0.13179270136E+03 -0.44271519101E+01 -0.39254694264E+03  0.41410387342E+03  0.00000000000E+00 0. -1.
        -14    1    3    3    0    0  0.20749525719E+02  0.23013145721E+02 -0.30188647052E+02  0.43260861115E+02  0.00000000000E+00 0.  1.
          5    1    4    4  501    0 -0.51921921901E+01  0.21344066254E+02  0.10334743932E+02  0.24633460092E+02  0.41800000000E+01 0.  1.
         -5    1    4    4    0  501 -0.19082415631E+03 -0.84420919926E+02 -0.11213005424E+03  0.23692060235E+03  0.41800000000E+01 0.  1.
</event>
<event>
11    1  0.8328696E-009  0.1824730E+03  0.7561462E-02  0.1067660E+00
         22   -1    0    0    0    0  0.00000000000E+00  0.00000000000E+00  0.81754281943E+03  0.81754281943E+03  0.00000000000E+00 0. -1.
         22   -1    0    0    0    0 -0.00000000000E+00 -0.00000000000E+00 -0.40151416106E+03  0.40151416106E+03  0.00000000000E+00 0.  1.
        -24    2    1    2    0    0  0.12842087509E+03  0.34054144257E+02 -0.25961712252E+03  0.30280974384E+03  0.81492850947E+02 0.  0.
         25    2    1    2    0    0 -0.13077085719E+03 -0.24627889325E+02 -0.47444184127E+02  0.18869851177E+03  0.12509447515E+03 0.  0.
         24    2    1    2    0    0  0.23499821050E+01 -0.94262549317E+01  0.72308996502E+03  0.72754872488E+03  0.79835285858E+02 0.  0.
        -11    1    5    5    0    0 -0.11194147171E+02  0.54404536603E+01  0.16476063327E+02  0.20648683486E+02  0.00000000000E+00 0.  1.
         12    1    5    5    0    0  0.13544129276E+02 -0.14866708592E+02  0.70661390169E+03  0.70690004140E+03  0.00000000000E+00 0. -1.
         11    1    3    3    0    0  0.74020625071E+02  0.57718054964E+02 -0.18530722638E+03  0.20772384300E+03  0.00000000000E+00 0. -1.
        -12    1    3    3    0    0  0.54400250016E+02 -0.23663910707E+02 -0.74309896145E+02  0.95085900831E+02  0.00000000000E+00 0.  1.
          5    1    4    4  501    0 -0.89969337074E+02 -0.62018564114E+02  0.87672350077E+01  0.10970469779E+03  0.41800000000E+01 0.  1.
         -5    1    4    4    0  501 -0.40801520118E+02  0.37390674789E+02 -0.56211419134E+02  0.78993813974E+02  0.41800000000E+01 0.  1.
</event>
<event>
11    1  0.8328696E-009  0.1345246E+03  0.7561462E-02  0.1113831E+00
         22   -1    0    0    0    0  0.00000000000E+00  0.00000000000E+00  0.10248183477E+04  0.10248183477E+04  0.00000000000E+00 0. -1.
         22   -1    0    0    0    0 -0.00000000000E+00 -0.00000000000E+00 -0.69392723826E+02  0.69392723826E+02  0.00000000000E+00 0.  1.
         24    2    1    2    0    0  0.17884563727E+02 -0.51883409608E+02  0.22273327971E+01  0.10105592124E+03  0.84826837697E+02 0.  0.
         25    2    1    2    0    0 -0.18402744270E+02  0.19626526577E+02  0.21738726183E+03  0.25225475754E+03  0.12510547371E+03 0.  0.
        -24    2    1    2    0    0  0.51818054325E+00  0.32256883031E+02  0.73581102928E+03  0.74090039278E+03  0.80465807669E+02 0.  0.
        -13    1    3    3    0    0  0.30543481857E+02 -0.54649736410E+02 -0.27687708513E+02  0.68455147187E+02  0.00000000000E+00 0.  1.
         14    1    3    3    0    0 -0.12658918130E+02  0.27663268021E+01  0.29915041310E+02  0.32600774052E+02  0.00000000000E+00 0. -1.
         13    1    5    5    0    0  0.60427671087E+01  0.33556895737E+02  0.73421290842E+03  0.73500420079E+03  0.00000000000E+00 0. -1.
        -14    1    5    5    0    0 -0.55245865654E+01 -0.13000127065E+01  0.15981208582E+01  0.58961919943E+01  0.00000000000E+00 0.  1.
          5    1    4    4  501    0 -0.35768024135E+02  0.62731721683E+02  0.83516679384E+02  0.11048587508E+03  0.41800000000E+01 0.  1.
         -5    1    4    4    0  501  0.17365279865E+02 -0.43105195105E+02  0.13387058245E+03  0.14176888246E+03  0.41800000000E+01 0.  1.
</event>
<event>
11    1  0.8328696E-009  0.1401720E+03  0.7561462E-02  0.1107366E+00
         22   -1    0    0    0    0  0.00000000000E+00  0.00000000000E+00  0.12432788720E+04  0.12432788720E+04  0.00000000000E+00 0.  1.
         22   -1    0    0    0    0 -0.00000000000E+00 -0.00000000000E+00 -0.56090999093E+02  0.56090999093E+02  0.00000000000E+00 0. -1.
         24    2    1    2    0    0  0.32636788125E+02 -0.22664447024E+02  0.19885562768E+02  0.93600739726E+02  0.82382193298E+02 0.  0.
         25    2    1    2    0    0  0.24919921038E+02 -0.18690349470E+02  0.25172896622E+03  0.28281656064E+03  0.12508957955E+03 0.  0.
        -24    2    1    2    0    0 -0.57556709163E+02  0.41354796495E+02  0.91557334391E+03  0.92295257071E+03  0.92433250201E+02 0.  0.
        -11    1    3    3    0    0  0.58552036232E+02 -0.12714309748E+02  0.25771269253E+02  0.65223867857E+02  0.00000000000E+00 0.  1.
         12    1    3    3    0    0 -0.25915248107E+02 -0.99501372769E+01 -0.58857064843E+01  0.28376871869E+02  0.00000000000E+00 0. -1.
         11    1    5    5    0    0  0.21675471517E+02 -0.69531972947E+01  0.13854407430E+03  0.14040168639E+03  0.00000000000E+00 0. -1.
        -12    1    5    5    0    0 -0.79232180680E+02  0.48307993789E+02  0.77702926961E+03  0.78255088432E+03  0.00000000000E+00 0.  1.
          5    1    4    4  501    0  0.40623940224E+01 -0.41761862427E+02  0.16145313211E+02  0.45151962717E+02  0.41800000000E+01 0. -1.
         -5    1    4    4    0  501  0.20857527015E+02  0.23071512956E+02  0.23558365300E+03  0.23766459792E+03  0.41800000000E+01 0. -1.
</event>
<event>
11    1  0.8328696E-009  0.1559437E+03  0.7561462E-02  0.1090956E+00
         22   -1    0    0    0    0  0.00000000000E+00  0.00000000000E+00  0.31588256427E+03  0.31588256427E+03  0.00000000000E+00 0. -1.
         22   -1    0    0    0    0 -0.00000000000E+00 -0.00000000000E+00 -0.24573801583E+03  0.24573801583E+03  0.00000000000E+00 0. -1.
        -24    2    1    2    0    0 -0.30141225023E+01 -0.17601173276E+02 -0.15170613090E+03  0.17359727760E+03  0.82476532442E+02 0.  0.
         25    2    1    2    0    0 -0.55133467478E+02 -0.59603671224E+02  0.21750536605E+02  0.15070916856E+03  0.12509144969E+03 0.  0.
         24    2    1    2    0    0  0.58147589980E+02  0.77204844500E+02  0.20010014273E+03  0.23731413393E+03  0.83283856825E+02 0.  0.
        -13    1    5    5    0    0 -0.10847520798E+02  0.18384392977E+01  0.74934851685E+02  0.75738237130E+02  0.00000000000E+00 0.  1.
         14    1    5    5    0    0  0.68995110778E+02  0.75366405202E+02  0.12516529105E+03  0.16157589680E+03  0.00000000000E+00 0. -1.
         13    1    3    3    0    0  0.19286718136E+02 -0.21652267948E+02 -0.14777512250E+03  0.15059311084E+03  0.00000000000E+00 0. -1.
        -14    1    3    3    0    0 -0.22300840638E+02  0.40510946715E+01 -0.39310083971E+01  0.23004166758E+02  0.00000000000E+00 0.  1.
          5    1    4    4  501    0 -0.78588271108E+02 -0.23253160715E+02 -0.26055386563E+02  0.86099833960E+02  0.41800000000E+01 0. -1.
         -5    1    4    4    0  501  0.23454803630E+02 -0.36350510508E+02  0.47805923167E+02  0.64609334600E+02  0.41800000000E+01 0. -1.
</event>
<event>
11    1  0.8328696E-009  0.1385674E+03  0.7561462E-02  0.1109169E+00
         22   -1    0    0    0    0  0.00000000000E+00  0.00000000000E+00  0.29208873293E+04  0.29208873293E+04  0.00000000000E+00 0. -1.
         22   -1    0    0    0    0 -0.00000000000E+00 -0.00000000000E+00 -0.37516339051E+02  0.37516339051E+02  0.00000000000E+00 0. -1.
        -24    2    1    2    0    0 -0.32791886164E+02 -0.27851844069E+01  0.23519985115E+02  0.73281892011E+02  0.61106308565E+02 0.  0.
         25    2    1    2    0    0  0.65829064602E+02  0.50236469511E+02  0.47402375864E+03  0.49719637583E+03  0.12509413961E+03 0.  0.
         24    2    1    2    0    0 -0.33037178439E+02 -0.47451285104E+02  0.23858272465E+04  0.23879254005E+04  0.81688363248E+02 0.  0.
        -13    1    5    5    0    0 -0.49488167195E+01  0.11862094286E+02  0.70111812005E+02  0.71280195359E+02  0.00000000000E+00 0.  1.
         14    1    5    5    0    0 -0.28088361719E+02 -0.59313379389E+02  0.23157154345E+04  0.23166452051E+04  0.00000000000E+00 0. -1.
         13    1    3    3    0    0 -0.47981844996E+02  0.73242122070E+01  0.77248637056E+01  0.49148500008E+02  0.00000000000E+00 0. -1.
        -14    1    3    3    0    0  0.15189958833E+02 -0.10109396614E+02  0.15795121409E+02  0.24133392003E+02  0.00000000000E+00 0.  1.
          5    1    4    4  501    0  0.64993999095E+02  0.12196483075E+02  0.92644821777E+02  0.11390131483E+03  0.41800000000E+01 0.  1.
         -5    1    4    4    0  501  0.83506550689E+00  0.38039986436E+02  0.38137893686E+03  0.38329506100E+03  0.41800000000E+01 0.  1.
</event>
<event>
11    1  0.8328696E-009  0.1451360E+03  0.7561462E-02  0.1101955E+00
         22   -1    0    0    0    0  0.00000000000E+00  0.00000000000E+00  0.57378442476E+03  0.57378442476E+03  0.00000000000E+00 0. -1.
         22   -1    0    0    0    0 -0.00000000000E+00 -0.00000000000E+00 -0.54881021714E+03  0.54881021714E+03  0.00000000000E+00 0. -1.
        -24    2    1    2    0    0 -0.20974506046E+02 -0.66738071762E+02 -0.41406358447E+03  0.42737971153E+03  0.79440957412E+02 0.  0.
         25    2    1    2    0    0  0.11812825818E+02  0.10375150416E+03 -0.71694169492E+02  0.17801516674E+03  0.12508168603E+03 0.  0.
         24    2    1    2    0    0  0.91616802282E+01 -0.37013432397E+02  0.51073196159E+03  0.51719976364E+03  0.72073076532E+02 0.  0.
        -11    1    5    5    0    0 -0.31178701585E+02 -0.97513660576E+01  0.22221645439E+03  0.22460488235E+03  0.00000000000E+00 0.  1.
         12    1    5    5    0    0  0.40340381813E+02 -0.27262066339E+02  0.28851550719E+03  0.29259488129E+03  0.00000000000E+00 0. -1.
         11    1    3    3    0    0  0.20812384276E+02 -0.61183018738E+01 -0.19653742142E+03  0.19773099649E+03  0.00000000000E+00 0. -1.
        -12    1    3    3    0    0 -0.41786890322E+02 -0.60619769888E+02 -0.21752616305E+03  0.22964871503E+03  0.00000000000E+00 0.  1.
          5    1    4    4  501    0 -0.80201817916E+01 -0.15914064348E+02 -0.51910727170E+02  0.55043407919E+02  0.41800000000E+01 0.  1.
         -5    1    4    4    0  501  0.19833007610E+02  0.11966556851E+03 -0.19783442322E+02  0.12297175882E+03  0.41800000000E+01 0.  1.
</event>
<event>
11    1  0.8328696E-009  0.2353854E+03  0.7561462E-02  0.1031986E+00
         22   -1    0    0    0    0  0.00000000000E+00  0.00000000000E+00  0.68296917862E+02  0.68296917862E+02  0.00000000000E+00 0. -1.
         22   -1    0    0    0    0 -0.00000000000E+00 -0.00000000000E+00 -0.20333166375E+04  0.20333166375E+04  0.00000000000E+00 0. -1.
        -24    2    1    2    0    0  0.41909586169E+02  0.46354491706E+02 -0.11048047240E+04  0.11106440201E+04  0.95034251690E+02 0.  0.
         25    2    1    2    0    0 -0.18657514953E+03 -0.15609517974E+03 -0.62900048384E+03  0.68590443164E+03  0.12508912468E+03 0.  0.
         24    2    1    2    0    0  0.14466556336E+03  0.10974068803E+03 -0.23121451182E+03  0.30506510360E+03  0.81445829383E+02 0.  0.
        -13    1    5    5    0    0  0.36786887544E+02 -0.50500187575E+01 -0.21941320024E+02  0.43130027927E+02  0.00000000000E+00 0.  1.
         14    1    5    5    0    0  0.10787867582E+03  0.11479070679E+03 -0.20927319180E+03  0.26193507567E+03  0.00000000000E+00 0. -1.
         11    1    3    3    0    0  0.23029766991E+02  0.66222288041E+02 -0.99512035001E+03  0.99758722556E+03  0.00000000000E+00 0. -1.
        -12    1    3    3    0    0  0.18879819178E+02 -0.19867796334E+02 -0.10968437398E+03  0.11305679457E+03  0.00000000000E+00 0.  1.
          5    1    4    4  501    0  0.27052292503E+01  0.12534136403E+02 -0.80754056659E+02  0.81872540620E+02  0.41800000000E+01 0.  1.
         -5    1    4    4    0  501 -0.18928037878E+03 -0.16862931614E+03 -0.54824642718E+03  0.60403189102E+03  0.41800000000E+01 0.  1.
</event>
<event>
11    1  0.8328696E-009  0.6708138E+03  0.7561462E-02  0.9076456E-01
         22   -1    0    0    0    0  0.00000000000E+00  0.00000000000E+00  0.49590729187E+03  0.49590729187E+03  0.00000000000E+00 0. -1.
         22   -1    0    0    0    0 -0.00000000000E+00 -0.00000000000E+00 -0.12337624044E+04  0.12337624044E+04  0.00000000000E+00 0.  1.
         24    2    1    2    0    0 -0.54883104189E+03  0.33555958553E+03 -0.33782727845E+03  0.73105116344E+03  0.80577822722E+02 0.  0.
         25    2    1    2    0    0  0.60239080610E+03 -0.30238285334E+03 -0.50408376926E+03  0.85091593072E+03  0.12508957379E+03 0.  0.
        -24    2    1    2    0    0 -0.53559764203E+02 -0.33176732199E+02  0.10405593519E+03  0.14770260209E+03  0.83779932645E+02 0.  0.
        -13    1    3    3    0    0 -0.14968099482E+03  0.77746609253E+02 -0.51839858937E+02  0.17645482831E+03  0.00000000000E+00 0.  1.
         14    1    3    3    0    0 -0.39915004708E+03  0.25781297628E+03 -0.28598741951E+03  0.55459633513E+03  0.00000000000E+00 0. -1.
         13    1    5    5    0    0 -0.36380322980E+02 -0.54911898499E+02  0.37936088689E+02  0.76013099673E+02  0.00000000000E+00 0. -1.
        -14    1    5    5    0    0 -0.17179441224E+02  0.21735166300E+02  0.66119846505E+02  0.71689502417E+02  0.00000000000E+00 0.  1.
          5    1    4    4  501    0  0.41964742565E+03 -0.24122487432E+03 -0.29652224285E+03  0.56765862519E+03  0.41800000000E+01 0.  1.
         -5    1    4    4    0  501  0.18274338045E+03 -0.61157979011E+02 -0.20756152641E+03  0.28325730554E+03  0.41800000000E+01 0.  1.
</event>
<event>
11    1  0.8328696E-009  0.1451872E+03  0.7561462E-02  0.1101900E+00
         22   -1    0    0    0    0  0.00000000000E+00  0.00000000000E+00  0.10858284939E+04  0.10858284939E+04  0.00000000000E+00 0.  1.
         22   -1    0    0    0    0 -0.00000000000E+00 -0.00000000000E+00 -0.94964985704E+02  0.94964985704E+02  0.00000000000E+00 0.  1.
         24    2    1    2    0    0 -0.16483387546E+01 -0.12371235543E+02 -0.26507645010E+02  0.84432833491E+02  0.79186385432E+02 0.  0.
         25    2    1    2    0    0 -0.11497555545E+02 -0.61202685529E+02  0.98550028061E+02  0.17098820266E+03  0.12508754902E+03 0.  0.
        -24    2    1    2    0    0  0.13145894299E+02  0.73573921072E+02  0.91882112512E+03  0.92537244343E+03  0.80597535246E+02 0.  0.
        -11    1    3    3    0    0  0.12407799582E+02 -0.33724701168E+02 -0.41421098980E+02  0.54836269020E+02  0.00000000000E+00 0.  1.
         12    1    3    3    0    0 -0.14056138336E+02  0.21353465625E+02  0.14913453971E+02  0.29596564471E+02  0.00000000000E+00 0. -1.
         13    1    5    5    0    0 -0.23088778056E+02  0.18891575536E+01  0.36768026930E+03  0.36840933894E+03  0.00000000000E+00 0. -1.
        -14    1    5    5    0    0  0.36234672355E+02  0.71684763518E+02  0.55114085582E+03  0.55696310449E+03  0.00000000000E+00 0.  1.
          5    1    4    4  501    0 -0.56561067619E+02 -0.72156817692E+02  0.76440398464E+02  0.11944190063E+03  0.41800000000E+01 0.  1.
         -5    1    4    4    0  501  0.45063512074E+02  0.10954132163E+02  0.22109629596E+02  0.51546302028E+02  0.41800000000E+01 0.  1.
</event>
<event>
11    1  0.8328696E-009  0.1504054E+04  0.7561462E-02  0.8307681E-01
         22   -1    0    0    0    0  0.00000000000E+00  0.00000000000E+00  0.53818643138E+03  0.53818643138E+03  0.00000000000E+00 0. -1.
         22   -1    0    0    0    0 -0.00000000000E+00 -0.00000000000E+00 -0.10508336983E+04  0.10508336983E+04  0.00000000000E+00 0. -1.
        -24    2    1    2    0    0 -0.37661931652E+03 -0.96536203581E+02 -0.29626393818E+03  0.49516981997E+03  0.79116884182E+02 0.  0.
         25    2    1    2    0    0  0.68358291525E+03 -0.97283160439E+02 -0.14846215894E+03  0.71724102490E+03  0.12507621613E+03 0.  0.
         24    2    1    2    0    0 -0.30696359872E+03  0.19381936402E+03 -0.67921169761E+02  0.37660928477E+03  0.73679517278E+02 0.  0.
        -13    1    5    5    0    0 -0.44098347670E+01  0.66311266082E+01  0.96103472745E+01  0.12481075975E+02  0.00000000000E+00 0.  1.
         14    1    5    5    0    0 -0.30255376395E+03  0.18718823741E+03 -0.77531517035E+02  0.36412820880E+03  0.00000000000E+00 0. -1.
         11    1    3    3    0    0 -0.61403686925E+02  0.12812292137E+02 -0.55136855063E+02  0.83514312450E+02  0.00000000000E+00 0. -1.
        -12    1    3    3    0    0 -0.31521562960E+03 -0.10934849572E+03 -0.24112708312E+03  0.41165550752E+03  0.00000000000E+00 0.  1.
          5    1    4    4  501    0  0.24756780640E+02 -0.25589128850E+02 -0.23413713514E+02  0.42817941140E+02  0.41800000000E+01 0.  1.
         -5    1    4    4    0  501  0.65882613460E+03 -0.71694031588E+02 -0.12504844542E+03  0.67442308376E+03  0.41800000000E+01 0.  1.
</event>
<event>
11    1  0.8328696E-009  0.1380248E+03  0.7561462E-02  0.1109784E+00
         22   -1    0    0    0    0  0.00000000000E+00  0.00000000000E+00  0.58741083123E+03  0.58741083123E+03  0.00000000000E+00 0. -1.
         22   -1    0    0    0    0 -0.00000000000E+00 -0.00000000000E+00 -0.15433339551E+04  0.15433339551E+04  0.00000000000E+00 0.  1.
         24    2    1    2    0    0  0.30546644758E+02 -0.26750578546E+02 -0.15166850382E+04  0.15193935384E+04  0.81083465425E+02 0.  0.
         25    2    1    2    0    0 -0.75691737054E+02  0.79158880381E+00  0.31091957966E+03  0.34358030098E+03  0.12508626040E+03 0.  0.
        -24    2    1    2    0    0  0.45145092297E+02  0.25958989743E+02  0.24984233471E+03  0.26777094695E+03  0.81044057843E+02 0.  0.
        -11    1    3    3    0    0  0.40300805162E+02 -0.97805637481E+01 -0.14267748104E+04  0.14273773762E+04  0.00000000000E+00 0.  1.
         12    1    3    3    0    0 -0.97541604038E+01 -0.16970014798E+02 -0.89910227787E+02  0.92016162211E+02  0.00000000000E+00 0. -1.
         11    1    5    5    0    0  0.10862218279E+02 -0.29110818475E+02  0.92582559182E+02  0.97657348945E+02  0.00000000000E+00 0. -1.
        -12    1    5    5    0    0  0.34282874018E+02  0.55069808218E+02  0.15725977553E+03  0.17011359801E+03  0.00000000000E+00 0.  1.
          5    1    4    4  501    0  0.33772032757E+02  0.98297891968E+01  0.92824090505E+02  0.99352700669E+02  0.41800000000E+01 0.  1.
         -5    1    4    4    0  501 -0.10946376981E+03 -0.90382003929E+01  0.21809548915E+03  0.24422760031E+03  0.41800000000E+01 0.  1.
</event>
<event>
11    1  0.8328696E-009  0.1728673E+03  0.7561462E-02  0.1075563E+00
         22   -1    0    0    0    0  0.00000000000E+00  0.00000000000E+00  0.18556047061E+03  0.18556047061E+03  0.00000000000E+00 0.  1.
         22   -1    0    0    0    0 -0.00000000000E+00 -0.00000000000E+00 -0.79186543467E+03  0.79186543467E+03  0.00000000000E+00 0. -1.
         24    2    1    2    0    0 -0.40445455608E+02  0.63044067962E+02 -0.62540930340E+03  0.63502682638E+03  0.80696245629E+02 0.  0.
         25    2    1    2    0    0  0.40547099683E+02  0.74222845737E+02 -0.64056849481E+02  0.16402849388E+03  0.12509583813E+03 0.  0.
        -24    2    1    2    0    0 -0.10164407515E+00 -0.13726691370E+03  0.83161188817E+02  0.17837058501E+03  0.77833581085E+02 0.  0.
        -13    1    3    3    0    0  0.19361687456E+02  0.37192970254E+02 -0.17641077527E+03  0.18132554594E+03  0.00000000000E+00 0.  1.
         14    1    3    3    0    0 -0.59807143064E+02  0.25851097708E+02 -0.44899852813E+03  0.45370128044E+03  0.00000000000E+00 0. -1.
         13    1    5    5    0    0 -0.25370359680E+01 -0.52479552730E+02 -0.87902059448E+01  0.53271077770E+02  0.00000000000E+00 0. -1.
        -14    1    5    5    0    0  0.24353918929E+01 -0.84787360969E+02  0.91951394762E+02  0.12509950724E+03  0.00000000000E+00 0.  1.
          5    1    4    4  501    0 -0.41414423170E+02  0.47460651259E+02 -0.38757008414E+02  0.74075947281E+02  0.41800000000E+01 0.  1.
         -5    1    4    4    0  501  0.81961522854E+02  0.26762194478E+02 -0.25299841068E+02  0.89952546600E+02  0.41800000000E+01 0.  1.
</event>
<event>
11    1  0.8328696E-009  0.2063150E+03  0.7561462E-02  0.1050146E+00
         22   -1    0    0    0    0  0.00000000000E+00  0.00000000000E+00  0.12362417695E+04  0.12362417695E+04  0.00000000000E+00 0.  1.
         22   -1    0    0    0    0 -0.00000000000E+00 -0.00000000000E+00 -0.32421579538E+03  0.32421579538E+03  0.00000000000E+00 0. -1.
         24    2    1    2    0    0 -0.16695439324E+02 -0.12425465214E+03 -0.51393724099E+02  0.15731307639E+03  0.79925795925E+02 0.  0.
         25    2    1    2    0    0 -0.32961174885E+02  0.22113300149E+03 -0.13973674524E+03  0.29182221292E+03  0.12509037767E+03 0.  0.
        -24    2    1    2    0    0  0.49656614209E+02 -0.96878349347E+02  0.11031564435E+04  0.11113222756E+04  0.78942178243E+02 0.  0.
        -11    1    3    3    0    0 -0.31437417852E+02 -0.13973781112E+02 -0.26176098049E+02  0.43229225170E+02  0.00000000000E+00 0.  1.
         12    1    3    3    0    0  0.14741978528E+02 -0.11028087103E+03 -0.25217626051E+02  0.11408385122E+03  0.00000000000E+00 0. -1.
         13    1    5    5    0    0  0.53255865481E+02 -0.55890647243E+02  0.42754302051E+03  0.43445711646E+03  0.00000000000E+00 0. -1.
        -14    1    5    5    0    0 -0.35992512722E+01 -0.40987702104E+02  0.67561342295E+03  0.67686515910E+03  0.00000000000E+00 0.  1.
          5    1    4    4  501    0  0.66192792806E+01 -0.12283378656E+02 -0.24456012397E+02  0.28465157504E+02  0.41800000000E+01 0. -1.
         -5    1    4    4    0  501 -0.39580454166E+02  0.23341638015E+03 -0.11528073284E+03  0.26335705541E+03  0.41800000000E+01 0. -1.
</event>
<event>
11    1  0.8328696E-009  0.1562861E+03  0.7561462E-02  0.1090623E+00
         22   -1    0    0    0    0  0.00000000000E+00  0.00000000000E+00  0.12097321174E+03  0.12097321174E+03  0.00000000000E+00 0.  1.
         22   -1    0    0    0    0 -0.00000000000E+00 -0.00000000000E+00 -0.28507532329E+04  0.28507532329E+04  0.00000000000E+00 0.  1.
        -24    2    1    2    0    0  0.91624115046E+02 -0.12444277640E+02 -0.26313277383E+04  0.26341985682E+04  0.81034512031E+02 0.  0.
         25    2    1    2    0    0 -0.14396055038E+03  0.75815490941E+02 -0.81691684144E+02  0.22089191713E+03  0.12508828508E+03 0.  0.
         24    2    1    2    0    0  0.52336435333E+02 -0.63371213301E+02 -0.16760598792E+02  0.11663595934E+03  0.81043298306E+02 0.  0.
        -13    1    5    5    0    0  0.12485960399E+02 -0.15763724679E+02  0.31930332869E+02  0.37735134556E+02  0.00000000000E+00 0.  1.
         14    1    5    5    0    0  0.39850474934E+02 -0.47607488623E+02 -0.48690931660E+02  0.78900824782E+02  0.00000000000E+00 0. -1.
         13    1    3    3    0    0  0.48166967423E+02 -0.30322405041E+02 -0.70365345768E+03  0.70595162263E+03  0.00000000000E+00 0. -1.
        -14    1    3    3    0    0  0.43457147623E+02  0.17878127402E+02 -0.19276742806E+04  0.19282469456E+04  0.00000000000E+00 0.  1.
          5    1    4    4  501    0 -0.32961888922E+02 -0.22545791744E+02 -0.58152380368E+02  0.70668030885E+02  0.41800000000E+01 0.  1.
         -5    1    4    4    0  501 -0.11099866146E+03  0.98361282684E+02 -0.23539303775E+02  0.15022388625E+03  0.41800000000E+01 0.  1.
</event>
<event>
11    1  0.8328696E-009  0.1349354E+03  0.7561462E-02  0.1113349E+00
         22   -1    0    0    0    0  0.00000000000E+00  0.00000000000E+00  0.80819800038E+02  0.80819800038E+02  0.00000000000E+00 0.  1.
         22   -1    0    0    0    0 -0.00000000000E+00 -0.00000000000E+00 -0.94973696238E+03  0.94973696238E+03  0.00000000000E+00 0.  1.
        -24    2    1    2    0    0  0.78400118983E+01 -0.28855446136E+02 -0.61599980720E+03  0.62209603113E+03  0.81569644646E+02 0.  0.
         25    2    1    2    0    0  0.42967542424E+01 -0.23688276596E+02 -0.27999430674E+03  0.30761043442E+03  0.12509105087E+03 0.  0.
         24    2    1    2    0    0 -0.12136766141E+02  0.52543722732E+02  0.27076951597E+02  0.10085029687E+03  0.80805180404E+02 0.  0.
        -13    1    5    5    0    0 -0.29457144347E+02  0.61594091488E+02  0.38330494781E+02  0.78299312190E+02  0.00000000000E+00 0.  1.
         14    1    5    5    0    0  0.17320378206E+02 -0.90503687563E+01 -0.11253543184E+02  0.22550984680E+02  0.00000000000E+00 0. -1.
         13    1    3    3    0    0  0.17521032863E+02  0.22238322240E+02 -0.11624669249E+03  0.11964456981E+03  0.00000000000E+00 0. -1.
        -14    1    3    3    0    0 -0.96810209645E+01 -0.51093768375E+02 -0.49975311471E+03  0.50245146133E+03  0.00000000000E+00 0.  1.
          5    1    4    4  501    0 -0.30023583983E+02 -0.42854446371E+02 -0.25608904454E+03  0.26141344706E+03  0.41800000000E+01 0.  1.
         -5    1    4    4    0  501  0.34320338226E+02  0.19166169775E+02 -0.23905262197E+02  0.46196987353E+02  0.41800000000E+01 0.  1.
</event>
<event>
11    1  0.8328696E-009  0.1506556E+03  0.7561462E-02  0.1096211E+00
         22   -1    0    0    0    0  0.00000000000E+00  0.00000000000E+00  0.23197238956E+04  0.23197238956E+04  0.00000000000E+00 0. -1.
         22   -1    0    0    0    0 -0.00000000000E+00 -0.00000000000E+00 -0.16550314894E+04  0.16550314894E+04  0.00000000000E+00 0. -1.
         24    2    1    2    0    0 -0.96943244603E+01  0.69323776461E+02 -0.15627264921E+04  0.15664177754E+04  0.81552388492E+02 0.  0.
         25    2    1    2    0    0  0.26147760035E+02  0.14124345310E+02 -0.42483653560E+02  0.13541523963E+03  0.12509685775E+03 0.  0.
        -24    2    1    2    0    0 -0.16453435575E+02 -0.83448121771E+02  0.22699025518E+04  0.22729223700E+04  0.80524536783E+02 0.  0.
        -13    1    3    3    0    0 -0.32365304206E+02  0.23153218273E+02 -0.29793974904E+03  0.30058555935E+03  0.00000000000E+00 0.  1.
         14    1    3    3    0    0  0.22670979745E+02  0.46170558188E+02 -0.12647867430E+04  0.12658322160E+04  0.00000000000E+00 0. -1.
         13    1    5    5    0    0 -0.22914210941E+02 -0.24487182848E+02  0.16126975828E+04  0.16130462413E+04  0.00000000000E+00 0. -1.
        -14    1    5    5    0    0  0.64607753658E+01 -0.58960938923E+02  0.65720496897E+03  0.65987612866E+03  0.00000000000E+00 0.  1.
          5    1    4    4  501    0  0.68468208185E+02  0.20402371462E+02  0.45331952145E+01  0.71708957266E+02  0.41800000000E+01 0.  1.
         -5    1    4    4    0  501 -0.42320448150E+02 -0.62780261523E+01 -0.47016848774E+02  0.63706282364E+02  0.41800000000E+01 0.  1.
</event>
<event>
11    1  0.8328696E-009  0.2110726E+03  0.7561462E-02  0.1046959E+00
         22   -1    0    0    0    0  0.00000000000E+00  0.00000000000E+00  0.13951848366E+04  0.13951848366E+04  0.00000000000E+00 0. -1.
         22   -1    0    0    0    0 -0.00000000000E+00 -0.00000000000E+00 -0.57582798216E+03  0.57582798216E+03  0.00000000000E+00 0.  1.
        -24    2    1    2    0    0  0.33847863925E+02 -0.19574443107E+02 -0.51425346501E+03  0.52198530372E+03  0.80518285530E+02 0.  0.
         25    2    1    2    0    0  0.12682011853E+03 -0.50251917268E+02  0.12121967559E+03  0.22125041269E+03  0.12509571420E+03 0.  0.
         24    2    1    2    0    0 -0.16066798246E+03  0.69826360375E+02  0.12123906439E+04  0.12277771024E+04  0.82798662827E+02 0.  0.
        -11    1    5    5    0    0 -0.48586119788E+02 -0.14714027407E+02  0.24053208644E+03  0.24583083258E+03  0.00000000000E+00 0.  1.
         12    1    5    5    0    0 -0.11208186267E+03  0.84540387782E+02  0.97185855743E+03  0.98194626979E+03  0.00000000000E+00 0. -1.
         11    1    3    3    0    0 -0.16978799510E+02  0.18594454043E+02 -0.17861858451E+03  0.18038467808E+03  0.00000000000E+00 0. -1.
        -12    1    3    3    0    0  0.50826663435E+02 -0.38168897150E+02 -0.33563488050E+03  0.34160062563E+03  0.00000000000E+00 0.  1.
          5    1    4    4  501    0  0.13911607172E+03 -0.11307113417E+02  0.11241327627E+03  0.17926335182E+03  0.41800000000E+01 0. -1.
         -5    1    4    4    0  501 -0.12295953184E+02 -0.38944803851E+02  0.88063993278E+01  0.41987060874E+02  0.41800000000E+01 0. -1.
</event>
<event>
11    1  0.8328696E-009  0.1303160E+03  0.7561462E-02  0.1118881E+00
         22   -1    0    0    0    0  0.00000000000E+00  0.00000000000E+00  0.10505727912E+04  0.10505727912E+04  0.00000000000E+00 0. -1.
         22   -1    0    0    0    0 -0.00000000000E+00 -0.00000000000E+00 -0.70721282354E+03  0.70721282354E+03  0.00000000000E+00 0. -1.
        -24    2    1    2    0    0 -0.95364617311E+01  0.27937881614E+01 -0.67181253820E+03  0.67650611896E+03  0.78928405191E+02 0.  0.
         25    2    1    2    0    0 -0.75405728614E+01 -0.35259621177E+02  0.10625318100E+03  0.16803414025E+03  0.12508250355E+03 0.  0.
         24    2    1    2    0    0  0.17077034592E+02  0.32465833016E+02  0.90891932485E+03  0.91324535552E+03  0.80852241000E+02 0.  0.
        -11    1    5    5    0    0  0.28490649759E+02  0.89788983149E+01  0.11251101899E+03  0.11640905090E+03  0.00000000000E+00 0.  1.
         12    1    5    5    0    0 -0.11413615167E+02  0.23486934701E+02  0.79640830586E+03  0.79683630462E+03  0.00000000000E+00 0. -1.
         11    1    3    3    0    0 -0.26967609616E+01 -0.20525198640E+02 -0.60594700631E+03  0.60630052842E+03  0.00000000000E+00 0. -1.
        -12    1    3    3    0    0 -0.68397007694E+01  0.23318986801E+02 -0.65865531887E+02  0.70205590538E+02  0.00000000000E+00 0.  1.
          5    1    4    4  501    0 -0.57039439900E+02 -0.17129790387E+02  0.13413655828E+02  0.61190897898E+02  0.41800000000E+01 0.  1.
         -5    1    4    4    0  501  0.49498867039E+02 -0.18129830790E+02  0.92839525173E+02  0.10684324236E+03  0.41800000000E+01 0.  1.
</event>
<event>
11    1  0.8328696E-009  0.1830789E+03  0.7561462E-02  0.1067179E+00
         22   -1    0    0    0    0  0.00000000000E+00  0.00000000000E+00  0.20146891721E+03  0.20146891721E+03  0.00000000000E+00 0.  1.
         22   -1    0    0    0    0 -0.00000000000E+00 -0.00000000000E+00 -0.20306652508E+04  0.20306652508E+04  0.00000000000E+00 0. -1.
         24    2    1    2    0    0  0.19906666086E+02 -0.12094206229E+03 -0.12140071057E+04  0.12229387559E+04  0.82113886570E+02 0.  0.
         25    2    1    2    0    0  0.54396744924E+02  0.17911307357E+03 -0.77483993589E+03  0.80688722581E+03  0.12509824117E+03 0.  0.
        -24    2    1    2    0    0 -0.74303411011E+02 -0.58171011274E+02  0.15965070794E+03  0.20230818628E+03  0.80841760555E+02 0.  0.
        -11    1    3    3    0    0 -0.17960154736E+01 -0.64944975504E+01 -0.51468331747E+01  0.84790366046E+01  0.00000000000E+00 0.  1.
         12    1    3    3    0    0  0.21702681560E+02 -0.11444756474E+03 -0.12088602725E+04  0.12144597193E+04  0.00000000000E+00 0. -1.
         11    1    5    5    0    0  0.76475717283E+01  0.99519901721E-01  0.60876755576E+02  0.61355314578E+02  0.00000000000E+00 0. -1.
        -12    1    5    5    0    0 -0.81950982739E+02 -0.58270531176E+02  0.98773952367E+02  0.14095287170E+03  0.00000000000E+00 0.  1.
          5    1    4    4  501    0 -0.27569207468E+01  0.14039028406E+03 -0.64122943165E+03  0.65643711724E+03  0.41800000000E+01 0.  1.
         -5    1    4    4    0  501  0.57153665671E+02  0.38722789509E+02 -0.13361050424E+03  0.15045010857E+03  0.41800000000E+01 0.  1.
</event>
<event>
11    1  0.8328696E-009  0.1409370E+04  0.7561462E-02  0.8364658E-01
         22   -1    0    0    0    0  0.00000000000E+00  0.00000000000E+00  0.66272017977E+03  0.66272017977E+03  0.00000000000E+00 0.  1.
         22   -1    0    0    0    0 -0.00000000000E+00 -0.00000000000E+00 -0.39548485983E+04  0.39548485983E+04  0.00000000000E+00 0.  1.
         24    2    1    2    0    0  0.40043092239E+03  0.12493970836E+04 -0.88171129266E+03  0.15828039784E+04  0.80719479009E+02 0.  0.
         25    2    1    2    0    0 -0.49233147361E+03 -0.13711183468E+04 -0.24537297604E+04  0.28563600978E+04  0.12508985058E+03 0.  0.
        -24    2    1    2    0    0  0.91900551213E+02  0.12172126315E+03  0.43312634528E+02  0.17840470182E+03  0.81795330585E+02 0.  0.
        -11    1    3    3    0    0  0.16295111799E+03  0.52701304726E+03 -0.32346814636E+03  0.63947436270E+03  0.00000000000E+00 0.  1.
         12    1    3    3    0    0  0.23747980441E+03  0.72238403636E+03 -0.55824314629E+03  0.94332961571E+03  0.00000000000E+00 0. -1.
         13    1    5    5    0    0  0.13785969240E+02 -0.76195126939E+00 -0.16313381296E+02  0.21371942517E+02  0.00000000000E+00 0. -1.
        -14    1    5    5    0    0  0.78114581973E+02  0.12248321442E+03  0.59626015824E+02  0.15703275930E+03  0.00000000000E+00 0.  1.
          5    1    4    4  501    0 -0.46770266430E+03 -0.11826552214E+04 -0.21535686351E+04  0.25010586745E+04  0.41800000000E+01 0. -1.
         -5    1    4    4    0  501 -0.24628809308E+02 -0.18846312541E+03 -0.30016112523E+03  0.35530142328E+03  0.41800000000E+01 0. -1.
</event>
<event>
11    1  0.8328696E-009  0.1318839E+03  0.7561462E-02  0.1116976E+00
         22   -1    0    0    0    0  0.00000000000E+00  0.00000000000E+00  0.71710712354E+03  0.71710712354E+03  0.00000000000E+00 0.  1.
         22   -1    0    0    0    0 -0.00000000000E+00 -0.00000000000E+00 -0.59253173084E+03  0.59253173084E+03  0.00000000000E+00 0. -1.
        -24    2    1    2    0    0 -0.26602250114E+02  0.31989306455E+02 -0.56450670161E+03  0.57153433420E+03  0.79073912087E+02 0.  0.
         25    2    1    2    0    0  0.17633894478E+02 -0.54280813393E+02  0.20513716793E+03  0.24695412003E+03  0.12509084218E+03 0.  0.
         24    2    1    2    0    0  0.89683556363E+01  0.22291506938E+02  0.48394492637E+03  0.49115040015E+03  0.80303680618E+02 0.  0.
        -11    1    5    5    0    0  0.93040115423E+01  0.17911869162E+02  0.48591664822E+03  0.48633567492E+03  0.00000000000E+00 0.  1.
         12    1    5    5    0    0 -0.33565590600E+00  0.43796377762E+01 -0.19717218476E+01  0.48147252239E+01  0.00000000000E+00 0. -1.
         13    1    3    3    0    0  0.53332859609E+00 -0.12736413437E+02 -0.36686378809E+03  0.36708519404E+03  0.00000000000E+00 0. -1.
        -14    1    3    3    0    0 -0.27135578711E+02  0.44725719892E+02 -0.19764291351E+03  0.20444914016E+03  0.00000000000E+00 0.  1.
          5    1    4    4  501    0 -0.20621534597E+02 -0.84671379365E+02  0.14654267351E+03  0.17054828563E+03  0.41800000000E+01 0. -1.
         -5    1    4    4    0  501  0.38255429075E+02  0.30390565972E+02  0.58594494416E+02  0.76405834396E+02  0.41800000000E+01 0. -1.
</event>
<event>
11    1  0.8328696E-009  0.1371321E+03  0.7561462E-02  0.1110804E+00
         22   -1    0    0    0    0  0.00000000000E+00  0.00000000000E+00  0.16328090890E+04  0.16328090890E+04  0.00000000000E+00 0.  1.
         22   -1    0    0    0    0 -0.00000000000E+00 -0.00000000000E+00 -0.12178808371E+04  0.12178808371E+04  0.00000000000E+00 0. -1.
         24    2    1    2    0    0  0.42597480200E+02 -0.36148239718E+02 -0.11415481540E+04  0.11457114950E+04  0.80008757356E+02 0.  0.
         25    2    1    2    0    0 -0.72679845496E+02  0.18483015302E+02 -0.22770954124E+00  0.14584695735E+03  0.12508917347E+03 0.  0.
        -24    2    1    2    0    0  0.30082365296E+02  0.17665224416E+02  0.15567041155E+04  0.15591314739E+04  0.79663296447E+02 0.  0.
        -13    1    3    3    0    0 -0.13606203518E+02 -0.27121836640E+02 -0.67840557964E+03  0.67908383376E+03  0.00000000000E+00 0.  1.
         14    1    3    3    0    0  0.56203683718E+02 -0.90264030777E+01 -0.46314257436E+03  0.46662766120E+03  0.00000000000E+00 0. -1.
         11    1    5    5    0    0 -0.16217057803E+02 -0.19180011292E+02  0.30629134985E+03  0.30731947024E+03  0.00000000000E+00 0. -1.
        -12    1    5    5    0    0  0.46299423099E+02  0.36845235708E+02  0.12504127656E+04  0.12518120036E+04  0.00000000000E+00 0.  1.
          5    1    4    4  501    0  0.22842378905E+02 -0.24931909552E+02  0.19121960497E+02  0.39070400065E+02  0.41800000000E+01 0.  1.
         -5    1    4    4    0  501 -0.95522224401E+02  0.43414924854E+02 -0.19349670039E+02  0.10677655728E+03  0.41800000000E+01 0.  1.
</event>
<event>
11    1  0.8328696E-009  0.1378101E+03  0.7561462E-02  0.1110029E+00
         22   -1    0    0    0    0  0.00000000000E+00  0.00000000000E+00  0.55129516896E+03  0.55129516896E+03  0.00000000000E+00 0. -1.
         22   -1    0    0    0    0 -0.00000000000E+00 -0.00000000000E+00 -0.33207120357E+03  0.33207120357E+03  0.00000000000E+00 0. -1.
        -24    2    1    2    0    0  0.36677015732E+02  0.20856418664E+02 -0.29743362041E+03  0.31102573234E+03  0.80560871051E+02 0.  0.
         25    2    1    2    0    0 -0.38494186622E+02  0.42243420287E+02  0.23786437268E+03  0.27475978126E+03  0.12508864315E+03 0.  0.
         24    2    1    2    0    0  0.18171708900E+01 -0.63099838951E+02  0.27879321311E+03  0.29758085893E+03  0.82727384457E+02 0.  0.
        -11    1    5    5    0    0  0.62554204130E+01  0.11559517348E+00  0.18063733977E+03  0.18074565601E+03  0.00000000000E+00 0.  1.
         12    1    5    5    0    0 -0.44382495229E+01 -0.63215434124E+02  0.98155873342E+02  0.11683520292E+03  0.00000000000E+00 0. -1.
         11    1    3    3    0    0  0.52257200570E+02 -0.32153918582E+01 -0.25138596054E+03  0.25678016846E+03  0.00000000000E+00 0. -1.
        -12    1    3    3    0    0 -0.15580184838E+02  0.24071810522E+02 -0.46047659870E+02  0.54245563882E+02  0.00000000000E+00 0.  1.
          5    1    4    4  501    0 -0.55099941689E+02  0.57933843213E+01  0.22606819939E+03  0.23279576897E+03  0.41800000000E+01 0. -1.
         -5    1    4    4    0  501  0.16605755067E+02  0.36450035966E+02  0.11796173298E+02  0.41964012293E+02  0.41800000000E+01 0. -1.
</event>
<event>
11    1  0.8328696E-009  0.1380168E+03  0.7561462E-02  0.1109793E+00
         22   -1    0    0    0    0  0.00000000000E+00  0.00000000000E+00  0.93679406260E+03  0.93679406260E+03  0.00000000000E+00 0. -1.
         22   -1    0    0    0    0 -0.00000000000E+00 -0.00000000000E+00 -0.16566171373E+03  0.16566171373E+03  0.00000000000E+00 0.  1.
        -24    2    1    2    0    0  0.44533736876E+02 -0.37685368935E+02 -0.11801706184E+03  0.15451803825E+03  0.80897197152E+02 0.  0.
         25    2    1    2    0    0 -0.95378977604E+01  0.75752618168E+02  0.17904653411E+03  0.23137563542E+03  0.12509033791E+03 0.  0.
         24    2    1    2    0    0 -0.34995839115E+02 -0.38067249233E+02  0.71010287660E+03  0.71656210267E+03  0.80878473022E+02 0.  0.
        -13    1    5    5    0    0  0.17541131298E+02 -0.37015088303E+02  0.23287464024E+03  0.23644958473E+03  0.00000000000E+00 0.  1.
         14    1    5    5    0    0 -0.52536970413E+02 -0.10521609302E+01  0.47722823636E+03  0.48011251794E+03  0.00000000000E+00 0. -1.
         13    1    3    3    0    0  0.16490075651E+02 -0.34254572521E+02 -0.53850164847E+01  0.38396571932E+02  0.00000000000E+00 0. -1.
        -14    1    3    3    0    0  0.28043661225E+02 -0.34307964142E+01 -0.11263204535E+03  0.11612146631E+03  0.00000000000E+00 0.  1.
          5    1    4    4  501    0  0.25179550103E+02 -0.18984517121E+02  0.94372532551E+02  0.99589502126E+02  0.41800000000E+01 0.  1.
         -5    1    4    4    0  501 -0.34717447864E+02  0.94737135290E+02  0.84674001556E+02  0.13178613329E+03  0.41800000000E+01 0.  1.
</event>
<event>
11    1  0.8328696E-009  0.1647032E+03  0.7561462E-02  0.1082735E+00
         22   -1    0    0    0    0  0.00000000000E+00  0.00000000000E+00  0.10645914756E+04  0.10645914756E+04  0.00000000000E+00 0.  1.
         22   -1    0    0    0    0 -0.00000000000E+00 -0.00000000000E+00 -0.53134143341E+03  0.53134143341E+03  0.00000000000E+00 0. -1.
         24    2    1    2    0    0  0.11870103107E+03 -0.46479949653E+02 -0.33888771354E+03  0.37185591513E+03  0.84744431851E+02 0.  0.
         25    2    1    2    0    0 -0.70901191437E+02  0.10256883559E+02 -0.14354000982E+03  0.20342994865E+03  0.12509127461E+03 0.  0.
        -24    2    1    2    0    0 -0.47799839634E+02  0.36223066095E+02  0.10156777655E+04  0.10206470452E+04  0.80759719667E+02 0.  0.
        -13    1    3    3    0    0  0.10476736791E+02  0.13263870722E+02 -0.11386572721E+03  0.11511340545E+03  0.00000000000E+00 0.  1.
         14    1    3    3    0    0  0.10822429428E+03 -0.59743820375E+02 -0.22502198633E+03  0.25674250968E+03  0.00000000000E+00 0. -1.
         11    1    5    5    0    0 -0.38480309226E+02  0.46383622616E+02  0.37428420244E+03  0.37910531366E+03  0.00000000000E+00 0. -1.
        -12    1    5    5    0    0 -0.93195304088E+01 -0.10160556521E+02  0.64139356308E+03  0.64154173154E+03  0.00000000000E+00 0.  1.
          5    1    4    4  501    0  0.19784887699E+02  0.31409891700E+02 -0.86314437532E+02  0.94051462532E+02  0.41800000000E+01 0. -1.
         -5    1    4    4    0  501 -0.90686079136E+02 -0.21153008141E+02 -0.57225572284E+02  0.10937848612E+03  0.41800000000E+01 0. -1.
</event>
<event>
11    1  0.8328696E-009  0.1409357E+03  0.7561462E-02  0.1106518E+00
         22   -1    0    0    0    0  0.00000000000E+00  0.00000000000E+00  0.96328107556E+02  0.96328107556E+02  0.00000000000E+00 0. -1.
         22   -1    0    0    0    0 -0.00000000000E+00 -0.00000000000E+00 -0.14053988681E+04  0.14053988681E+04  0.00000000000E+00 0.  1.
         24    2    1    2    0    0  0.60138246113E+02 -0.73034415946E+01 -0.80413900592E+03  0.81046207967E+03  0.80865894093E+02 0.  0.
         25    2    1    2    0    0 -0.87226734960E+02 -0.50524046140E+02 -0.55522145036E+03  0.57799641991E+03  0.12509124654E+03 0.  0.
        -24    2    1    2    0    0  0.27088488846E+02  0.57827487735E+02  0.50289695701E+02  0.11326847611E+03  0.78885294078E+02 0.  0.
        -11    1    3    3    0    0  0.47923132314E+02  0.23782814855E+02 -0.67348017767E+03  0.67560180477E+03  0.00000000000E+00 0.  1.
         12    1    3    3    0    0  0.12215113799E+02 -0.31086256449E+02 -0.13065882825E+03  0.13486027490E+03  0.00000000000E+00 0. -1.
         13    1    5    5    0    0  0.11608746925E+02 -0.37058733996E+01  0.48271411681E+02  0.49785798061E+02  0.00000000000E+00 0. -1.
        -14    1    5    5    0    0  0.15479741921E+02  0.61533361134E+02  0.20182840198E+01  0.63482678053E+02  0.00000000000E+00 0.  1.
          5    1    4    4  501    0 -0.88417400340E+02 -0.20788345165E+02 -0.53279862645E+03  0.54050128651E+03  0.41800000000E+01 0.  1.
         -5    1    4    4    0  501  0.11906653799E+01 -0.29735700975E+02 -0.22422823916E+02  0.37495133403E+02  0.41800000000E+01 0.  1.
</event>
<event>
11    1  0.8328696E-009  0.1529612E+03  0.7561462E-02  0.1093891E+00
         22   -1    0    0    0    0  0.00000000000E+00  0.00000000000E+00  0.45489605150E+03  0.45489605150E+03  0.00000000000E+00 0.  1.
         22   -1    0    0    0    0 -0.00000000000E+00 -0.00000000000E+00 -0.28044353173E+03  0.28044353173E+03  0.00000000000E+00 0. -1.
         24    2    1    2    0    0 -0.24251469767E+02  0.91093048652E+02 -0.21209639060E+03  0.24648145406E+03  0.82958730649E+02 0.  0.
         25    2    1    2    0    0  0.57215079043E+01 -0.51454197112E+02  0.56335695773E+02  0.14663299740E+03  0.12508898934E+03 0.  0.
        -24    2    1    2    0    0  0.18529961863E+02 -0.39638851540E+02  0.33021321460E+03  0.34222513178E+03  0.78502711351E+02 0.  0.
        -11    1    3    3    0    0  0.82502816905E+00  0.42236818003E+02 -0.20094644486E+02  0.46780596442E+02  0.00000000000E+00 0.  1.
         12    1    3    3    0    0 -0.25076497936E+02  0.48856230650E+02 -0.19200174611E+03  0.19970085762E+03  0.00000000000E+00 0. -1.
         11    1    5    5    0    0  0.24168283800E+02  0.19136497158E+02  0.11237422446E+03  0.11652586747E+03  0.00000000000E+00 0. -1.
        -12    1    5    5    0    0 -0.56383219370E+01 -0.58775348698E+02  0.21783899014E+03  0.22569926432E+03  0.00000000000E+00 0.  1.
          5    1    4    4  501    0  0.34708330124E+02  0.22477187083E+01  0.74918332735E+02  0.82703986598E+02  0.41800000000E+01 0. -1.
         -5    1    4    4    0  501 -0.28986822219E+02 -0.53701915821E+02 -0.18582636962E+02  0.63929010798E+02  0.41800000000E+01 0. -1.
</event>
<event>
11    1  0.8328696E-009  0.1357589E+04  0.7561462E-02  0.8397822E-01
         22   -1    0    0    0    0  0.00000000000E+00  0.00000000000E+00  0.17015936145E+04  0.17015936145E+04  0.00000000000E+00 0. -1.
         22   -1    0    0    0    0 -0.00000000000E+00 -0.00000000000E+00 -0.22521104277E+04  0.22521104277E+04  0.00000000000E+00 0. -1.
         24    2    1    2    0    0  0.51164145845E+03 -0.23806402429E+03 -0.97508113332E+03  0.11294461062E+04  0.80086382284E+02 0.  0.
         25    2    1    2    0    0 -0.14258072923E+04  0.86612818095E+03  0.35415308901E+03  0.17100224345E+04  0.12509138805E+03 0.  0.
        -24    2    1    2    0    0  0.91416583384E+03 -0.62806415667E+03  0.70411231090E+02  0.11142355015E+04  0.79995341359E+02 0.  0.
        -11    1    3    3    0    0  0.17829281229E+03 -0.12326256903E+03 -0.34525408909E+03  0.40765472384E+03  0.00000000000E+00 0.  1.
         12    1    3    3    0    0  0.33334864616E+03 -0.11480145526E+03 -0.62982704423E+03  0.72179138238E+03  0.00000000000E+00 0. -1.
         11    1    5    5    0    0  0.56676267044E+03 -0.43486270840E+03  0.37200823516E+02  0.71533866178E+03  0.00000000000E+00 0. -1.
        -12    1    5    5    0    0  0.34740316340E+03 -0.19320144827E+03  0.33210407573E+02  0.39889683970E+03  0.00000000000E+00 0.  1.
          5    1    4    4  501    0 -0.37254832700E+03  0.28506930535E+03  0.12482814912E+03  0.48544443967E+03  0.41800000000E+01 0.  1.
         -5    1    4    4    0  501 -0.10532589653E+04  0.58105887561E+03  0.22932493989E+03  0.12245779948E+04  0.41800000000E+01 0.  1.
</event>
<event>
11    1  0.8328696E-009  0.1622225E+03  0.7561462E-02  0.1085005E+00
         22   -1    0    0    0    0  0.00000000000E+00  0.00000000000E+00  0.86626914646E+02  0.86626914646E+02  0.00000000000E+00 0. -1.
         22   -1    0    0    0    0 -0.00000000000E+00 -0.00000000000E+00 -0.17348844933E+04  0.17348844933E+04  0.00000000000E+00 0.  1.
        -24    2    1    2    0    0 -0.66161308834E+02 -0.78344897809E+02 -0.14452704906E+04  0.14510497593E+04  0.78888346689E+02 0.  0.
         25    2    1    2    0    0  0.95119794777E+02  0.63697986243E+02 -0.22568583975E+03  0.28229205209E+03  0.12509794402E+03 0.  0.
         24    2    1    2    0    0 -0.28958485943E+02  0.14646911566E+02  0.22698751732E+02  0.88169596497E+02  0.78775113391E+02 0.  0.
        -13    1    5    5    0    0  0.73269434561E+01  0.37454622086E+02 -0.28555616056E+01  0.38271230031E+02  0.00000000000E+00 0.  1.
         14    1    5    5    0    0 -0.36285429399E+02 -0.22807710520E+02  0.25554313338E+02  0.49898366466E+02  0.00000000000E+00 0. -1.
         11    1    3    3    0    0  0.17560375369E+02 -0.23224612653E+02 -0.33716206226E+03  0.33841691099E+03  0.00000000000E+00 0. -1.
        -12    1    3    3    0    0 -0.83721684203E+02 -0.55120285156E+02 -0.11081084283E+04  0.11126328483E+04  0.00000000000E+00 0.  1.
          5    1    4    4  501    0  0.99968578049E+02  0.45010158831E+02 -0.81279991559E+02  0.13654135060E+03  0.41800000000E+01 0. -1.
         -5    1    4    4    0  501 -0.48487832720E+01  0.18687827413E+02 -0.14440584819E+03  0.14575070149E+03  0.41800000000E+01 0. -1.
</event>
<event>
11    1  0.8328696E-009  0.1260741E+03  0.7561462E-02  0.1124189E+00
         22   -1    0    0    0    0  0.00000000000E+00  0.00000000000E+00  0.11872167085E+04  0.11872167085E+04  0.00000000000E+00 0. -1.
         22   -1    0    0    0    0 -0.00000000000E+00 -0.00000000000E+00 -0.52066119562E+03  0.52066119562E+03  0.00000000000E+00 0.  1.
         24    2    1    2    0    0  0.23656525089E+02 -0.16355828433E+02 -0.49721481806E+03  0.50453971702E+03  0.80688329051E+02 0.  0.
         25    2    1    2    0    0 -0.22323124111E+02  0.30229552001E+02  0.22457399597E+03  0.25979439145E+03  0.12508996154E+03 0.  0.
        -24    2    1    2    0    0 -0.13334009772E+01 -0.13873723568E+02  0.93919633495E+03  0.94354379564E+03  0.89391725213E+02 0.  0.
        -11    1    3    3    0    0  0.35630638473E+02 -0.20503959923E+02 -0.48564020313E+03  0.48737702209E+03  0.00000000000E+00 0.  1.
         12    1    3    3    0    0 -0.11974113384E+02  0.41481314895E+01 -0.11574614934E+02  0.17162694924E+02  0.00000000000E+00 0. -1.
         11    1    5    5    0    0  0.27272549992E+01 -0.44867480643E+02  0.78078544369E+03  0.78207828113E+03  0.00000000000E+00 0. -1.
        -12    1    5    5    0    0 -0.40606559764E+01  0.30993757075E+02  0.15841089126E+03  0.16146551450E+03  0.00000000000E+00 0.  1.
          5    1    4    4  501    0  0.37461287277E+02 -0.27158453593E+02  0.97887816080E+02  0.10835324906E+03  0.41800000000E+01 0. -1.
         -5    1    4    4    0  501 -0.59784411389E+02  0.57388005594E+02  0.12668617989E+03  0.15144114238E+03  0.41800000000E+01 0. -1.
</event>
<event>
11    1  0.8328696E-009  0.1535094E+03  0.7561462E-02  0.1093346E+00
         22   -1    0    0    0    0  0.00000000000E+00  0.00000000000E+00  0.13975213237E+04  0.13975213237E+04  0.00000000000E+00 0. -1.
         22   -1    0    0    0    0 -0.00000000000E+00 -0.00000000000E+00 -0.24337155101E+03  0.24337155101E+03  0.00000000000E+00 0. -1.
         24    2    1    2    0    0  0.58248967280E+02 -0.41978723352E+02 -0.10505197604E+03  0.14800566373E+03  0.75594996022E+02 0.  0.
         25    2    1    2    0    0 -0.59631099338E+02  0.12993695038E+03 -0.35058731494E+02  0.19317429770E+03  0.12509082923E+03 0.  0.
        -24    2    1    2    0    0  0.13821320578E+01 -0.87958227023E+02  0.12942604803E+04  0.12997129133E+04  0.80030658352E+02 0.  0.
        -11    1    3    3    0    0  0.51653630166E+02 -0.51008617329E+02 -0.41791649579E+02  0.83764661556E+02  0.00000000000E+00 0.  1.
         12    1    3    3    0    0  0.65953371144E+01  0.90298939766E+01 -0.63260326457E+02  0.64241002174E+02  0.00000000000E+00 0. -1.
         13    1    5    5    0    0 -0.33905890426E+02 -0.58223421866E+02  0.94797328094E+03  0.95036462352E+03  0.00000000000E+00 0. -1.
        -14    1    5    5    0    0  0.35288022484E+02 -0.29734805157E+02  0.34628719932E+03  0.34934828980E+03  0.00000000000E+00 0.  1.
          5    1    4    4  501    0 -0.23150655294E+02 -0.73233088281E+00 -0.51333096598E+02  0.56471659754E+02  0.41800000000E+01 0.  1.
         -5    1    4    4    0  501 -0.36480444044E+02  0.13066928126E+03  0.16274365104E+02  0.13670263795E+03  0.41800000000E+01 0.  1.
</event>
<event>
11    1  0.8328696E-009  0.1539663E+03  0.7561462E-02  0.1092894E+00
         22   -1    0    0    0    0  0.00000000000E+00  0.00000000000E+00  0.26663075029E+03  0.26663075029E+03  0.00000000000E+00 0.  1.
         22   -1    0    0    0    0 -0.00000000000E+00 -0.00000000000E+00 -0.11650350480E+04  0.11650350480E+04  0.00000000000E+00 0. -1.
        -24    2    1    2    0    0  0.13553139352E+01  0.72183945118E+02 -0.10050225261E+04  0.10111310786E+04  0.84281796229E+02 0.  0.
         25    2    1    2    0    0  0.13798149977E+02 -0.15294835081E+03 -0.70138363111E+02  0.21011998331E+03  0.12508968962E+03 0.  0.
         24    2    1    2    0    0 -0.15153463912E+02  0.80764405691E+02  0.17675659158E+03  0.21041473638E+03  0.79239838001E+02 0.  0.
        -11    1    5    5    0    0 -0.47564577116E+02  0.43431879403E+02  0.92305450726E+02  0.11255671183E+03  0.00000000000E+00 0.  1.
         12    1    5    5    0    0  0.32411113204E+02  0.37332526288E+02  0.84451140851E+02  0.97858024552E+02  0.00000000000E+00 0. -1.
         13    1    3    3    0    0 -0.19955121013E+02  0.18814962043E+02 -0.71192443184E+03  0.71245252916E+03  0.00000000000E+00 0. -1.
        -14    1    3    3    0    0  0.21310434948E+02  0.53368983075E+02 -0.29309809430E+03  0.29867854940E+03  0.00000000000E+00 0.  1.
          5    1    4    4  501    0  0.41640899159E+02 -0.66560408742E+02 -0.87479642193E+02  0.11761978019E+03  0.41800000000E+01 0.  1.
         -5    1    4    4    0  501 -0.27842749182E+02 -0.86387942068E+02  0.17341279082E+02  0.92500203118E+02  0.41800000000E+01 0.  1.
</event>
<event>
11    1  0.8328696E-009  0.1549799E+03  0.7561462E-02  0.1091896E+00
         22   -1    0    0    0    0  0.00000000000E+00  0.00000000000E+00  0.42812772639E+03  0.42812772639E+03  0.00000000000E+00 0. -1.
         22   -1    0    0    0    0 -0.00000000000E+00 -0.00000000000E+00 -0.15338160932E+04  0.15338160932E+04  0.00000000000E+00 0.  1.
         24    2    1    2    0    0 -0.76419129925E+02  0.49588650773E+02 -0.14156666623E+04  0.14208771749E+04  0.80504221725E+02 0.  0.
         25    2    1    2    0    0  0.78011960189E+02 -0.64261616057E+02 -0.52766093974E+02  0.16925247999E+03  0.12508685014E+03 0.  0.
        -24    2    1    2    0    0 -0.15928302640E+01  0.14672965284E+02  0.36274438948E+03  0.37181416469E+03  0.80277319029E+02 0.  0.
        -11    1    3    3    0    0 -0.48051611967E+02  0.50530068345E+02 -0.12966240271E+04  0.12984976368E+04  0.00000000000E+00 0.  1.
         12    1    3    3    0    0 -0.28367517959E+02 -0.94141757200E+00 -0.11904263517E+03  0.12237953803E+03  0.00000000000E+00 0. -1.
         11    1    5    5    0    0  0.10051457400E+02  0.46357569462E+02  0.19278473331E+03  0.19853465551E+03  0.00000000000E+00 0. -1.
        -12    1    5    5    0    0 -0.11644287664E+02 -0.31684604177E+02  0.16995965617E+03  0.17327950918E+03  0.00000000000E+00 0.  1.
          5    1    4    4  501    0  0.10668944577E+03 -0.64946123339E+02 -0.61072985614E+02  0.13909715578E+03  0.41800000000E+01 0. -1.
         -5    1    4    4    0  501 -0.28677485576E+02  0.68450728163E+00  0.83068916404E+01  0.30155324205E+02  0.41800000000E+01 0. -1.
</event>
<event>
11    1  0.8328696E-009  0.1341319E+03  0.7561462E-02  0.1114294E+00
         22   -1    0    0    0    0  0.00000000000E+00  0.00000000000E+00  0.23532435662E+03  0.23532435662E+03  0.00000000000E+00 0. -1.
         22   -1    0    0    0    0 -0.00000000000E+00 -0.00000000000E+00 -0.76424200608E+03  0.76424200608E+03  0.00000000000E+00 0. -1.
        -24    2    1    2    0    0  0.16770185752E+02  0.26431912651E+02 -0.46461049674E+03  0.47260934343E+03  0.80726654089E+02 0.  0.
         25    2    1    2    0    0 -0.23710530961E+02 -0.73340821094E+02 -0.26644521085E+03  0.30427195286E+03  0.12508919056E+03 0.  0.
         24    2    1    2    0    0  0.69403452091E+01  0.46908908442E+02  0.20213805814E+03  0.22268506641E+03  0.80499876851E+02 0.  0.
        -11    1    5    5    0    0 -0.48962487862E+01 -0.22358350157E+02  0.42684576077E+02  0.48433894215E+02  0.00000000000E+00 0.  1.
         12    1    5    5    0    0  0.11836593995E+02  0.69267258600E+02  0.15945348206E+03  0.17425117220E+03  0.00000000000E+00 0. -1.
         11    1    3    3    0    0  0.13951512965E+02  0.36557210276E+01 -0.43455158147E+03  0.43479085313E+03  0.00000000000E+00 0. -1.
        -12    1    3    3    0    0  0.28186727865E+01  0.22776191624E+02 -0.30058915270E+02  0.37818490297E+02  0.00000000000E+00 0.  1.
          5    1    4    4  501    0  0.27823817789E+00 -0.10589342875E+03 -0.18360838230E+03  0.21199765593E+03  0.41800000000E+01 0. -1.
         -5    1    4    4    0  501 -0.23988769139E+02  0.32552607655E+02 -0.82836828550E+02  0.92274296931E+02  0.41800000000E+01 0. -1.
</event>
<event>
11    1  0.8328696E-009  0.1315928E+03  0.7561462E-02  0.1117327E+00
         22   -1    0    0    0    0  0.00000000000E+00  0.00000000000E+00  0.19651637696E+04  0.19651637696E+04  0.00000000000E+00 0.  1.
         22   -1    0    0    0    0 -0.00000000000E+00 -0.00000000000E+00 -0.91370355790E+02  0.91370355790E+02  0.00000000000E+00 0.  1.
        -24    2    1    2    0    0 -0.21618100105E+01 -0.40349443930E+02 -0.56700904669E+02  0.10677994559E+03  0.80958094972E+02 0.  0.
         25    2    1    2    0    0 -0.22537319221E+02  0.52023784086E+02  0.56288957481E+03  0.57940193239E+03  0.12509005139E+03 0.  0.
         24    2    1    2    0    0  0.24699129232E+02 -0.11674340157E+02  0.13676047437E+04  0.13703522474E+04  0.82317737389E+02 0.  0.
        -11    1    5    5    0    0  0.20560732150E+02  0.30013431988E+02  0.93913318769E+03  0.93983758918E+03  0.00000000000E+00 0.  1.
         12    1    5    5    0    0  0.41383970820E+01 -0.41687772145E+02  0.42847155596E+03  0.43051465822E+03  0.00000000000E+00 0. -1.
         11    1    3    3    0    0 -0.40665262269E+01  0.20160130995E+02  0.41090871355E+01  0.20972651582E+02  0.00000000000E+00 0. -1.
        -12    1    3    3    0    0  0.19047162164E+01 -0.60509574924E+02 -0.60809991805E+02  0.85807294006E+02  0.00000000000E+00 0.  1.
          5    1    4    4  501    0 -0.24087599971E+02  0.59294083359E+02  0.11696017766E+03  0.13339099052E+03  0.41800000000E+01 0.  1.
         -5    1    4    4    0  501  0.15502807498E+01 -0.72702992731E+01  0.44592939715E+03  0.44601094187E+03  0.41800000000E+01 0.  1.
</event>
<event>
11    1  0.8328696E-009  0.1892875E+03  0.7561462E-02  0.1062369E+00
         22   -1    0    0    0    0  0.00000000000E+00  0.00000000000E+00  0.18660939737E+03  0.18660939737E+03  0.00000000000E+00 0. -1.
         22   -1    0    0    0    0 -0.00000000000E+00 -0.00000000000E+00 -0.12287023668E+04  0.12287023668E+04  0.00000000000E+00 0. -1.
         24    2    1    2    0    0 -0.50383274251E+02  0.11288866758E+02 -0.73563158443E+03  0.74204168837E+03  0.82499251101E+02 0.  0.
         25    2    1    2    0    0  0.17329840361E+03 -0.73653560219E+02 -0.42004223365E+03  0.47701356486E+03  0.12509707986E+03 0.  0.
        -24    2    1    2    0    0 -0.12291512936E+03  0.62364693461E+02  0.11358084864E+03  0.19625651094E+03  0.81354317000E+02 0.  0.
        -13    1    3    3    0    0  0.16903068920E+01  0.36019822069E+02 -0.38697214212E+03  0.38864858612E+03  0.00000000000E+00 0.  1.
         14    1    3    3    0    0 -0.52073581143E+02 -0.24730955311E+02 -0.34865944230E+03  0.35339310224E+03  0.00000000000E+00 0. -1.
         13    1    5    5    0    0 -0.57407695037E+02 -0.13753309242E+02  0.50308820449E+02  0.77561423269E+02  0.00000000000E+00 0. -1.
        -14    1    5    5    0    0 -0.65507434319E+02  0.76118002702E+02  0.63272028190E+02  0.11869508767E+03  0.00000000000E+00 0.  1.
          5    1    4    4  501    0  0.17001728500E+03 -0.51298293794E+02 -0.41771597832E+03  0.45391794753E+03  0.41800000000E+01 0.  1.
         -5    1    4    4    0  501  0.32811186046E+01 -0.22355266425E+02 -0.23262553314E+01  0.23095617335E+02  0.41800000000E+01 0.  1.
</event>
<event>
11    1  0.8328696E-009  0.2424472E+03  0.7561462E-02  0.1028001E+00
         22   -1    0    0    0    0  0.00000000000E+00  0.00000000000E+00  0.13449576143E+04  0.13449576143E+04  0.00000000000E+00 0.  1.
         22   -1    0    0    0    0 -0.00000000000E+00 -0.00000000000E+00 -0.29456190133E+03  0.29456190133E+03  0.00000000000E+00 0.  1.
        -24    2    1    2    0    0 -0.14928396827E+03  0.13316998198E+03 -0.18997524236E+03  0.28621775602E+03  0.76223774952E+02 0.  0.
         25    2    1    2    0    0  0.18349322710E+03 -0.22849545911E+03  0.46618044909E+03  0.56466798219E+03  0.12508309148E+03 0.  0.
         24    2    1    2    0    0 -0.34209258824E+02  0.95325477123E+02  0.77419050624E+03  0.78863377740E+03  0.11097330733E+03 0.  0.
        -13    1    5    5    0    0 -0.40146238642E+02  0.67320655162E+02  0.73956336451E+03  0.74370542637E+03  0.00000000000E+00 0.  1.
         14    1    5    5    0    0  0.59369798178E+01  0.28004821961E+02  0.34627141724E+02  0.44928351032E+02  0.00000000000E+00 0. -1.
         13    1    3    3    0    0 -0.43730498645E+02  0.16111381809E+02 -0.11298610833E+02  0.47954058663E+02  0.00000000000E+00 0. -1.
        -14    1    3    3    0    0 -0.10555346963E+03  0.11705860018E+03 -0.17867663153E+03  0.23826369736E+03  0.00000000000E+00 0.  1.
          5    1    4    4  501    0 -0.18847970778E+02 -0.14951855747E+02  0.35368275041E+02  0.42978963134E+02  0.41800000000E+01 0. -1.
         -5    1    4    4    0  501  0.20234119788E+03 -0.21354360336E+03  0.43081217405E+03  0.52168901906E+03  0.41800000000E+01 0. -1.
</event>
<event>
11    1  0.8328696E-009  0.1692817E+03  0.7561462E-02  0.1078658E+00
         22   -1    0    0    0    0  0.00000000000E+00  0.00000000000E+00  0.57047874166E+03  0.57047874166E+03  0.00000000000E+00 0.  1.
         22   -1    0    0    0    0 -0.00000000000E+00 -0.00000000000E+00 -0.20557389803E+04  0.20557389803E+04  0.00000000000E+00 0.  1.
         24    2    1    2    0    0  0.88226756793E+02  0.71658312100E+02 -0.19585522476E+04  0.19645671161E+04  0.10333524466E+03 0.  0.
         25    2    1    2    0    0 -0.52614025024E+02 -0.13740572683E+03  0.19102582050E+02  0.19406328011E+03  0.12508828343E+03 0.  0.
        -24    2    1    2    0    0 -0.35612731768E+02  0.65747414731E+02  0.45418942691E+03  0.46758732575E+03  0.82212422930E+02 0.  0.
        -13    1    3    3    0    0  0.10728483235E+03  0.39884096798E+02 -0.16059058219E+04  0.16099795916E+04  0.00000000000E+00 0.  1.
         14    1    3    3    0    0 -0.19058075559E+02  0.31774215302E+02 -0.35264642565E+03  0.35458752449E+03  0.00000000000E+00 0. -1.
         13    1    5    5    0    0  0.72121991047E+01  0.56080234366E+02  0.34982073861E+03  0.35436077332E+03  0.00000000000E+00 0. -1.
        -14    1    5    5    0    0 -0.42824930873E+02  0.96671803655E+01  0.10436868829E+03  0.11322655244E+03  0.00000000000E+00 0.  1.
          5    1    4    4  501    0 -0.75219977408E+02 -0.11752247531E+03  0.52283033833E+02  0.14906564068E+03  0.41800000000E+01 0.  1.
         -5    1    4    4    0  501  0.22605952384E+02 -0.19883251525E+02 -0.33180451783E+02  0.44997639437E+02  0.41800000000E+01 0.  1.
</event>
<event>
11    1  0.8328696E-009  0.2192399E+03  0.7561462E-02  0.1041695E+00
         22   -1    0    0    0    0  0.00000000000E+00  0.00000000000E+00  0.47626818588E+03  0.47626818588E+03  0.00000000000E+00 0. -1.
         22   -1    0    0    0    0 -0.00000000000E+00 -0.00000000000E+00 -0.82264889362E+03  0.82264889362E+03  0.00000000000E+00 0. -1.
         24    2    1    2    0    0 -0.44945789672E+02  0.38042642347E+01 -0.59061399275E+03  0.59787527181E+03  0.81211795770E+02 0.  0.
         25    2    1    2    0    0  0.19818628542E+03 -0.89970526368E+02 -0.12792929213E+03  0.28175701895E+03  0.12509442273E+03 0.  0.
        -24    2    1    2    0    0 -0.15324049575E+03  0.86166262134E+02  0.37216257715E+03  0.41928478875E+03  0.79921686556E+02 0.  0.
        -11    1    3    3    0    0 -0.19621071129E+02  0.32449163409E+02 -0.12328907728E+03  0.12898888019E+03  0.00000000000E+00 0.  1.
         12    1    3    3    0    0 -0.25324718543E+02 -0.28644899175E+02 -0.46732491548E+03  0.46888639161E+03  0.00000000000E+00 0. -1.
         11    1    5    5    0    0 -0.13983170056E+03  0.98877514480E+02  0.35461402592E+03  0.39380296435E+03  0.00000000000E+00 0. -1.
        -12    1    5    5    0    0 -0.13408795193E+02 -0.12711252346E+02  0.17548551225E+02  0.25481824402E+02  0.00000000000E+00 0.  1.
          5    1    4    4  501    0  0.13435711760E+03 -0.11254853395E+03 -0.58827061671E+02  0.18492458768E+03  0.41800000000E+01 0. -1.
         -5    1    4    4    0  501  0.63829167822E+02  0.22578007578E+02 -0.69102230464E+02  0.96832431273E+02  0.41800000000E+01 0. -1.
</event>
<event>
11    1  0.8328696E-009  0.1691168E+03  0.7561462E-02  0.1078803E+00
         22   -1    0    0    0    0  0.00000000000E+00  0.00000000000E+00  0.22257021113E+03  0.22257021113E+03  0.00000000000E+00 0.  1.
         22   -1    0    0    0    0 -0.00000000000E+00 -0.00000000000E+00 -0.66699716762E+03  0.66699716762E+03  0.00000000000E+00 0.  1.
        -24    2    1    2    0    0 -0.80404619496E+02  0.40554614032E+02 -0.28628714338E+03  0.31465778787E+03  0.94549539639E+02 0.  0.
         25    2    1    2    0    0  0.94151627488E+02 -0.14990093397E+03 -0.30666310020E+03  0.37553201324E+03  0.12508883636E+03 0.  0.
         24    2    1    2    0    0 -0.13747007992E+02  0.10934631994E+03  0.14852328708E+03  0.19937757764E+03  0.74475860172E+02 0.  0.
        -11    1    5    5    0    0 -0.96397952047E+01  0.11904705325E+03  0.12150291865E+03  0.17037630639E+03  0.00000000000E+00 0.  1.
         12    1    5    5    0    0 -0.41072127870E+01 -0.97007333170E+01  0.27020368436E+02  0.29001271251E+02  0.00000000000E+00 0. -1.
         13    1    3    3    0    0 -0.30312633394E+02 -0.28557025097E+02 -0.62100899730E+02  0.74772195186E+02  0.00000000000E+00 0. -1.
        -14    1    3    3    0    0 -0.50091986102E+02  0.69111639128E+02 -0.22418624365E+03  0.23988559269E+03  0.00000000000E+00 0.  1.
          5    1    4    4  501    0  0.12370497333E+03 -0.12668496588E+03 -0.26967499946E+03  0.32263613986E+03  0.41800000000E+01 0.  1.
         -5    1    4    4    0  501 -0.29553345844E+02 -0.23215968087E+02 -0.36988100732E+02  0.52895873379E+02  0.41800000000E+01 0.  1.
</event>
<event>
11    1  0.8328696E-009  0.2240197E+03  0.7561462E-02  0.1038728E+00
         22   -1    0    0    0    0  0.00000000000E+00  0.00000000000E+00  0.15028617951E+03  0.15028617951E+03  0.00000000000E+00 0.  1.
         22   -1    0    0    0    0 -0.00000000000E+00 -0.00000000000E+00 -0.28603121693E+04  0.28603121693E+04  0.00000000000E+00 0.  1.
         24    2    1    2    0    0 -0.61589370823E+02 -0.17885628020E+03 -0.18743022908E+04  0.18858734623E+04  0.87902327854E+02 0.  0.
         25    2    1    2    0    0  0.92601790978E+02  0.15581552954E+03 -0.95217141312E+03  0.97730831173E+03  0.12509022856E+03 0.  0.
        -24    2    1    2    0    0 -0.31012420155E+02  0.23040750661E+02  0.11644771410E+03  0.14741657473E+03  0.81724720795E+02 0.  0.
        -11    1    3    3    0    0 -0.43468476665E+02 -0.16787084488E+03 -0.13430146219E+04  0.13541633593E+04  0.00000000000E+00 0.  1.
         12    1    3    3    0    0 -0.18120894158E+02 -0.10985435315E+02 -0.53128766890E+03  0.53171010308E+03  0.00000000000E+00 0. -1.
         13    1    5    5    0    0  0.19453653565E+02 -0.11935792023E+02  0.10864607632E+02  0.25277410216E+02  0.00000000000E+00 0. -1.
        -14    1    5    5    0    0 -0.50466073720E+02  0.34976542684E+02  0.10558310647E+03  0.12213916451E+03  0.00000000000E+00 0.  1.
          5    1    4    4  501    0  0.11383744754E+03  0.16088112718E+03 -0.82624071097E+03  0.84943091915E+03  0.41800000000E+01 0. -1.
         -5    1    4    4    0  501 -0.21235656563E+02 -0.50655976493E+01 -0.12593070214E+03  0.12787739258E+03  0.41800000000E+01 0. -1.
</event>
<event>
11    1  0.8328696E-009  0.1483086E+03  0.7561462E-02  0.1098620E+00
         22   -1    0    0    0    0  0.00000000000E+00  0.00000000000E+00  0.20358741577E+03  0.20358741577E+03  0.00000000000E+00 0. -1.
         22   -1    0    0    0    0 -0.00000000000E+00 -0.00000000000E+00 -0.64970726180E+03  0.64970726180E+03  0.00000000000E+00 0.  1.
         24    2    1    2    0    0 -0.11709143104E+02  0.64463374592E+02 -0.52705140029E+03  0.53712731318E+03  0.80186914890E+02 0.  0.
         25    2    1    2    0    0  0.71704853323E+02 -0.98005593278E+02 -0.43474204122E+01  0.17439272171E+03  0.12508892444E+03 0.  0.
        -24    2    1    2    0    0 -0.59995710219E+02  0.33542218686E+02  0.85278974675E+02  0.14177464267E+03  0.90016554612E+02 0.  0.
        -11    1    3    3    0    0 -0.15977837937E+02  0.79331104335E+02 -0.49461602938E+03  0.50119231034E+03  0.00000000000E+00 0.  1.
         12    1    3    3    0    0  0.42686948333E+01 -0.14867729743E+02 -0.32435370911E+02  0.35935002844E+02  0.00000000000E+00 0. -1.
         13    1    5    5    0    0 -0.68982493655E+01  0.44937034131E+02  0.73155343172E+02  0.86131452533E+02  0.00000000000E+00 0. -1.
        -14    1    5    5    0    0 -0.53097460853E+02 -0.11394815444E+02  0.12123631503E+02  0.55643190139E+02  0.00000000000E+00 0.  1.
          5    1    4    4  501    0  0.19638371667E+02 -0.10520011550E+03 -0.35888038394E+02  0.11295199707E+03  0.41800000000E+01 0. -1.
         -5    1    4    4    0  501  0.52066481655E+02  0.71945222185E+01  0.31540617982E+02  0.61440724643E+02  0.41800000000E+01 0. -1.
</event>
<event>
11    1  0.8328696E-009  0.1600863E+03  0.7561462E-02  0.1086996E+00
         22   -1    0    0    0    0  0.00000000000E+00  0.00000000000E+00  0.68738594180E+02  0.68738594180E+02  0.00000000000E+00 0. -1.
         22   -1    0    0    0    0 -0.00000000000E+00 -0.00000000000E+00 -0.15630293264E+04  0.15630293264E+04  0.00000000000E+00 0. -1.
        -24    2    1    2    0    0  0.46282743991E+02 -0.83676770581E+02 -0.79335686682E+03  0.80294767349E+03  0.78523588225E+02 0.  0.
         25    2    1    2    0    0 -0.77048153689E+02  0.79697315051E+02 -0.72148066734E+03  0.74058726662E+03  0.12508823336E+03 0.  0.
         24    2    1    2    0    0  0.30765409698E+02  0.39794555298E+01  0.20546801920E+02  0.88232980485E+02  0.80003382903E+02 0.  0.
        -13    1    5    5    0    0  0.22661690138E+02  0.32356469421E+02 -0.14801354964E+02  0.42184990484E+02  0.00000000000E+00 0.  1.
         14    1    5    5    0    0  0.81037195599E+01 -0.28377013891E+02  0.35348156884E+02  0.46047990002E+02  0.00000000000E+00 0. -1.
         13    1    3    3    0    0  0.65183447769E+02 -0.50142509860E+02 -0.45131462256E+03  0.45874616259E+03  0.00000000000E+00 0. -1.
        -14    1    3    3    0    0 -0.18900703778E+02 -0.33534260721E+02 -0.34204224426E+03  0.34420151089E+03  0.00000000000E+00 0.  1.
          5    1    4    4  501    0 -0.86374160746E+01 -0.57043217956E+01 -0.41468151194E+03  0.41483174057E+03  0.41800000000E+01 0. -1.
         -5    1    4    4    0  501 -0.68410737615E+02  0.85401636847E+02 -0.30679915540E+03  0.32575552605E+03  0.41800000000E+01 0. -1.
</event>
<event>
11    1  0.8915381E-009  0.2227919E+03  0.7561462E-02  0.1039483E+00
         22   -1    0    0    0    0  0.00000000000E+00  0.00000000000E+00  0.60512008833E+03  0.60512008833E+03  0.00000000000E+00 0.  1.
         22   -1    0    0    0    0 -0.00000000000E+00 -0.00000000000E+00 -0.14695413273E+04  0.14695413273E+04  0.00000000000E+00 0. -1.
         24    2    1    2    0    0  0.22370512438E+02 -0.14021859812E+02 -0.10560787785E+04  0.10595668773E+04  0.81746735353E+02 0.  0.
         25    2    1    2    0    0 -0.98246989017E+02 -0.15416553195E+03 -0.36248123146E+03  0.42480677192E+03  0.12509463704E+03 0.  0.
        -24    2    1    2    0    0  0.75876476579E+02  0.16818739176E+03  0.55413877095E+03  0.59028776643E+03  0.85589901725E+02 0.  0.
        -13    1    3    3    0    0 -0.12252325765E+01 -0.39126117312E+02 -0.82557812714E+03  0.82650565531E+03  0.00000000000E+00 0.  1.
         14    1    3    3    0    0  0.23595745015E+02  0.25104257499E+02 -0.23050065133E+03  0.23306122198E+03  0.00000000000E+00 0. -1.
         13    1    5    5    0    0  0.12309328336E+00 -0.36554059456E+01  0.83265618400E+02  0.83345907831E+02  0.00000000000E+00 0. -1.
        -14    1    5    5    0    0  0.75753383296E+02  0.17184279770E+03  0.47087315255E+03  0.50694185860E+03  0.00000000000E+00 0.  1.
          5    1    4    4  501    0  0.74096069055E+01 -0.58035660674E+02 -0.19999629881E+03  0.20842032560E+03  0.41800000000E+01 0.  1.
         -5    1    4    4    0  501 -0.10565659592E+03 -0.96129871271E+02 -0.16248493264E+03  0.21638644632E+03  0.41800000000E+01 0.  1.
</event>
<event>
11    1  0.8328696E-009  0.1416163E+03  0.7561462E-02  0.1105767E+00
         22   -1    0    0    0    0  0.00000000000E+00  0.00000000000E+00  0.17873407528E+04  0.17873407528E+04  0.00000000000E+00 0. -1.
         22   -1    0    0    0    0 -0.00000000000E+00 -0.00000000000E+00 -0.39528436437E+02  0.39528436437E+02  0.00000000000E+00 0.  1.
        -24    2    1    2    0    0  0.55792196489E+02  0.41113797250E+02  0.84201689828E+02  0.13439824051E+03  0.78548386162E+02 0.  0.
         25    2    1    2    0    0  0.79905643922E+01 -0.71565741865E+02  0.41482920197E+03  0.43923358328E+03  0.12512941041E+03 0.  0.
         24    2    1    2    0    0 -0.63782760881E+02  0.30451944615E+02  0.12487814246E+04  0.12532373655E+04  0.78442885534E+02 0.  0.
        -11    1    5    5    0    0 -0.43015854073E+01  0.38781315291E+02  0.29539063280E+03  0.29795657401E+03  0.00000000000E+00 0.  1.
         12    1    5    5    0    0 -0.59481175474E+02 -0.83293706763E+01  0.95339079182E+03  0.95528079148E+03  0.00000000000E+00 0. -1.
         11    1    3    3    0    0  0.66608683692E+02  0.37910943876E+02  0.92696194992E+02  0.12027693451E+03  0.00000000000E+00 0. -1.
        -12    1    3    3    0    0 -0.10816487203E+02  0.32028533745E+01 -0.84945051647E+01  0.14121306000E+02  0.00000000000E+00 0.  1.
          5    1    4    4  501    0  0.45693151220E+01 -0.10632380312E+03  0.34467727731E+03  0.36075688164E+03  0.41800000000E+01 0. -1.
         -5    1    4    4    0  501  0.34212492701E+01  0.34758061253E+02  0.70151924651E+02  0.78476701644E+02  0.41800000000E+01 0. -1.
</event>
<event>
11    1  0.8328696E-009  0.2357284E+03  0.7561462E-02  0.1031789E+00
         22   -1    0    0    0    0  0.00000000000E+00  0.00000000000E+00  0.62333388927E+03  0.62333388927E+03  0.00000000000E+00 0.  1.
         22   -1    0    0    0    0 -0.00000000000E+00 -0.00000000000E+00 -0.83749447138E+03  0.83749447138E+03  0.00000000000E+00 0. -1.
        -24    2    1    2    0    0  0.19549457188E+03 -0.39966585263E+02 -0.73006147741E+03  0.76157326526E+03  0.84785741728E+02 0.  0.
         25    2    1    2    0    0 -0.16918895737E+03  0.17796189658E+03  0.18828522868E+03  0.33375545956E+03  0.12508412976E+03 0.  0.
         24    2    1    2    0    0 -0.26305614518E+02 -0.13799531132E+03  0.32761566661E+03  0.36549963582E+03  0.80766747313E+02 0.  0.
        -11    1    5    5    0    0 -0.41714160412E+01 -0.13236082097E+03  0.23143143469E+03  0.26664076320E+03  0.00000000000E+00 0.  1.
         12    1    5    5    0    0 -0.22134198477E+02 -0.56344903497E+01  0.96184231928E+02  0.98858872617E+02  0.00000000000E+00 0. -1.
         13    1    3    3    0    0  0.35414583571E+02  0.99317276099E+01 -0.25817019532E+03  0.26077707279E+03  0.00000000000E+00 0. -1.
        -14    1    3    3    0    0  0.16007998831E+03 -0.49898312873E+02 -0.47189128209E+03  0.50079619247E+03  0.00000000000E+00 0.  1.
          5    1    4    4  501    0  0.67161274853E+01  0.63004171621E+02  0.27832493387E+02  0.69330744250E+02  0.41800000000E+01 0.  1.
         -5    1    4    4    0  501 -0.17590508485E+03  0.11495772496E+03  0.16045273529E+03  0.26442471531E+03  0.41800000000E+01 0.  1.
</event>
<event>
11    1  0.8328696E-009  0.1851798E+03  0.7561462E-02  0.1065528E+00
         22   -1    0    0    0    0  0.00000000000E+00  0.00000000000E+00  0.23692909178E+03  0.23692909178E+03  0.00000000000E+00 0.  1.
         22   -1    0    0    0    0 -0.00000000000E+00 -0.00000000000E+00 -0.15741034980E+04  0.15741034980E+04  0.00000000000E+00 0.  1.
        -24    2    1    2    0    0 -0.85617224956E+02 -0.11194264078E+03 -0.14740974016E+04  0.14828441844E+04  0.77474264404E+02 0.  0.
         25    2    1    2    0    0  0.39537801944E+02  0.58819100327E+02 -0.13198910876E+02  0.14437663321E+03  0.12508987418E+03 0.  0.
         24    2    1    2    0    0  0.46079423012E+02  0.53123540457E+02  0.15012190632E+03  0.18381177215E+03  0.79402500270E+02 0.  0.
        -11    1    5    5    0    0  0.51503041842E+02  0.48065352522E+02  0.15799898903E+03  0.17299283790E+03  0.00000000000E+00 0.  1.
         12    1    5    5    0    0 -0.54236188297E+01  0.50581879352E+01 -0.78770827057E+01  0.10818934252E+02  0.00000000000E+00 0. -1.
         11    1    3    3    0    0 -0.23748151284E+02 -0.37092737798E+02 -0.18819160968E+03  0.19327681661E+03  0.00000000000E+00 0. -1.
        -12    1    3    3    0    0 -0.61869073672E+02 -0.74849902986E+02 -0.12859057919E+04  0.12895673678E+04  0.00000000000E+00 0.  1.
          5    1    4    4  501    0 -0.36171320355E+02 -0.75054443346E+01 -0.22092077075E+02  0.43246137173E+02  0.41800000000E+01 0. -1.
         -5    1    4    4    0  501  0.75709122299E+02  0.66324544662E+02  0.88931661991E+01  0.10113049604E+03  0.41800000000E+01 0. -1.
</event>
<event>
11    1  0.8328696E-009  0.1255790E+03  0.7561462E-02  0.1124823E+00
         22   -1    0    0    0    0  0.00000000000E+00  0.00000000000E+00  0.17347620149E+03  0.17347620149E+03  0.00000000000E+00 0.  1.
         22   -1    0    0    0    0 -0.00000000000E+00 -0.00000000000E+00 -0.39231713314E+03  0.39231713314E+03  0.00000000000E+00 0.  1.
         24    2    1    2    0    0  0.93685770012E+01  0.64093810104E+01 -0.31556243719E+03  0.32581893583E+03  0.80308634528E+02 0.  0.
         25    2    1    2    0    0  0.52656701984E+01 -0.18328128488E+02  0.17612581500E+02  0.12775583199E+03  0.12509077505E+03 0.  0.
        -24    2    1    2    0    0 -0.14634247200E+02  0.11918747478E+02  0.79108924038E+02  0.11221856681E+03  0.77321194655E+02 0.  0.
        -11    1    3    3    0    0  0.26247900905E+02  0.44221189932E+01 -0.30422813211E+03  0.30539034661E+03  0.00000000000E+00 0.  1.
         12    1    3    3    0    0 -0.16879323903E+02  0.19872620172E+01 -0.11334305086E+02  0.20428589221E+02  0.00000000000E+00 0. -1.
         11    1    5    5    0    0  0.28355525070E+02  0.16467002920E+01  0.98601419274E+01  0.30066090911E+02  0.00000000000E+00 0. -1.
        -12    1    5    5    0    0 -0.42989772270E+02  0.10272047186E+02  0.69248782111E+02  0.82152475903E+02  0.00000000000E+00 0.  1.
          5    1    4    4  501    0  0.17054146190E+02  0.40372908624E+02  0.43953772172E+02  0.62211109467E+02  0.41800000000E+01 0. -1.
         -5    1    4    4    0  501 -0.11788475991E+02 -0.58701037112E+02 -0.26341190672E+02  0.65544722520E+02  0.41800000000E+01 0. -1.
</event>
<event>
11    1  0.8328696E-009  0.1357054E+03  0.7561462E-02  0.1112451E+00
         22   -1    0    0    0    0  0.00000000000E+00  0.00000000000E+00  0.24009383103E+03  0.24009383103E+03  0.00000000000E+00 0. -1.
         22   -1    0    0    0    0 -0.00000000000E+00 -0.00000000000E+00 -0.29362783173E+03  0.29362783173E+03  0.00000000000E+00 0. -1.
         24    2    1    2    0    0 -0.73976477954E+01 -0.58403288194E+02 -0.18896596858E+03  0.21490864894E+03  0.83737213013E+02 0.  0.
         25    2    1    2    0    0  0.10581048858E+02  0.26867969296E+02 -0.30191769427E+02  0.13188368076E+03  0.12509163018E+03 0.  0.
        -24    2    1    2    0    0 -0.31834010625E+01  0.31535318898E+02  0.16562373731E+03  0.18692933306E+03  0.80664383817E+02 0.  0.
        -13    1    3    3    0    0  0.27569597604E+02 -0.46913304076E+01 -0.10845395335E+03  0.11200156825E+03  0.00000000000E+00 0.  1.
         14    1    3    3    0    0 -0.34967245400E+02 -0.53711957787E+02 -0.80512015236E+02  0.10290708070E+03  0.00000000000E+00 0. -1.
         11    1    5    5    0    0 -0.34639323649E+02  0.27211794460E+02  0.13794401692E+03  0.14480647881E+03  0.00000000000E+00 0. -1.
        -12    1    5    5    0    0  0.31455922586E+02  0.43235244378E+01  0.27679720389E+02  0.42122854250E+02  0.00000000000E+00 0.  1.
          5    1    4    4  501    0  0.24122025946E+02 -0.28898935402E+02 -0.56975783188E+02  0.68415881731E+02  0.41800000000E+01 0. -1.
         -5    1    4    4    0  501 -0.13540977088E+02  0.55766904699E+02  0.26784013762E+02  0.63467799027E+02  0.41800000000E+01 0. -1.
</event>
<event>
11    1  0.8328696E-009  0.1259820E+03  0.7561462E-02  0.1124307E+00
         22   -1    0    0    0    0  0.00000000000E+00  0.00000000000E+00  0.15690120899E+04  0.15690120899E+04  0.00000000000E+00 0.  1.
         22   -1    0    0    0    0 -0.00000000000E+00 -0.00000000000E+00 -0.42463045120E+02  0.42463045120E+02  0.00000000000E+00 0.  1.
        -24    2    1    2    0    0 -0.13516729903E+02 -0.59178914725E+01  0.84280585471E+02  0.12839241888E+03  0.95727074074E+02 0.  0.
         25    2    1    2    0    0  0.11110826911E+02 -0.36204845791E+02  0.20996496632E+03  0.24733137817E+03  0.12511307770E+03 0.  0.
         24    2    1    2    0    0  0.24059029917E+01  0.42122737264E+02  0.12323034930E+04  0.12357513379E+04  0.82032658842E+02 0.  0.
        -11    1    5    5    0    0  0.12260575967E+02  0.40004500210E+02  0.12150428684E+04  0.12157630747E+04  0.00000000000E+00 0.  1.
         12    1    5    5    0    0 -0.98546729750E+01  0.21182370541E+01  0.17260624608E+02  0.19988263294E+02  0.00000000000E+00 0. -1.
         13    1    3    3    0    0 -0.33820954436E+02 -0.94175337551E+01  0.97691694023E+02  0.10380854484E+03  0.00000000000E+00 0. -1.
        -14    1    3    3    0    0  0.20304224533E+02  0.34996422826E+01 -0.13411108552E+02  0.24583874035E+02  0.00000000000E+00 0.  1.
          5    1    4    4  501    0 -0.72452678595E+01 -0.59079468459E+02  0.20936298833E+03  0.21769981805E+03  0.41800000000E+01 0.  1.
         -5    1    4    4    0  501  0.18356094771E+02  0.22874622668E+02  0.60197799743E+00  0.29631560116E+02  0.41800000000E+01 0.  1.
</event>
<event>
11    1  0.8328696E-009  0.1917021E+03  0.7561462E-02  0.1060552E+00
         22   -1    0    0    0    0  0.00000000000E+00  0.00000000000E+00  0.17445113908E+04  0.17445113908E+04  0.00000000000E+00 0.  1.
         22   -1    0    0    0    0 -0.00000000000E+00 -0.00000000000E+00 -0.14795184582E+03  0.14795184582E+03  0.00000000000E+00 0. -1.
        -24    2    1    2    0    0  0.10403374152E+03  0.94460838242E+02 -0.42851001839E+02  0.16472082842E+03  0.74504185263E+02 0.  0.
         25    2    1    2    0    0 -0.12320062924E+03 -0.10905167578E+03  0.20398274839E+03  0.29039099651E+03  0.12508919290E+03 0.  0.
         24    2    1    2    0    0  0.19166887724E+02  0.14590837542E+02  0.14354277984E+04  0.14373514117E+04  0.70326766242E+02 0.  0.
        -13    1    5    5    0    0  0.35124505175E+00  0.10411750303E+02  0.13377279547E+04  0.13377685184E+04  0.00000000000E+00 0.  1.
         14    1    5    5    0    0  0.18815642672E+02  0.41790872391E+01  0.97699843664E+02  0.99582893266E+02  0.00000000000E+00 0. -1.
         11    1    3    3    0    0  0.11515800933E+03  0.78047063621E+02 -0.35483996336E+02  0.14356819024E+03  0.00000000000E+00 0. -1.
        -12    1    3    3    0    0 -0.11124267818E+02  0.16413774621E+02 -0.73670055026E+01  0.21152638178E+02  0.00000000000E+00 0.  1.
          5    1    4    4  501    0 -0.82131224653E+02 -0.28982069308E+02  0.26132244509E+02  0.91026726885E+02  0.41800000000E+01 0.  1.
         -5    1    4    4    0  501 -0.41069404587E+02 -0.80069606476E+02  0.17785050388E+03  0.19936426963E+03  0.41800000000E+01 0.  1.
</event>
<event>
11    1  0.8328696E-009  0.1541083E+03  0.7561462E-02  0.1092753E+00
         22   -1    0    0    0    0  0.00000000000E+00  0.00000000000E+00  0.24475122771E+03  0.24475122771E+03  0.00000000000E+00 0.  1.
         22   -1    0    0    0    0 -0.00000000000E+00 -0.00000000000E+00 -0.52321116612E+03  0.52321116612E+03  0.00000000000E+00 0. -1.
        -24    2    1    2    0    0  0.39857928406E+02 -0.31051156811E+02 -0.35466476631E+03  0.36708476945E+03  0.80070610696E+02 0.  0.
         25    2    1    2    0    0 -0.80513284740E+02 -0.50340708275E+02 -0.10059100509E+03  0.18650130652E+03  0.12509041170E+03 0.  0.
         24    2    1    2    0    0  0.40655356334E+02  0.81391865086E+02  0.17679583300E+03  0.21437631787E+03  0.80143280440E+02 0.  0.
        -11    1    5    5    0    0  0.59993200356E+02  0.76637338409E+02  0.12194576386E+03  0.15602318755E+03  0.00000000000E+00 0.  1.
         12    1    5    5    0    0 -0.19337844023E+02  0.47545266771E+01  0.54850069132E+02  0.58353130329E+02  0.00000000000E+00 0. -1.
         11    1    3    3    0    0  0.99519649802E+01 -0.55290134428E+02 -0.21231587737E+03  0.21962256795E+03  0.00000000000E+00 0. -1.
        -12    1    3    3    0    0  0.29905963426E+02  0.24238977616E+02 -0.14234888895E+03  0.14746220149E+03  0.00000000000E+00 0.  1.
          5    1    4    4  501    0 -0.61957034808E+01 -0.17617513633E+02 -0.10338657366E+03  0.10514285302E+03  0.41800000000E+01 0.  1.
         -5    1    4    4    0  501 -0.74317581259E+02 -0.32723194642E+02  0.27955685699E+01  0.81358453497E+02  0.41800000000E+01 0.  1.
</event>
<event>
11    1  0.8328696E-009  0.1280824E+03  0.7561462E-02  0.1121648E+00
         22   -1    0    0    0    0  0.00000000000E+00  0.00000000000E+00  0.10550920843E+04  0.10550920843E+04  0.00000000000E+00 0.  1.
         22   -1    0    0    0    0 -0.00000000000E+00 -0.00000000000E+00 -0.16735110931E+03  0.16735110931E+03  0.00000000000E+00 0.  1.
         24    2    1    2    0    0 -0.12155037880E+02 -0.24223624022E+02 -0.11241575345E+03  0.14108469241E+03  0.80827346262E+02 0.  0.
         25    2    1    2    0    0  0.57784861014E+01  0.31453526202E+02  0.68126105059E+02  0.14597977079E+03  0.12508481954E+03 0.  0.
        -24    2    1    2    0    0  0.63765517785E+01 -0.72299021799E+01  0.93203062340E+03  0.93537873043E+03  0.78481555058E+02 0.  0.
        -11    1    3    3    0    0 -0.25080680188E+02 -0.43211353090E+02 -0.36786899033E+02  0.62044641147E+02  0.00000000000E+00 0.  1.
         12    1    3    3    0    0  0.12925642308E+02  0.18987729068E+02 -0.75628854413E+02  0.79040051266E+02  0.00000000000E+00 0. -1.
         13    1    5    5    0    0  0.33577154081E+02 -0.10628287996E+02  0.21837194553E+03  0.22119378919E+03  0.00000000000E+00 0. -1.
        -14    1    5    5    0    0 -0.27200602303E+02  0.33983858164E+01  0.71365867787E+03  0.71418494124E+03  0.00000000000E+00 0.  1.
          5    1    4    4  501    0 -0.27210455390E+02  0.65612696608E+02  0.11696598830E+02  0.72109067827E+02  0.41800000000E+01 0.  1.
         -5    1    4    4    0  501  0.32988941491E+02 -0.34159170406E+02  0.56429506229E+02  0.73870702966E+02  0.41800000000E+01 0.  1.
</event>
<event>
11    1  0.8328696E-009  0.1394232E+03  0.7561462E-02  0.1108204E+00
         22   -1    0    0    0    0  0.00000000000E+00  0.00000000000E+00  0.86963054328E+02  0.86963054328E+02  0.00000000000E+00 0.  1.
         22   -1    0    0    0    0 -0.00000000000E+00 -0.00000000000E+00 -0.26830096685E+04  0.26830096685E+04  0.00000000000E+00 0. -1.
        -24    2    1    2    0    0 -0.42628956861E+02  0.39944780481E+02 -0.18397050570E+04  0.18424520276E+04  0.81865522583E+02 0.  0.
         25    2    1    2    0    0  0.94545212019E+02 -0.84060371415E+01 -0.80268564015E+03  0.81790085848E+03  0.12509244107E+03 0.  0.
         24    2    1    2    0    0 -0.51916255158E+02 -0.31538743340E+02  0.46344082997E+02  0.10961983674E+03  0.78604991553E+02 0.  0.
        -11    1    5    5    0    0 -0.42775612080E+02 -0.52813007772E+02  0.52246750560E+02  0.85724498965E+02  0.00000000000E+00 0.  1.
         12    1    5    5    0    0 -0.91406430787E+01  0.21274264432E+02 -0.59026675634E+01  0.23895337775E+02  0.00000000000E+00 0. -1.
         13    1    3    3    0    0 -0.63013211717E+02  0.26409531640E+02 -0.16096463127E+04  0.16110957080E+04  0.00000000000E+00 0. -1.
        -14    1    3    3    0    0  0.20384254856E+02  0.13535248841E+02 -0.23005874434E+03  0.23135631967E+03  0.00000000000E+00 0.  1.
          5    1    4    4  501    0  0.69986036962E+02  0.48367779778E+02 -0.31585059510E+03  0.32713385382E+03  0.41800000000E+01 0.  1.
         -5    1    4    4    0  501  0.24559175058E+02 -0.56773816919E+02 -0.48683504506E+03  0.49076700466E+03  0.41800000000E+01 0.  1.
</event>
<event>
11    1  0.8328696E-009  0.1434940E+03  0.7561462E-02  0.1103718E+00
         22   -1    0    0    0    0  0.00000000000E+00  0.00000000000E+00  0.66955703298E+03  0.66955703298E+03  0.00000000000E+00 0. -1.
         22   -1    0    0    0    0 -0.00000000000E+00 -0.00000000000E+00 -0.17797389637E+03  0.17797389637E+03  0.00000000000E+00 0.  1.
         24    2    1    2    0    0 -0.15243736722E+02  0.18192024185E+02 -0.12385632822E+03  0.14930413625E+03  0.79925051203E+02 0.  0.
         25    2    1    2    0    0 -0.55884229596E+02 -0.25503256964E+01  0.95403452833E+02  0.16696938358E+03  0.12508958775E+03 0.  0.
        -24    2    1    2    0    0  0.71127966318E+02 -0.15641698489E+02  0.52003601200E+03  0.53125740952E+03  0.80579966955E+02 0.  0.
        -11    1    3    3    0    0 -0.33856605532E+02  0.26145892620E+01 -0.12002024553E+03  0.12473157240E+03  0.00000000000E+00 0.  1.
         12    1    3    3    0    0  0.18612868810E+02  0.15577434923E+02 -0.38360826861E+01  0.24572563857E+02  0.00000000000E+00 0. -1.
         13    1    5    5    0    0  0.42579756754E+02  0.82867023360E+01  0.44860249684E+03  0.45069491376E+03  0.00000000000E+00 0. -1.
        -14    1    5    5    0    0  0.28548209564E+02 -0.23928400825E+02  0.71433515160E+02  0.80562495762E+02  0.00000000000E+00 0.  1.
          5    1    4    4  501    0 -0.89803770389E+02  0.23883558451E+02  0.56530249710E+02  0.10884981889E+03  0.41800000000E+01 0. -1.
         -5    1    4    4    0  501  0.33919540793E+02 -0.26433884148E+02  0.38873203123E+02  0.58119564691E+02  0.41800000000E+01 0. -1.
</event>
<event>
11    1  0.8328696E-009  0.1820995E+03  0.7561462E-02  0.1067957E+00
         22   -1    0    0    0    0  0.00000000000E+00  0.00000000000E+00  0.30499418429E+03  0.30499418429E+03  0.00000000000E+00 0. -1.
         22   -1    0    0    0    0 -0.00000000000E+00 -0.00000000000E+00 -0.10086262788E+04  0.10086262788E+04  0.00000000000E+00 0.  1.
         24    2    1    2    0    0  0.21589930016E+01 -0.27107071818E+02 -0.83320589249E+03  0.83747751861E+03  0.79981749861E+02 0.  0.
         25    2    1    2    0    0 -0.40928076313E+02  0.14971919483E+03 -0.82080487498E+02  0.21558108429E+03  0.12508817988E+03 0.  0.
        -24    2    1    2    0    0  0.38769083312E+02 -0.12261212302E+03  0.21165428543E+03  0.26056186023E+03  0.80982540928E+02 0.  0.
        -13    1    3    3    0    0 -0.30075933168E+02  0.12944589238E+02 -0.36053263594E+03  0.36201644400E+03  0.00000000000E+00 0.  1.
         14    1    3    3    0    0  0.32234926169E+02 -0.40051661056E+02 -0.47267325655E+03  0.47546107462E+03  0.00000000000E+00 0. -1.
         13    1    5    5    0    0 -0.19042086928E+02 -0.37801374059E+02  0.10164565985E+03  0.11010624470E+03  0.00000000000E+00 0. -1.
        -14    1    5    5    0    0  0.57811170240E+02 -0.84810748957E+02  0.11000862557E+03  0.15045561553E+03  0.00000000000E+00 0.  1.
          5    1    4    4  501    0 -0.37504293402E+02 -0.76040071190E+01 -0.32964531434E+02  0.50680624311E+02  0.41800000000E+01 0. -1.
         -5    1    4    4    0  501 -0.34237829112E+01  0.15732320195E+03 -0.49115956064E+02  0.16490045998E+03  0.41800000000E+01 0. -1.
</event>
<event>
11    1  0.8328696E-009  0.2138097E+03  0.7561462E-02  0.1045166E+00
         22   -1    0    0    0    0  0.00000000000E+00  0.00000000000E+00  0.14536376819E+04  0.14536376819E+04  0.00000000000E+00 0.  1.
         22   -1    0    0    0    0 -0.00000000000E+00 -0.00000000000E+00 -0.20432180185E+03  0.20432180185E+03  0.00000000000E+00 0.  1.
        -24    2    1    2    0    0  0.13903898470E+01 -0.64102369256E+02 -0.11805741749E+03  0.15605791362E+03  0.79407000011E+02 0.  0.
         25    2    1    2    0    0  0.11909231363E+03  0.18181570843E+03  0.20310494243E+03  0.32271824912E+03  0.12512201917E+03 0.  0.
         24    2    1    2    0    0 -0.12048270348E+03 -0.11771333917E+03  0.11642683551E+04  0.11791833210E+04  0.81117136207E+02 0.  0.
        -11    1    5    5    0    0 -0.12404568411E+03 -0.96753945265E+02  0.86709652333E+03  0.88125197217E+03  0.00000000000E+00 0.  1.
         12    1    5    5    0    0  0.35629806250E+01 -0.20959393906E+02  0.29717183179E+03  0.29793134886E+03  0.00000000000E+00 0. -1.
         11    1    3    3    0    0  0.69982904705E+01 -0.28418202082E+02  0.32869174618E+01  0.29451215688E+02  0.00000000000E+00 0. -1.
        -12    1    3    3    0    0 -0.56079006234E+01 -0.35684167174E+02 -0.12134433495E+03  0.12660669793E+03  0.00000000000E+00 0.  1.
          5    1    4    4  501    0  0.11046406975E+03  0.90940062380E+02  0.17708943859E+03  0.22770715252E+03  0.41800000000E+01 0.  1.
         -5    1    4    4    0  501  0.86282438840E+01  0.90875646047E+02  0.26015503841E+02  0.95011096599E+02  0.41800000000E+01 0.  1.
</event>
<event>
11    1  0.8328696E-009  0.1436555E+03  0.7561462E-02  0.1103544E+00
         22   -1    0    0    0    0  0.00000000000E+00  0.00000000000E+00  0.34558593127E+03  0.34558593127E+03  0.00000000000E+00 0. -1.
         22   -1    0    0    0    0 -0.00000000000E+00 -0.00000000000E+00 -0.42497209732E+03  0.42497209732E+03  0.00000000000E+00 0. -1.
         24    2    1    2    0    0 -0.61608496546E+02 -0.35626453944E+02 -0.35948047078E+03  0.37471331246E+03  0.78224079416E+02 0.  0.
         25    2    1    2    0    0  0.48338801054E+02  0.43890726658E+02  0.46830511704E+02  0.14866924639E+03  0.12508562036E+03 0.  0.
        -24    2    1    2    0    0  0.13269695492E+02 -0.82642727149E+01  0.23326379303E+03  0.24717546974E+03  0.80245452702E+02 0.  0.
        -13    1    3    3    0    0 -0.73522785572E+02 -0.48060668143E+02 -0.31493864359E+03  0.32695837204E+03  0.00000000000E+00 0.  1.
         14    1    3    3    0    0  0.11914289026E+02  0.12434214200E+02 -0.44541827184E+02  0.47754940421E+02  0.00000000000E+00 0. -1.
         11    1    5    5    0    0  0.36221142789E+02  0.13263220194E+02  0.18881887650E+03  0.19271858322E+03  0.00000000000E+00 0. -1.
        -12    1    5    5    0    0 -0.22951447297E+02 -0.21527492909E+02  0.44444916527E+02  0.54456886517E+02  0.00000000000E+00 0.  1.
          5    1    4    4  501    0  0.51974404466E+02  0.30043337824E+01  0.80129654154E+02  0.95648306916E+02  0.41800000000E+01 0.  1.
         -5    1    4    4    0  501 -0.36356034114E+01  0.40886392876E+02 -0.33299142451E+02  0.53020939472E+02  0.41800000000E+01 0.  1.
</event>
<event>
11    1  0.8328696E-009  0.1368157E+03  0.7561462E-02  0.1111167E+00
         22   -1    0    0    0    0  0.00000000000E+00  0.00000000000E+00  0.31097097318E+03  0.31097097318E+03  0.00000000000E+00 0. -1.
         22   -1    0    0    0    0 -0.00000000000E+00 -0.00000000000E+00 -0.56488333193E+03  0.56488333193E+03  0.00000000000E+00 0.  1.
        -24    2    1    2    0    0 -0.34978559802E+02  0.38033450344E+02 -0.39073464468E+03  0.40300481326E+03  0.84078974580E+02 0.  0.
         25    2    1    2    0    0  0.54983769164E+02 -0.52123720252E+02 -0.12851249395E+03  0.19468653786E+03  0.12508912758E+03 0.  0.
         24    2    1    2    0    0 -0.20005209362E+02  0.14090269907E+02  0.26533477988E+03  0.27816295398E+03  0.79833197640E+02 0.  0.
        -13    1    5    5    0    0 -0.85070041557E+01 -0.22847180377E+02  0.25693420717E+02  0.35419128152E+02  0.00000000000E+00 0.  1.
         14    1    5    5    0    0 -0.11498205206E+02  0.36937450284E+02  0.23964135917E+03  0.24274382583E+03  0.00000000000E+00 0. -1.
         11    1    3    3    0    0  0.24686465765E+02  0.12333830773E+02 -0.61292676907E+02  0.67218577907E+02  0.00000000000E+00 0. -1.
        -12    1    3    3    0    0 -0.59665025566E+02  0.25699619571E+02 -0.32944196777E+03  0.33578623535E+03  0.00000000000E+00 0.  1.
          5    1    4    4  501    0  0.35684011616E+02 -0.46223673336E+02  0.57732896285E+01  0.58828393951E+02  0.41800000000E+01 0. -1.
         -5    1    4    4    0  501  0.19299757548E+02 -0.59000469158E+01 -0.13428578358E+03  0.13585814391E+03  0.41800000000E+01 0. -1.
</event>
<event>
11    1  0.8328696E-009  0.2081218E+03  0.7561462E-02  0.1048924E+00
         22   -1    0    0    0    0  0.00000000000E+00  0.00000000000E+00  0.12274578394E+03  0.12274578394E+03  0.00000000000E+00 0. -1.
         22   -1    0    0    0    0 -0.00000000000E+00 -0.00000000000E+00 -0.10109605033E+04  0.10109605033E+04  0.00000000000E+00 0. -1.
         24    2    1    2    0    0  0.14326490525E+03  0.91078928947E+02 -0.77983700434E+03  0.80240224274E+03  0.82966266956E+02 0.  0.
         25    2    1    2    0    0 -0.11703223348E+03 -0.96612841412E+02 -0.13817007031E+03  0.24035347941E+03  0.12509293321E+03 0.  0.
        -24    2    1    2    0    0 -0.26232671777E+02  0.55339124650E+01  0.29792355320E+02  0.90950565056E+02  0.81643392830E+02 0.  0.
        -13    1    3    3    0    0  0.67377240438E+02  0.72708845319E+02 -0.29226562905E+03  0.30861864273E+03  0.00000000000E+00 0.  1.
         14    1    3    3    0    0  0.75887664815E+02  0.18370083628E+02 -0.48757137529E+03  0.49378360002E+03  0.00000000000E+00 0. -1.
         11    1    5    5    0    0 -0.43419387207E+02  0.23179176648E+02  0.40838146507E+02  0.63955231417E+02  0.00000000000E+00 0. -1.
        -12    1    5    5    0    0  0.17186715430E+02 -0.17645264183E+02 -0.11045791187E+02  0.26995333639E+02  0.00000000000E+00 0.  1.
          5    1    4    4  501    0 -0.65476365092E+02 -0.94629400529E+02 -0.27814360154E+02  0.11846091702E+03  0.41800000000E+01 0.  1.
         -5    1    4    4    0  501 -0.51555868384E+02 -0.19834408837E+01 -0.11035571016E+03  0.12189256240E+03  0.41800000000E+01 0.  1.
</event>
<event>
11    1  0.8328696E-009  0.1646915E+03  0.7561462E-02  0.1082746E+00
         22   -1    0    0    0    0  0.00000000000E+00  0.00000000000E+00  0.11386890238E+04  0.11386890238E+04  0.00000000000E+00 0.  1.
         22   -1    0    0    0    0 -0.00000000000E+00 -0.00000000000E+00 -0.25991584068E+03  0.25991584068E+03  0.00000000000E+00 0.  1.
        -24    2    1    2    0    0  0.70428861804E+02 -0.87182428569E+02 -0.21543298767E+03  0.25483002235E+03  0.77239676887E+02 0.  0.
         25    2    1    2    0    0 -0.44193200567E+02  0.33264639082E+02  0.19018401090E+03  0.23426113414E+03  0.12509494705E+03 0.  0.
         24    2    1    2    0    0 -0.26235661237E+02  0.53917789486E+02  0.90402215988E+03  0.90951370799E+03  0.79772686571E+02 0.  0.
        -13    1    5    5    0    0 -0.14402671946E+01  0.63213583455E+02  0.41643008820E+03  0.42120309811E+03  0.00000000000E+00 0.  1.
         14    1    5    5    0    0 -0.24795394043E+02 -0.92957939690E+01  0.48759207169E+03  0.48831060988E+03  0.00000000000E+00 0. -1.
         11    1    3    3    0    0  0.61230194549E+02 -0.14597271325E+02 -0.98948058102E+02  0.11727290930E+03  0.00000000000E+00 0. -1.
        -12    1    3    3    0    0  0.91986672551E+01 -0.72585157244E+02 -0.11648492957E+03  0.13755711304E+03  0.00000000000E+00 0.  1.
          5    1    4    4  501    0 -0.35206839263E+01  0.74992307411E+02  0.13135182145E+03  0.15135063523E+03  0.41800000000E+01 0. -1.
         -5    1    4    4    0  501 -0.40672516641E+02 -0.41727668329E+02  0.58832189451E+02  0.82910498910E+02  0.41800000000E+01 0. -1.
</event>
<event>
11    1  0.8328696E-009  0.1565984E+03  0.7561462E-02  0.1090321E+00
         22   -1    0    0    0    0  0.00000000000E+00  0.00000000000E+00  0.38862010768E+03  0.38862010768E+03  0.00000000000E+00 0. -1.
         22   -1    0    0    0    0 -0.00000000000E+00 -0.00000000000E+00 -0.33618411584E+03  0.33618411584E+03  0.00000000000E+00 0. -1.
         24    2    1    2    0    0  0.90809113531E+02 -0.30122963708E+02 -0.25957007674E+03  0.28831345250E+03  0.81205505430E+02 0.  0.
         25    2    1    2    0    0  0.19662551643E+02  0.68060217726E+02  0.80062460994E+02  0.16454789956E+03  0.12508878613E+03 0.  0.
        -24    2    1    2    0    0 -0.11047166517E+03 -0.37937254018E+02  0.23194360759E+03  0.27194287145E+03  0.80696122463E+02 0.  0.
        -13    1    3    3    0    0  0.30579784837E+02  0.22755520835E+02 -0.43393351568E+02  0.57757423155E+02  0.00000000000E+00 0.  1.
         14    1    3    3    0    0  0.60229328694E+02 -0.52878484543E+02 -0.21617672517E+03  0.23055602935E+03  0.00000000000E+00 0. -1.
         13    1    5    5    0    0 -0.11678300244E+03 -0.40183664158E+02  0.17267104433E+03  0.21229292516E+03  0.00000000000E+00 0. -1.
        -14    1    5    5    0    0  0.63113372635E+01  0.22464101397E+01  0.59272563261E+02  0.59649946287E+02  0.00000000000E+00 0.  1.
          5    1    4    4  501    0 -0.26511630868E+02  0.36390210856E+02 -0.20286287180E+02  0.49559256098E+02  0.41800000000E+01 0.  1.
         -5    1    4    4    0  501  0.46174182511E+02  0.31670006870E+02  0.10034874817E+03  0.11498864346E+03  0.41800000000E+01 0.  1.
</event>
<event>
11    1  0.8328696E-009  0.2488094E+03  0.7561462E-02  0.1024535E+00
         22   -1    0    0    0    0  0.00000000000E+00  0.00000000000E+00  0.13847692319E+04  0.13847692319E+04  0.00000000000E+00 0.  1.
         22   -1    0    0    0    0 -0.00000000000E+00 -0.00000000000E+00 -0.90005045525E+03  0.90005045525E+03  0.00000000000E+00 0. -1.
         24    2    1    2    0    0  0.73763286535E+01  0.25795897000E+02 -0.84336946586E+03  0.84714907685E+03  0.75297170776E+02 0.  0.
         25    2    1    2    0    0 -0.18714440025E+03  0.95726579151E+02  0.31765598239E+03  0.40092506821E+03  0.12509589390E+03 0.  0.
        -24    2    1    2    0    0  0.17976807159E+03 -0.12152247615E+03  0.10104322601E+04  0.10367455421E+04  0.82363189444E+02 0.  0.
        -11    1    3    3    0    0 -0.21983734862E+02  0.15862260481E+02 -0.11623827033E+03  0.11935757787E+03  0.00000000000E+00 0.  1.
         12    1    3    3    0    0  0.29360063516E+02  0.99336365190E+01 -0.72713119553E+03  0.72779149897E+03  0.00000000000E+00 0. -1.
         11    1    5    5    0    0  0.34121745228E+02  0.78929884791E+00  0.78422729806E+02  0.85528013190E+02  0.00000000000E+00 0. -1.
        -12    1    5    5    0    0  0.14564632637E+03 -0.12231177500E+03  0.93200953033E+03  0.95121752891E+03  0.00000000000E+00 0.  1.
          5    1    4    4  501    0 -0.10418591960E+03 -0.14786907405E+02  0.15592835986E+03  0.18816079369E+03  0.41800000000E+01 0.  1.
         -5    1    4    4    0  501 -0.82958480653E+02  0.11051348656E+03  0.16172762253E+03  0.21276427452E+03  0.41800000000E+01 0.  1.
</event>
<event>
11    1  0.8328696E-009  0.1441845E+03  0.7561462E-02  0.1102974E+00
         22   -1    0    0    0    0  0.00000000000E+00  0.00000000000E+00  0.43545353689E+03  0.43545353689E+03  0.00000000000E+00 0. -1.
         22   -1    0    0    0    0 -0.00000000000E+00 -0.00000000000E+00 -0.70477871877E+03  0.70477871877E+03  0.00000000000E+00 0. -1.
         24    2    1    2    0    0  0.34277328575E+02 -0.57957629706E+02 -0.52522512495E+03  0.53568230430E+03  0.80994303284E+02 0.  0.
         25    2    1    2    0    0 -0.69389655895E+02  0.80637484148E+02 -0.12911732711E+03  0.20889392106E+03  0.12509219761E+03 0.  0.
        -24    2    1    2    0    0  0.35112327321E+02 -0.22679854442E+02  0.38501727018E+03  0.39565603029E+03  0.80982372433E+02 0.  0.
        -11    1    3    3    0    0  0.18844621006E+02 -0.12417151175E+02 -0.27208678847E+02  0.35349930534E+02  0.00000000000E+00 0.  1.
         12    1    3    3    0    0  0.15432707569E+02 -0.45540478531E+02 -0.49801644611E+03  0.50033237377E+03  0.00000000000E+00 0. -1.
         13    1    5    5    0    0  0.46377747694E+02 -0.32414462686E+02  0.15243548912E+03  0.16259818946E+03  0.00000000000E+00 0. -1.
        -14    1    5    5    0    0 -0.11265420374E+02  0.97346082438E+01  0.23258178106E+03  0.23305784083E+03  0.00000000000E+00 0.  1.
          5    1    4    4  501    0 -0.25157256465E+02  0.49765077878E+02 -0.14256985139E+03  0.15314400234E+03  0.41800000000E+01 0. -1.
         -5    1    4    4    0  501 -0.44232399431E+02  0.30872406270E+02  0.13452524274E+02  0.55749918723E+02  0.41800000000E+01 0. -1.
</event>
<event>
11    1  0.8328696E-009  0.1491557E+03  0.7561462E-02  0.1097745E+00
         22   -1    0    0    0    0  0.00000000000E+00  0.00000000000E+00  0.12774141794E+04  0.12774141794E+04  0.00000000000E+00 0. -1.
         22   -1    0    0    0    0 -0.00000000000E+00 -0.00000000000E+00 -0.22107997525E+03  0.22107997525E+03  0.00000000000E+00 0. -1.
        -24    2    1    2    0    0  0.76751339237E+02  0.29727227662E+02 -0.17957168847E+03  0.21315189309E+03  0.80082845165E+02 0.  0.
         25    2    1    2    0    0 -0.69237548595E+02 -0.65452498732E+01  0.19927179138E+03  0.24534410879E+03  0.12509119252E+03 0.  0.
         24    2    1    2    0    0 -0.75137906421E+01 -0.23181977789E+02  0.10366341013E+04  0.10399981528E+04  0.79950214378E+02 0.  0.
        -13    1    5    5    0    0 -0.18626306220E+02 -0.10879886310E+02  0.70601670527E+02  0.73823486037E+02  0.00000000000E+00 0.  1.
         14    1    5    5    0    0  0.11112515578E+02 -0.12302091478E+02  0.96603243074E+03  0.96617466677E+03  0.00000000000E+00 0. -1.
         13    1    3    3    0    0  0.32771512701E+02  0.23014220867E+02 -0.15931017969E+03  0.16426612481E+03  0.00000000000E+00 0. -1.
        -14    1    3    3    0    0  0.43979826537E+02  0.67130067946E+01 -0.20261508775E+02  0.48885768279E+02  0.00000000000E+00 0.  1.
          5    1    4    4  501    0 -0.41359088711E+02  0.53889628678E+02  0.14188875545E+03  0.15736758758E+03  0.41800000000E+01 0. -1.
         -5    1    4    4    0  501 -0.27878459884E+02 -0.60434878551E+02  0.57383035927E+02  0.87976521204E+02  0.41800000000E+01 0. -1.
</event>
<event>
11    1  0.8328696E-009  0.1278351E+03  0.7561462E-02  0.1121958E+00
         22   -1    0    0    0    0  0.00000000000E+00  0.00000000000E+00  0.15809467365E+03  0.15809467365E+03  0.00000000000E+00 0. -1.
         22   -1    0    0    0    0 -0.00000000000E+00 -0.00000000000E+00 -0.19421516196E+04  0.19421516196E+04  0.00000000000E+00 0. -1.
        -24    2    1    2    0    0 -0.15225912712E+01  0.33883493427E+01 -0.15595315547E+04  0.15616280462E+04  0.80806467886E+02 0.  0.
         25    2    1    2    0    0  0.14141173401E+02  0.19830797567E+02 -0.35818004518E+03  0.38017559329E+03  0.12508918279E+03 0.  0.
         24    2    1    2    0    0 -0.12618582129E+02 -0.23219146910E+02  0.13365465392E+03  0.15844265380E+03  0.80883562189E+02 0.  0.
        -11    1    5    5    0    0  0.16020685484E+02 -0.43659609452E+02  0.97334579110E+02  0.10787420522E+03  0.00000000000E+00 0.  1.
         12    1    5    5    0    0 -0.28639267613E+02  0.20440462542E+02  0.36320074808E+02  0.50568448586E+02  0.00000000000E+00 0. -1.
         11    1    3    3    0    0  0.20616153555E+02 -0.10910319378E+02 -0.13776054791E+04  0.13778029310E+04  0.00000000000E+00 0. -1.
        -12    1    3    3    0    0 -0.22138744826E+02  0.14298668721E+02 -0.18192607564E+03  0.18382511511E+03  0.00000000000E+00 0.  1.
          5    1    4    4  501    0  0.94641032760E+01 -0.12174741190E+02 -0.34439852811E+03  0.34476892571E+03  0.41800000000E+01 0. -1.
         -5    1    4    4    0  501  0.46770701246E+01  0.32005538757E+02 -0.13781517069E+02  0.35406667576E+02  0.41800000000E+01 0. -1.
</event>
<event>
11    1  0.8328696E-009  0.1268273E+03  0.7561462E-02  0.1123230E+00
         22   -1    0    0    0    0  0.00000000000E+00  0.00000000000E+00  0.10086273563E+03  0.10086273563E+03  0.00000000000E+00 0.  1.
         22   -1    0    0    0    0 -0.00000000000E+00 -0.00000000000E+00 -0.91482962047E+03  0.91482962047E+03  0.00000000000E+00 0. -1.
         24    2    1    2    0    0 -0.19181180227E+02  0.11240878654E+02 -0.71817330903E+03  0.72303088409E+03  0.80662770333E+02 0.  0.
         25    2    1    2    0    0 -0.72630162794E+01 -0.25424622229E+02 -0.14776704208E+03  0.19540167625E+03  0.12509018161E+03 0.  0.
        -24    2    1    2    0    0  0.26444196506E+02  0.14183743574E+02  0.51973466278E+02  0.97259795751E+02  0.76535956006E+02 0.  0.
        -11    1    3    3    0    0  0.13548422841E+02  0.25929885829E+01 -0.21558419659E+02  0.25593921338E+02  0.00000000000E+00 0.  1.
         12    1    3    3    0    0 -0.32729603068E+02  0.86478900714E+01 -0.69661488938E+03  0.69743696276E+03  0.00000000000E+00 0. -1.
         11    1    5    5    0    0 -0.86209750644E+01  0.19340504564E+02  0.57604366495E+02  0.61372953058E+02  0.00000000000E+00 0. -1.
        -12    1    5    5    0    0  0.35065171571E+02 -0.51567609893E+01 -0.56309002161E+01  0.35886842692E+02  0.00000000000E+00 0.  1.
          5    1    4    4  501    0  0.41082129451E+02  0.13633954359E+02 -0.11917480407E+03  0.12686107518E+03  0.41800000000E+01 0. -1.
         -5    1    4    4    0  501 -0.48345145730E+02 -0.39058576587E+02 -0.28592238018E+02  0.68540601074E+02  0.41800000000E+01 0. -1.
</event>
<event>
11    1  0.8328696E-009  0.1896192E+03  0.7561462E-02  0.1062117E+00
         22   -1    0    0    0    0  0.00000000000E+00  0.00000000000E+00  0.59319797026E+03  0.59319797026E+03  0.00000000000E+00 0.  1.
         22   -1    0    0    0    0 -0.00000000000E+00 -0.00000000000E+00 -0.13533623247E+04  0.13533623247E+04  0.00000000000E+00 0.  1.
        -24    2    1    2    0    0  0.79744208962E+01 -0.68270607108E+02 -0.12577453497E+04  0.12621265673E+04  0.79471001259E+02 0.  0.
         25    2    1    2    0    0  0.13464863258E+03  0.75510742698E+02  0.45853790591E+02  0.20391763211E+03  0.12509078326E+03 0.  0.
         24    2    1    2    0    0 -0.14262305348E+03 -0.72401355891E+01  0.45172720467E+03  0.48051609553E+03  0.80277616337E+02 0.  0.
        -11    1    5    5    0    0 -0.98075885418E+02 -0.86614827190E+01  0.18009226643E+03  0.20524893425E+03  0.00000000000E+00 0.  1.
         12    1    5    5    0    0 -0.44547168060E+02  0.14213471298E+01  0.27163493824E+03  0.27526716128E+03  0.00000000000E+00 0. -1.
         13    1    3    3    0    0  0.22867527090E+02 -0.67294014491E+02 -0.59745943635E+03  0.60167199225E+03  0.00000000000E+00 0. -1.
        -14    1    3    3    0    0 -0.14893106193E+02 -0.97659261763E+00 -0.66028591332E+03  0.66045457502E+03  0.00000000000E+00 0.  1.
          5    1    4    4  501    0  0.24289846156E+02  0.20617913492E+02 -0.41719521453E+02  0.52660097353E+02  0.41800000000E+01 0.  1.
         -5    1    4    4    0  501  0.11035878643E+03  0.54892829206E+02  0.87573312043E+02  0.15125753476E+03  0.41800000000E+01 0.  1.
</event>
<event>
11    1  0.8328696E-009  0.1369839E+03  0.7561462E-02  0.1110974E+00
         22   -1    0    0    0    0  0.00000000000E+00  0.00000000000E+00  0.58718731803E+03  0.58718731803E+03  0.00000000000E+00 0.  1.
         22   -1    0    0    0    0 -0.00000000000E+00 -0.00000000000E+00 -0.53356631519E+03  0.53356631519E+03  0.00000000000E+00 0. -1.
         24    2    1    2    0    0  0.39223544749E+02  0.38817313959E+02 -0.49995591650E+03  0.50923767080E+03  0.79509852167E+02 0.  0.
         25    2    1    2    0    0 -0.75225331554E+02 -0.59253929580E+02  0.25608858746E+03  0.30066224479E+03  0.12508613887E+03 0.  0.
        -24    2    1    2    0    0  0.36001786806E+02  0.20436615621E+02  0.29748833188E+03  0.31085371763E+03  0.80105819071E+02 0.  0.
        -11    1    3    3    0    0 -0.89392451237E+01  0.46599830200E+02 -0.27356397628E+03  0.27764852494E+03  0.00000000000E+00 0.  1.
         12    1    3    3    0    0  0.48162789873E+02 -0.77825162413E+01 -0.22639194021E+03  0.23158914586E+03  0.00000000000E+00 0. -1.
         13    1    5    5    0    0  0.66859917710E+01  0.42320433420E+02  0.84448193488E+02  0.94695400913E+02  0.00000000000E+00 0. -1.
        -14    1    5    5    0    0  0.29315795035E+02 -0.21883817799E+02  0.21304013839E+03  0.21615831671E+03  0.00000000000E+00 0.  1.
          5    1    4    4  501    0 -0.59786552692E+02 -0.58220535521E+02  0.57501900190E+02  0.10142979624E+03  0.41800000000E+01 0.  1.
         -5    1    4    4    0  501 -0.15438778862E+02 -0.10333940585E+01  0.19858668727E+03  0.19923244855E+03  0.41800000000E+01 0.  1.
</event>
<event>
11    1  0.8328696E-009  0.1481978E+03  0.7561462E-02  0.1098735E+00
         22   -1    0    0    0    0  0.00000000000E+00  0.00000000000E+00  0.69832026502E+03  0.69832026502E+03  0.00000000000E+00 0. -1.
         22   -1    0    0    0    0 -0.00000000000E+00 -0.00000000000E+00 -0.19625822921E+03  0.19625822921E+03  0.00000000000E+00 0.  1.
        -24    2    1    2    0    0 -0.61080168848E+02 -0.15999582569E+02 -0.13131555881E+03  0.16370196295E+03  0.74617578486E+02 0.  0.
         25    2    1    2    0    0  0.12917625461E+03  0.38345217838E+02  0.15511989164E+03  0.24055424384E+03  0.12508918003E+03 0.  0.
         24    2    1    2    0    0 -0.68096085764E+02 -0.22345635269E+02  0.47825770298E+03  0.49032228744E+03  0.80926576515E+02 0.  0.
        -11    1    5    5    0    0  0.73855956840E+01 -0.56894800614E+01  0.45948507998E+01  0.10393741427E+02  0.00000000000E+00 0.  1.
         12    1    5    5    0    0 -0.75481681448E+02 -0.16656155207E+02  0.47366285218E+03  0.47992854601E+03  0.00000000000E+00 0. -1.
         13    1    3    3    0    0 -0.26098550469E+02 -0.42467523316E+02 -0.46277793556E+02  0.68016608630E+02  0.00000000000E+00 0. -1.
        -14    1    3    3    0    0 -0.34981618379E+02  0.26467940746E+02 -0.85037765258E+02  0.95685354323E+02  0.00000000000E+00 0.  1.
          5    1    4    4  501    0 -0.98579577193E+01 -0.24115046408E+02  0.46083034195E+02  0.53102101976E+02  0.41800000000E+01 0.  1.
         -5    1    4    4    0  501  0.13903421233E+03  0.62460264246E+02  0.10903685745E+03  0.18745214187E+03  0.41800000000E+01 0.  1.
</event>
<event>
11    1  0.8328696E-009  0.4825277E+03  0.7561462E-02  0.9433434E-01
         22   -1    0    0    0    0  0.00000000000E+00  0.00000000000E+00  0.17947663040E+03  0.17947663040E+03  0.00000000000E+00 0. -1.
         22   -1    0    0    0    0 -0.00000000000E+00 -0.00000000000E+00 -0.34849764369E+04  0.34849764369E+04  0.00000000000E+00 0.  1.
        -24    2    1    2    0    0 -0.28741961872E+03 -0.41528142302E+03 -0.26833517539E+04  0.27319961281E+04  0.91419423557E+02 0.  0.
         25    2    1    2    0    0  0.25645587853E+03  0.32053342455E+02 -0.35157060388E+03  0.45392279243E+03  0.12508787942E+03 0.  0.
         24    2    1    2    0    0  0.30963740185E+02  0.38322808057E+03 -0.27057744867E+03  0.47853414676E+03  0.89220283278E+02 0.  0.
        -13    1    5    5    0    0  0.80475006587E+01  0.11499327699E+02 -0.35351755196E+02  0.38036080237E+02  0.00000000000E+00 0.  1.
         14    1    5    5    0    0  0.22916239526E+02  0.37172875287E+03 -0.23522569347E+03  0.44049806652E+03  0.00000000000E+00 0. -1.
         13    1    3    3    0    0 -0.76796544982E+01 -0.45456772999E+02 -0.34915920232E+03  0.35218949994E+03  0.00000000000E+00 0. -1.
        -14    1    3    3    0    0 -0.27973996422E+03 -0.36982465002E+03 -0.23341925516E+04  0.23798066281E+04  0.00000000000E+00 0.  1.
          5    1    4    4  501    0  0.46354982789E+02 -0.76957350013E+01 -0.15996882988E+03  0.16677981802E+03  0.41800000000E+01 0. -1.
         -5    1    4    4    0  501  0.21010089574E+03  0.39749077456E+02 -0.19160177400E+03  0.28714297440E+03  0.41800000000E+01 0. -1.
</event>
<event>
11    1  0.8328696E-009  0.1380567E+03  0.7561462E-02  0.1109748E+00
         22   -1    0    0    0    0  0.00000000000E+00  0.00000000000E+00  0.13528905820E+04  0.13528905820E+04  0.00000000000E+00 0. -1.
         22   -1    0    0    0    0 -0.00000000000E+00 -0.00000000000E+00 -0.87775194313E+03  0.87775194313E+03  0.00000000000E+00 0.  1.
        -24    2    1    2    0    0  0.42605678322E+02 -0.28971132084E+02 -0.77080663367E+03  0.77685350431E+03  0.81877532514E+02 0.  0.
         25    2    1    2    0    0 -0.99599509517E+02  0.19740605943E+02 -0.38412418437E+02  0.16562413659E+03  0.12508431921E+03 0.  0.
         24    2    1    2    0    0  0.56993831196E+02  0.92305261406E+01  0.12843576910E+04  0.12881648842E+04  0.80377802538E+02 0.  0.
        -13    1    5    5    0    0  0.82111919843E+01 -0.51318550606E+01  0.15416719847E+02  0.18205352537E+02  0.00000000000E+00 0.  1.
         14    1    5    5    0    0  0.48782639211E+02  0.14362381201E+02  0.12689409711E+04  0.12699595317E+04  0.00000000000E+00 0. -1.
         13    1    3    3    0    0  0.43336055317E+02  0.10101587772E+02 -0.20875240515E+03  0.21344231638E+03  0.00000000000E+00 0. -1.
        -14    1    3    3    0    0 -0.73037699533E+00 -0.39072719856E+02 -0.56205422853E+03  0.56341118794E+03  0.00000000000E+00 0.  1.
          5    1    4    4  501    0 -0.91126299993E+02  0.22788142256E+02  0.28288357039E+02  0.98188622161E+02  0.41800000000E+01 0.  1.
         -5    1    4    4    0  501 -0.84732095244E+01 -0.30475363129E+01 -0.66700775476E+02  0.67435514429E+02  0.41800000000E+01 0.  1.
</event>
<event>
11    1  0.8328696E-009  0.1822893E+03  0.7561462E-02  0.1067806E+00
         22   -1    0    0    0    0  0.00000000000E+00  0.00000000000E+00  0.19279035829E+03  0.19279035829E+03  0.00000000000E+00 0. -1.
         22   -1    0    0    0    0 -0.00000000000E+00 -0.00000000000E+00 -0.32022811527E+04  0.32022811527E+04  0.00000000000E+00 0.  1.
        -24    2    1    2    0    0 -0.62496316100E+02  0.48853492903E+01 -0.29668968740E+04  0.29691363116E+04  0.96766315871E+02 0.  0.
         25    2    1    2    0    0  0.66434154865E+02  0.12772723998E+03 -0.14545329287E+03  0.23985607731E+03  0.12508610094E+03 0.  0.
         24    2    1    2    0    0 -0.39378387653E+01 -0.13261258927E+03  0.10285937244E+03  0.18607912207E+03  0.80273182109E+02 0.  0.
        -13    1    5    5    0    0  0.77784712096E+00  0.44355421206E+01  0.30880197498E+02  0.31206821010E+02  0.00000000000E+00 0.  1.
         14    1    5    5    0    0 -0.47156858863E+01 -0.13704813139E+03  0.71979174938E+02  0.15487230106E+03  0.00000000000E+00 0. -1.
         11    1    3    3    0    0 -0.10078239160E+02 -0.18065587231E+02 -0.12784613153E+03  0.12950895604E+03  0.00000000000E+00 0. -1.
        -12    1    3    3    0    0 -0.52418076940E+02  0.22950936522E+02 -0.28390507424E+04  0.28396273555E+04  0.00000000000E+00 0.  1.
          5    1    4    4  501    0  0.23799653309E+02 -0.12530753678E+02  0.72155956776E+01  0.28159909559E+02  0.41800000000E+01 0.  1.
         -5    1    4    4    0  501  0.42634501556E+02  0.14025799366E+03 -0.15266888855E+03  0.21169616775E+03  0.41800000000E+01 0.  1.
</event>
<event>
11    1  0.8328696E-009  0.2017894E+03  0.7561462E-02  0.1053265E+00
         22   -1    0    0    0    0  0.00000000000E+00  0.00000000000E+00  0.34351647257E+03  0.34351647257E+03  0.00000000000E+00 0. -1.
         22   -1    0    0    0    0 -0.00000000000E+00 -0.00000000000E+00 -0.26852709543E+04  0.26852709543E+04  0.00000000000E+00 0. -1.
         24    2    1    2    0    0 -0.13819606450E+02  0.55949660737E+01 -0.17268174264E+04  0.17287636227E+04  0.80640895318E+02 0.  0.
         25    2    1    2    0    0 -0.36779271337E+01 -0.16286289033E+03 -0.92248223091E+03  0.94507100113E+03  0.12509149713E+03 0.  0.
        -24    2    1    2    0    0  0.17497533584E+02  0.15726792426E+03  0.30754517555E+03  0.35495280303E+03  0.79800336427E+02 0.  0.
        -11    1    3    3    0    0  0.22065044884E+02 -0.14354451301E+02 -0.25126340102E+03  0.25263850295E+03  0.00000000000E+00 0.  1.
         12    1    3    3    0    0 -0.35884651334E+02  0.19949417375E+02 -0.14755540253E+04  0.14761251198E+04  0.00000000000E+00 0. -1.
         13    1    5    5    0    0 -0.18542174094E+02  0.96238847653E+02  0.22936660913E+03  0.24942888646E+03  0.00000000000E+00 0. -1.
        -14    1    5    5    0    0  0.36039707678E+02  0.61029076606E+02  0.78178566422E+02  0.10552391657E+03  0.00000000000E+00 0.  1.
          5    1    4    4  501    0 -0.32256090874E+02  0.60606389169E+01 -0.11886673627E+03  0.12338541297E+03  0.41800000000E+01 0.  1.
         -5    1    4    4    0  501  0.28578163740E+02 -0.16892352925E+03 -0.80361549464E+03  0.82168558817E+03  0.41800000000E+01 0.  1.
</event>
<event>
11    1  0.8328696E-009  0.1378690E+03  0.7561462E-02  0.1109962E+00
         22   -1    0    0    0    0  0.00000000000E+00  0.00000000000E+00  0.12532338256E+04  0.12532338256E+04  0.00000000000E+00 0. -1.
         22   -1    0    0    0    0 -0.00000000000E+00 -0.00000000000E+00 -0.56709181276E+02  0.56709181276E+02  0.00000000000E+00 0.  1.
         24    2    1    2    0    0 -0.16623251303E+02  0.65877397078E+02  0.26245442488E+02  0.10803693988E+03  0.79793440820E+02 0.  0.
         25    2    1    2    0    0 -0.13680074149E+02 -0.14802941272E+02  0.30032280899E+03  0.32595672725E+03  0.12509087474E+03 0.  0.
        -24    2    1    2    0    0  0.30303325452E+02 -0.51074455805E+02  0.86995639289E+03  0.87594933978E+03  0.83284024693E+02 0.  0.
        -13    1    3    3    0    0 -0.30559861988E+02  0.56360489168E+02 -0.12910134213E+02  0.65399399611E+02  0.00000000000E+00 0.  1.
         14    1    3    3    0    0  0.13936610685E+02  0.95169079097E+01  0.39155576701E+02  0.42637540271E+02  0.00000000000E+00 0. -1.
         11    1    5    5    0    0  0.35341429443E+02 -0.65004589012E+02  0.83073982817E+03  0.83402834204E+03  0.00000000000E+00 0. -1.
        -12    1    5    5    0    0 -0.50381039915E+01  0.13930133206E+02  0.39216564724E+02  0.41920997743E+02  0.00000000000E+00 0.  1.
          5    1    4    4  501    0  0.49590944598E+02 -0.34136982226E+02  0.14828950432E+03  0.16009948417E+03  0.41800000000E+01 0. -1.
         -5    1    4    4    0  501 -0.63271018746E+02  0.19334040953E+02  0.15203330467E+03  0.16585724308E+03  0.41800000000E+01 0. -1.
</event>
<event>
11    1  0.8328696E-009  0.1623636E+03  0.7561462E-02  0.1084875E+00
         22   -1    0    0    0    0  0.00000000000E+00  0.00000000000E+00  0.18549986385E+04  0.18549986385E+04  0.00000000000E+00 0. -1.
         22   -1    0    0    0    0 -0.00000000000E+00 -0.00000000000E+00 -0.88827798430E+03  0.88827798430E+03  0.00000000000E+00 0.  1.
        -24    2    1    2    0    0 -0.38651603146E+02  0.94797635364E+02 -0.82757068901E+03  0.83775264236E+03  0.80471773782E+02 0.  0.
         25    2    1    2    0    0  0.79229143526E+02 -0.11956432165E+03  0.11237193752E+03  0.22101499560E+03  0.12508913519E+03 0.  0.
         24    2    1    2    0    0 -0.40577540379E+02  0.24766686286E+02  0.16819194057E+04  0.16845089848E+04  0.80359860845E+02 0.  0.
        -13    1    5    5    0    0  0.15894238740E+02 -0.16603390059E+02  0.35363486633E+03  0.35438103514E+03  0.00000000000E+00 0.  1.
         14    1    5    5    0    0 -0.56471779120E+02  0.41370076345E+02  0.13282845393E+04  0.13301279497E+04  0.00000000000E+00 0. -1.
         13    1    3    3    0    0 -0.18173067328E+02 -0.15242188450E+01 -0.33155981830E+03  0.33206098345E+03  0.00000000000E+00 0. -1.
        -14    1    3    3    0    0 -0.20478535818E+02  0.96321854209E+02 -0.49601087071E+03  0.50569165891E+03  0.00000000000E+00 0.  1.
          5    1    4    4  501    0  0.38136063171E+02  0.19570922126E+02  0.12533328568E+02  0.44854621078E+02  0.41800000000E+01 0. -1.
         -5    1    4    4    0  501  0.41093080355E+02 -0.13913524378E+03  0.99838608951E+02  0.17616037452E+03  0.41800000000E+01 0. -1.
</event>
<event>
11    1  0.8328696E-009  0.1534226E+03  0.7561462E-02  0.1093432E+00
         22   -1    0    0    0    0  0.00000000000E+00  0.00000000000E+00  0.45011301655E+03  0.45011301655E+03  0.00000000000E+00 0.  1.
         22   -1    0    0    0    0 -0.00000000000E+00 -0.00000000000E+00 -0.37475581955E+03  0.37475581955E+03  0.00000000000E+00 0.  1.
        -24    2    1    2    0    0 -0.17823731416E+02  0.12692883430E+01 -0.30261923228E+03  0.31403923397E+03  0.81993562152E+02 0.  0.
         25    2    1    2    0    0  0.10287290627E+03 -0.14888005253E+02  0.61036384835E+02  0.17371404717E+03  0.12508653950E+03 0.  0.
         24    2    1    2    0    0 -0.85049174852E+02  0.13618716910E+02  0.31694004445E+03  0.33711555497E+03  0.76007065681E+02 0.  0.
        -13    1    5    5    0    0 -0.38148560577E+02  0.12236233361E+02  0.26120588521E+03  0.26426038778E+03  0.00000000000E+00 0.  1.
         14    1    5    5    0    0 -0.46900614274E+02  0.13824835491E+01  0.55734159237E+02  0.72855167188E+02  0.00000000000E+00 0. -1.
         13    1    3    3    0    0 -0.21640825221E+02 -0.17780421149E+02 -0.31207421443E+02  0.41932944633E+02  0.00000000000E+00 0. -1.
        -14    1    3    3    0    0  0.38170938046E+01  0.19049709492E+02 -0.27141181084E+03  0.27210628934E+03  0.00000000000E+00 0.  1.
          5    1    4    4  501    0 -0.12236521075E+02 -0.73973693104E+01  0.56246761913E+02  0.58186116441E+02  0.41800000000E+01 0.  1.
         -5    1    4    4    0  501  0.11510942734E+03 -0.74906359430E+01  0.47896229215E+01  0.11552793073E+03  0.41800000000E+01 0.  1.
</event>
<event>
11    1  0.8328696E-009  0.1609933E+03  0.7561462E-02  0.1086147E+00
         22   -1    0    0    0    0  0.00000000000E+00  0.00000000000E+00  0.12608682217E+04  0.12608682217E+04  0.00000000000E+00 0.  1.
         22   -1    0    0    0    0 -0.00000000000E+00 -0.00000000000E+00 -0.30153421159E+03  0.30153421159E+03  0.00000000000E+00 0.  1.
         24    2    1    2    0    0 -0.41803554479E+02 -0.92583453228E+02 -0.26693077675E+03  0.29690552198E+03  0.81127162082E+02 0.  0.
         25    2    1    2    0    0  0.51188654317E+02  0.82004260183E+02  0.33330339576E+03  0.36889494639E+03  0.12508937136E+03 0.  0.
        -24    2    1    2    0    0 -0.93850998371E+01  0.10579193045E+02  0.89296139114E+03  0.89660196496E+03  0.79467213916E+02 0.  0.
        -11    1    3    3    0    0 -0.60322350489E+02 -0.81485724801E+02 -0.17293775916E+03  0.20046490430E+03  0.00000000000E+00 0.  1.
         12    1    3    3    0    0  0.18518796010E+02 -0.11097728427E+02 -0.93993017591E+02  0.96440617676E+02  0.00000000000E+00 0. -1.
         11    1    5    5    0    0 -0.22516286370E+02  0.40088403926E+02  0.41210075667E+03  0.41465780703E+03  0.00000000000E+00 0. -1.
        -12    1    5    5    0    0  0.13131186533E+02 -0.29509210881E+02  0.48086063447E+03  0.48194415793E+03  0.00000000000E+00 0.  1.
          5    1    4    4  501    0  0.73289444070E+02  0.54479847979E+02  0.11114111996E+03  0.14390697479E+03  0.41800000000E+01 0. -1.
         -5    1    4    4    0  501 -0.22100789754E+02  0.27524412204E+02  0.22216227580E+03  0.22498797160E+03  0.41800000000E+01 0. -1.
</event>
<event>
11    1  0.8328696E-009  0.3214440E+03  0.7561462E-02  0.9915030E-01
         22   -1    0    0    0    0  0.00000000000E+00  0.00000000000E+00  0.24801488211E+04  0.24801488211E+04  0.00000000000E+00 0. -1.
         22   -1    0    0    0    0 -0.00000000000E+00 -0.00000000000E+00 -0.11173135958E+03  0.11173135958E+03  0.00000000000E+00 0.  1.
        -24    2    1    2    0    0 -0.70409960005E+02 -0.29217254667E+02  0.21859457862E+02  0.11859390534E+03  0.88178614460E+02 0.  0.
         25    2    1    2    0    0 -0.23725964456E+03  0.63392755778E+02  0.32551701107E+03  0.42652051592E+03  0.12509054954E+03 0.  0.
         24    2    1    2    0    0  0.30766960457E+03 -0.34175501111E+02  0.20210409926E+04  0.20467657594E+04  0.93887324696E+02 0.  0.
        -11    1    5    5    0    0  0.17829816665E+03  0.56401532172E+01  0.89387379735E+03  0.91150008950E+03  0.00000000000E+00 0.  1.
         12    1    5    5    0    0  0.12937143792E+03 -0.39815654329E+02  0.11271671952E+04  0.11352656699E+04  0.00000000000E+00 0. -1.
         13    1    3    3    0    0  0.20493094856E+02 -0.12564691881E+02  0.24584923829E+01  0.24163662877E+02  0.00000000000E+00 0. -1.
        -14    1    3    3    0    0 -0.90903054861E+02 -0.16652562786E+02  0.19400965479E+02  0.94430242465E+02  0.00000000000E+00 0.  1.
          5    1    4    4  501    0 -0.77838609016E+02 -0.34556629097E+02  0.13331961880E+03  0.15825486667E+03  0.41800000000E+01 0. -1.
         -5    1    4    4    0  501 -0.15942103555E+03  0.97949384876E+02  0.19219739226E+03  0.26826564925E+03  0.41800000000E+01 0. -1.
</event>
<event>
11    1  0.8328696E-009  0.1869088E+03  0.7561462E-02  0.1064188E+00
         22   -1    0    0    0    0  0.00000000000E+00  0.00000000000E+00  0.89156668498E+03  0.89156668498E+03  0.00000000000E+00 0.  1.
         22   -1    0    0    0    0 -0.00000000000E+00 -0.00000000000E+00 -0.20769999767E+04  0.20769999767E+04  0.00000000000E+00 0. -1.
         24    2    1    2    0    0 -0.15321343894E+02 -0.14112965683E+03 -0.19324110054E+04  0.19392749437E+04  0.80141686014E+02 0.  0.
         25    2    1    2    0    0  0.41139289429E+02  0.92743810404E+02 -0.91545024366E+02  0.18525919409E+03  0.12508645812E+03 0.  0.
        -24    2    1    2    0    0 -0.25817945535E+02  0.48385846424E+02  0.83852273803E+03  0.84403252392E+03  0.79137619372E+02 0.  0.
        -11    1    3    3    0    0  0.82752081154E+01 -0.14215913204E+02 -0.54397495415E+02  0.56830086794E+02  0.00000000000E+00 0.  1.
         12    1    3    3    0    0 -0.23596552009E+02 -0.12691374362E+03 -0.18780135100E+04  0.18824448569E+04  0.00000000000E+00 0. -1.
         11    1    5    5    0    0  0.25441440073E+02  0.13747574284E+02  0.15188738816E+03  0.15461578624E+03  0.00000000000E+00 0. -1.
        -12    1    5    5    0    0 -0.51259385608E+02  0.34638272140E+02  0.68663534986E+03  0.68941673768E+03  0.00000000000E+00 0.  1.
          5    1    4    4  501    0  0.26212556532E+02  0.12032080459E+03 -0.49837442645E+02  0.13291138863E+03  0.41800000000E+01 0. -1.
         -5    1    4    4    0  501  0.14926732897E+02 -0.27576994188E+02 -0.41707581721E+02  0.52347805460E+02  0.41800000000E+01 0. -1.
</event>
<event>
11    1  0.8328696E-009  0.1715624E+03  0.7561462E-02  0.1076680E+00
         22   -1    0    0    0    0  0.00000000000E+00  0.00000000000E+00  0.35864650736E+03  0.35864650736E+03  0.00000000000E+00 0. -1.
         22   -1    0    0    0    0 -0.00000000000E+00 -0.00000000000E+00 -0.82693561860E+03  0.82693561860E+03  0.00000000000E+00 0. -1.
         24    2    1    2    0    0 -0.85264343782E+02  0.86225833384E+02 -0.72884373030E+03  0.74336685452E+03  0.81707983321E+02 0.  0.
         25    2    1    2    0    0  0.36977528621E+01 -0.98955407995E+02  0.22053319323E+01  0.15955651901E+03  0.12509025990E+03 0.  0.
        -24    2    1    2    0    0  0.81566590919E+02  0.12729574610E+02  0.25834928712E+03  0.28265875243E+03  0.79601917966E+02 0.  0.
        -11    1    3    3    0    0 -0.10831517951E+01  0.56301575598E+02 -0.25051056040E+03  0.25676172126E+03  0.00000000000E+00 0.  1.
         12    1    3    3    0    0 -0.84181191986E+02  0.29924257786E+02 -0.47833316990E+03  0.48660513326E+03  0.00000000000E+00 0. -1.
         13    1    5    5    0    0  0.66953757932E+02  0.42653885307E+02  0.15616095007E+03  0.17518105480E+03  0.00000000000E+00 0. -1.
        -14    1    5    5    0    0  0.14612832987E+02 -0.29924310697E+02  0.10218833706E+03  0.10747769764E+03  0.00000000000E+00 0.  1.
          5    1    4    4  501    0 -0.76741434997E+01 -0.49827318354E+02 -0.60576699533E+02  0.78921879471E+02  0.41800000000E+01 0.  1.
         -5    1    4    4    0  501  0.11371896362E+02 -0.49128089640E+02  0.62782031466E+02  0.80634639539E+02  0.41800000000E+01 0.  1.
</event>
<event>
11    1  0.8328696E-009  0.1329229E+03  0.7561462E-02  0.1115729E+00
         22   -1    0    0    0    0  0.00000000000E+00  0.00000000000E+00  0.26307100582E+04  0.26307100582E+04  0.00000000000E+00 0.  1.
         22   -1    0    0    0    0 -0.00000000000E+00 -0.00000000000E+00 -0.33724406770E+03  0.33724406770E+03  0.00000000000E+00 0. -1.
        -24    2    1    2    0    0  0.37505997441E+02 -0.61184156359E+01 -0.27896383899E+03  0.29144260628E+03  0.75324859358E+02 0.  0.
         25    2    1    2    0    0 -0.81724802409E+02  0.22432179034E+01  0.57706661978E+02  0.16019282002E+03  0.12509078861E+03 0.  0.
         24    2    1    2    0    0  0.44218804968E+02  0.38751977324E+01  0.25147231675E+04  0.25163186996E+04  0.77825887832E+02 0.  0.
        -11    1    5    5    0    0  0.16554345250E+02  0.97240383319E+01  0.22513767621E+04  0.22514586224E+04  0.00000000000E+00 0.  1.
         12    1    5    5    0    0  0.27664459718E+02 -0.58488405994E+01  0.26334640537E+03  0.26486007719E+03  0.00000000000E+00 0. -1.
         11    1    3    3    0    0  0.12863058181E+02  0.15569737556E+02 -0.23842553634E+03  0.23927935843E+03  0.00000000000E+00 0. -1.
        -12    1    3    3    0    0  0.24642939260E+02 -0.21688153192E+02 -0.40538302655E+02  0.52163247851E+02  0.00000000000E+00 0.  1.
          5    1    4    4  501    0 -0.73454133660E+02  0.37810972698E+02 -0.98300187436E+01  0.83302347365E+02  0.41800000000E+01 0.  1.
         -5    1    4    4    0  501 -0.82706687486E+01 -0.35567754794E+02  0.67536680722E+02  0.76890472658E+02  0.41800000000E+01 0.  1.
</event>
<event>
11    1  0.8328696E-009  0.1506300E+03  0.7561462E-02  0.1096237E+00
         22   -1    0    0    0    0  0.00000000000E+00  0.00000000000E+00  0.10709417434E+04  0.10709417434E+04  0.00000000000E+00 0.  1.
         22   -1    0    0    0    0 -0.00000000000E+00 -0.00000000000E+00 -0.55514170195E+03  0.55514170195E+03  0.00000000000E+00 0. -1.
         24    2    1    2    0    0 -0.52917978005E+02 -0.58993589784E+02 -0.41672660137E+03  0.43144412132E+03  0.78755402983E+02 0.  0.
         25    2    1    2    0    0  0.11360012581E+03  0.63329864153E+02 -0.65217795171E+02  0.19187469709E+03  0.12508748258E+03 0.  0.
        -24    2    1    2    0    0 -0.60682147806E+02 -0.43362743686E+01  0.99774443802E+03  0.10027646270E+04  0.79635464176E+02 0.  0.
        -13    1    3    3    0    0 -0.24678540750E+01  0.15269529700E+02 -0.13188307765E+03  0.13278702877E+03  0.00000000000E+00 0.  1.
         14    1    3    3    0    0 -0.50450123930E+02 -0.74263119484E+02 -0.28484352373E+03  0.29865709255E+03  0.00000000000E+00 0. -1.
         13    1    5    5    0    0  0.10653417645E+02  0.13532586890E+02  0.42079358436E+03  0.42114589735E+03  0.00000000000E+00 0. -1.
        -14    1    5    5    0    0 -0.71335565451E+02 -0.17868861259E+02  0.57695085365E+03  0.58161872961E+03  0.00000000000E+00 0.  1.
          5    1    4    4  501    0  0.63061322098E+02 -0.27469295504E+02  0.38409095504E+00  0.68912353509E+02  0.41800000000E+01 0.  1.
         -5    1    4    4    0  501  0.50538803713E+02  0.90799159656E+02 -0.65601886126E+02  0.12296234358E+03  0.41800000000E+01 0.  1.
</event>
<event>
11    1  0.8328696E-009  0.1259859E+03  0.7561462E-02  0.1124302E+00
         22   -1    0    0    0    0  0.00000000000E+00  0.00000000000E+00  0.37645349523E+03  0.37645349523E+03  0.00000000000E+00 0.  1.
         22   -1    0    0    0    0 -0.00000000000E+00 -0.00000000000E+00 -0.13462738750E+04  0.13462738750E+04  0.00000000000E+00 0.  1.
         24    2    1    2    0    0 -0.14688429549E+02  0.42659795329E+01 -0.13043312492E+04  0.13070540035E+04  0.82922927886E+02 0.  0.
         25    2    1    2    0    0 -0.87475459292E+01 -0.52018876008E+01  0.82175241275E+02  0.15000886004E+03  0.12508520543E+03 0.  0.
        -24    2    1    2    0    0  0.23435975478E+02  0.93590806790E+00  0.25233562812E+03  0.26566450669E+03  0.79713487105E+02 0.  0.
        -11    1    3    3    0    0 -0.17481493496E+02  0.42223415998E+02 -0.63580540984E+03  0.63744563584E+03  0.00000000000E+00 0.  1.
         12    1    3    3    0    0  0.27930639470E+01 -0.37957436465E+02 -0.66852583935E+03  0.66960836768E+03  0.00000000000E+00 0. -1.
         13    1    5    5    0    0 -0.27164427669E+02 -0.53559947816E+01  0.51657029479E+02  0.58609227134E+02  0.00000000000E+00 0. -1.
        -14    1    5    5    0    0  0.50600403147E+02  0.62919028495E+01  0.20067859864E+03  0.20705527956E+03  0.00000000000E+00 0.  1.
          5    1    4    4  501    0  0.44812436774E+02  0.27900328160E+02  0.66465015304E+02  0.84980312193E+02  0.41800000000E+01 0. -1.
         -5    1    4    4    0  501 -0.53559982703E+02 -0.33102215761E+02  0.15710225970E+02  0.65028547850E+02  0.41800000000E+01 0. -1.
</event>
<event>
11    1  0.8328696E-009  0.1432063E+03  0.7561462E-02  0.1104030E+00
         22   -1    0    0    0    0  0.00000000000E+00  0.00000000000E+00  0.93769004511E+03  0.93769004511E+03  0.00000000000E+00 0.  1.
         22   -1    0    0    0    0 -0.00000000000E+00 -0.00000000000E+00 -0.22866696521E+03  0.22866696521E+03  0.00000000000E+00 0.  1.
        -24    2    1    2    0    0 -0.17174362805E+00 -0.65936304603E+02 -0.17276414952E+03  0.20373897705E+03  0.85524813072E+02 0.  0.
         25    2    1    2    0    0  0.36973494744E+02  0.12306563686E+03  0.18512496554E+03  0.25774175686E+03  0.12508944829E+03 0.  0.
         24    2    1    2    0    0 -0.36801751116E+02 -0.57129332253E+02  0.69666226388E+03  0.70487627640E+03  0.83030871535E+02 0.  0.
        -11    1    5    5    0    0  0.41948655050E+01 -0.37096738624E+02  0.55033289195E+03  0.55159773103E+03  0.00000000000E+00 0.  1.
         12    1    5    5    0    0 -0.40996616621E+02 -0.20032593629E+02  0.14632937193E+03  0.15327854538E+03  0.00000000000E+00 0. -1.
         13    1    3    3    0    0 -0.27611246479E+02 -0.41462121295E+02 -0.34312663139E+02  0.60488406212E+02  0.00000000000E+00 0. -1.
        -14    1    3    3    0    0  0.27439502851E+02 -0.24474183308E+02 -0.13845148638E+03  0.14325057084E+03  0.00000000000E+00 0.  1.
          5    1    4    4  501    0 -0.24191125726E+01 -0.11944495555E+02  0.82725270843E+02  0.83722553209E+02  0.41800000000E+01 0.  1.
         -5    1    4    4    0  501  0.39392607317E+02  0.13501013241E+03  0.10239969470E+03  0.17401920365E+03  0.41800000000E+01 0.  1.
</event>
<event>
11    1  0.8328696E-009  0.1505593E+03  0.7561462E-02  0.1096309E+00
         22   -1    0    0    0    0  0.00000000000E+00  0.00000000000E+00  0.11456621813E+03  0.11456621813E+03  0.00000000000E+00 0.  1.
         22   -1    0    0    0    0 -0.00000000000E+00 -0.00000000000E+00 -0.13056963787E+04  0.13056963787E+04  0.00000000000E+00 0. -1.
        -24    2    1    2    0    0  0.91192144771E+00 -0.66641646018E+02 -0.98181698839E+03  0.98724679098E+03  0.79054962122E+02 0.  0.
         25    2    1    2    0    0  0.81440491993E+02  0.74577684124E+02 -0.25761169107E+03  0.30693046752E+03  0.12509254098E+03 0.  0.
         24    2    1    2    0    0 -0.82352413441E+02 -0.79360381061E+01  0.48298518919E+02  0.12608533829E+03  0.81974782104E+02 0.  0.
        -11    1    5    5    0    0 -0.84165922446E+02  0.13316865593E+01  0.65368509227E+02  0.10657728599E+03  0.00000000000E+00 0.  1.
         12    1    5    5    0    0  0.18135090046E+01 -0.92677246654E+01 -0.17069990308E+02  0.19508052299E+02  0.00000000000E+00 0. -1.
         11    1    3    3    0    0 -0.61371019750E+01 -0.83194239023E+02 -0.87017848670E+03  0.87416791530E+03  0.00000000000E+00 0. -1.
        -12    1    3    3    0    0  0.70490234227E+01  0.16552593006E+02 -0.11163850169E+03  0.11307887568E+03  0.00000000000E+00 0.  1.
          5    1    4    4  501    0  0.67159109350E+02 -0.18712173878E+02 -0.83655694841E+02  0.10897815882E+03  0.41800000000E+01 0.  1.
         -5    1    4    4    0  501  0.14281382644E+02  0.93289858001E+02 -0.17395599623E+03  0.19795230871E+03  0.41800000000E+01 0.  1.
</event>
<event>
11    1  0.8328696E-009  0.1432563E+03  0.7561462E-02  0.1103976E+00
         22   -1    0    0    0    0  0.00000000000E+00  0.00000000000E+00  0.13495329931E+04  0.13495329931E+04  0.00000000000E+00 0. -1.
         22   -1    0    0    0    0 -0.00000000000E+00 -0.00000000000E+00 -0.19952015315E+03  0.19952015315E+03  0.00000000000E+00 0.  1.
         24    2    1    2    0    0  0.23163615307E+02 -0.89478743479E+01 -0.96586419534E+02  0.12806074814E+03  0.80336798838E+02 0.  0.
         25    2    1    2    0    0 -0.92432886798E+02  0.90004539502E+01 -0.13862039503E+02  0.15641288482E+03  0.12509191687E+03 0.  0.
        -24    2    1    2    0    0  0.69269271491E+02 -0.52579602260E-01  0.12604612990E+04  0.12645795133E+04  0.74835983478E+02 0.  0.
        -13    1    3    3    0    0 -0.25577517637E+01 -0.33156120996E+02 -0.84368085264E+02  0.90685413737E+02  0.00000000000E+00 0.  1.
         14    1    3    3    0    0  0.25721367071E+02  0.24208246648E+02 -0.12218334270E+02  0.37375334408E+02  0.00000000000E+00 0. -1.
         11    1    5    5    0    0  0.10731264619E+02  0.28147490464E+02  0.64381554506E+03  0.64451989676E+03  0.00000000000E+00 0. -1.
        -12    1    5    5    0    0  0.58538006872E+02 -0.28200070066E+02  0.61664575396E+03  0.62005961655E+03  0.00000000000E+00 0.  1.
          5    1    4    4  501    0 -0.25574653569E+02  0.62614133596E+02  0.69588364125E+01  0.68121145289E+02  0.41800000000E+01 0. -1.
         -5    1    4    4    0  501 -0.66858233229E+02 -0.53613679646E+02 -0.20820875915E+02  0.88291739532E+02  0.41800000000E+01 0. -1.
</event>
<event>
11    1  0.8328696E-009  0.1479371E+03  0.7561462E-02  0.1099005E+00
         22   -1    0    0    0    0  0.00000000000E+00  0.00000000000E+00  0.11882137608E+03  0.11882137608E+03  0.00000000000E+00 0.  1.
         22   -1    0    0    0    0 -0.00000000000E+00 -0.00000000000E+00 -0.16712126128E+04  0.16712126128E+04  0.00000000000E+00 0.  1.
        -24    2    1    2    0    0 -0.64512629478E+02  0.47733454762E+02 -0.13423935929E+04  0.13472329085E+04  0.81090009709E+02 0.  0.
         25    2    1    2    0    0  0.59774477805E+02 -0.37114634203E+02 -0.29300878510E+03  0.32627271038E+03  0.12509695889E+03 0.  0.
         24    2    1    2    0    0  0.47381516732E+01 -0.10618820560E+02  0.83011141268E+02  0.11652836991E+03  0.80949379167E+02 0.  0.
        -13    1    5    5    0    0 -0.28794149530E+02  0.14468146057E+02  0.12591547883E+02  0.34597360818E+02  0.00000000000E+00 0.  1.
         14    1    5    5    0    0  0.33532301204E+02 -0.25086966616E+02  0.70419593385E+02  0.81931009090E+02  0.00000000000E+00 0. -1.
         13    1    3    3    0    0  0.70980026188E+00  0.11379690015E+02 -0.22454419852E+02  0.25183370150E+02  0.00000000000E+00 0. -1.
        -14    1    3    3    0    0 -0.65222429740E+02  0.36353764747E+02 -0.13199391730E+04  0.13220495384E+04  0.00000000000E+00 0.  1.
          5    1    4    4  501    0 -0.34871860798E+01 -0.18050763748E+02  0.61846568896E+01  0.19842200470E+02  0.41800000000E+01 0.  1.
         -5    1    4    4    0  501  0.63261663885E+02 -0.19063870455E+02 -0.29919344199E+03  0.30643050991E+03  0.41800000000E+01 0.  1.
</event>
<event>
11    1  0.1230167E-008  0.1959959E+03  0.7561462E-02  0.1057392E+00
         22   -1    0    0    0    0  0.00000000000E+00  0.00000000000E+00  0.13669083689E+04  0.13669083689E+04  0.00000000000E+00 0.  1.
         22   -1    0    0    0    0 -0.00000000000E+00 -0.00000000000E+00 -0.80537882654E+03  0.80537882654E+03  0.00000000000E+00 0.  1.
        -24    2    1    2    0    0  0.32399112106E+01 -0.16552328103E+02 -0.51625217075E+03  0.52271376747E+03  0.80180435922E+02 0.  0.
         25    2    1    2    0    0 -0.12932480144E+03  0.99027616531E+02 -0.24276633892E+03  0.31798281741E+03  0.12508478623E+03 0.  0.
         24    2    1    2    0    0  0.12608489023E+03 -0.82475288428E+02  0.13205480521E+04  0.13315906106E+04  0.81159248830E+02 0.  0.
        -11    1    5    5    0    0  0.73931741823E+02 -0.91790708871E+02  0.87419732591E+03  0.88210679700E+03  0.00000000000E+00 0.  1.
         12    1    5    5    0    0  0.52153148411E+02  0.93154204435E+01  0.44635072616E+03  0.44948381360E+03  0.00000000000E+00 0. -1.
         13    1    3    3    0    0 -0.24502407633E+02 -0.38098571406E+02 -0.33915349896E+03  0.34216511363E+03  0.00000000000E+00 0. -1.
        -14    1    3    3    0    0  0.27742318844E+02  0.21546243303E+02 -0.17709867179E+03  0.18054865384E+03  0.00000000000E+00 0.  1.
          5    1    4    4  501    0 -0.50093736396E+02  0.14160040100E+02 -0.39097434867E+01  0.52370293640E+02  0.41800000000E+01 0.  1.
         -5    1    4    4    0  501 -0.79231065048E+02  0.84867576430E+02 -0.23885659544E+03  0.26561252377E+03  0.41800000000E+01 0.  1.
</event>
<event>
11    1  0.8328696E-009  0.1310617E+03  0.7561462E-02  0.1117971E+00
         22   -1    0    0    0    0  0.00000000000E+00  0.00000000000E+00  0.10053868306E+04  0.10053868306E+04  0.00000000000E+00 0.  1.
         22   -1    0    0    0    0 -0.00000000000E+00 -0.00000000000E+00 -0.13044367173E+03  0.13044367173E+03  0.00000000000E+00 0.  1.
         24    2    1    2    0    0 -0.31602356138E+02 -0.27888907460E+02 -0.70958305734E+02  0.11566506702E+03  0.81035958092E+02 0.  0.
         25    2    1    2    0    0  0.17486406355E+02  0.15483345683E+02  0.80116993726E+02  0.15037602843E+03  0.12509479942E+03 0.  0.
        -24    2    1    2    0    0  0.14115949783E+02  0.12405561777E+02  0.86578447093E+03  0.86978940693E+03  0.81226253761E+02 0.  0.
        -13    1    3    3    0    0 -0.26853434658E+02 -0.45738905124E+02 -0.12685735681E+02  0.54535147242E+02  0.00000000000E+00 0.  1.
         14    1    3    3    0    0 -0.47489214795E+01  0.17849997664E+02 -0.58272570053E+02  0.61129919780E+02  0.00000000000E+00 0. -1.
         11    1    5    5    0    0  0.18275112817E+02  0.19427323656E+02  0.87793911370E+02  0.91756043543E+02  0.00000000000E+00 0. -1.
        -12    1    5    5    0    0 -0.41591630346E+01 -0.70217618796E+01  0.77799055956E+03  0.77803336338E+03  0.00000000000E+00 0.  1.
          5    1    4    4  501    0  0.88564399019E+01  0.19692389129E+02  0.11338522901E+03  0.11549852499E+03  0.41800000000E+01 0. -1.
         -5    1    4    4    0  501  0.86299664531E+01 -0.42090434457E+01 -0.33268235280E+02  0.34877503442E+02  0.41800000000E+01 0. -1.
</event>
<event>
11    1  0.8328696E-009  0.1453576E+03  0.7561462E-02  0.1101719E+00
         22   -1    0    0    0    0  0.00000000000E+00  0.00000000000E+00  0.10489811039E+04  0.10489811039E+04  0.00000000000E+00 0. -1.
         22   -1    0    0    0    0 -0.00000000000E+00 -0.00000000000E+00 -0.84453371547E+02  0.84453371547E+02  0.00000000000E+00 0.  1.
         24    2    1    2    0    0  0.42831427382E+02  0.73386449770E+02  0.41732544197E+02  0.12131445078E+03  0.75864936185E+02 0.  0.
         25    2    1    2    0    0 -0.64800969859E+02 -0.22841638885E+02  0.79561202362E+02  0.16338069379E+03  0.12506942080E+03 0.  0.
        -24    2    1    2    0    0  0.21969542477E+02 -0.50544810885E+02  0.84323398581E+03  0.84873933090E+03  0.79230412567E+02 0.  0.
        -13    1    3    3    0    0  0.61934860876E+02  0.37950299303E+02  0.34494177346E+02  0.80411444955E+02  0.00000000000E+00 0.  1.
         14    1    3    3    0    0 -0.19103433494E+02  0.35436150466E+02  0.72383668508E+01  0.40903005828E+02  0.00000000000E+00 0. -1.
         13    1    5    5    0    0 -0.50570232417E+01  0.27900991709E+01  0.51937677338E+03  0.51940888601E+03  0.00000000000E+00 0. -1.
        -14    1    5    5    0    0  0.27026565718E+02 -0.53334910055E+02  0.32385721243E+03  0.32933044489E+03  0.00000000000E+00 0.  1.
          5    1    4    4  501    0 -0.23726130994E+02 -0.39779677765E+00 -0.33313830677E+02  0.41114124685E+02  0.41800000000E+01 0. -1.
         -5    1    4    4    0  501 -0.41074838865E+02 -0.22443842108E+02  0.11287503304E+03  0.12226656910E+03  0.41800000000E+01 0. -1.
</event>
<event>
11    1  0.8328696E-009  0.1445497E+03  0.7561462E-02  0.1102582E+00
         22   -1    0    0    0    0  0.00000000000E+00  0.00000000000E+00  0.76661386083E+03  0.76661386083E+03  0.00000000000E+00 0. -1.
         22   -1    0    0    0    0 -0.00000000000E+00 -0.00000000000E+00 -0.84342793382E+02  0.84342793382E+02  0.00000000000E+00 0. -1.
         24    2    1    2    0    0  0.49966683824E+02  0.54503288429E+02 -0.20130759994E+02  0.11147190080E+03  0.80953438642E+02 0.  0.
         25    2    1    2    0    0 -0.58124575327E+02 -0.27710493177E+02  0.36071449017E+03  0.38718014876E+03  0.12508871447E+03 0.  0.
        -24    2    1    2    0    0  0.81578915029E+01 -0.26792795252E+02  0.34168733727E+03  0.35230460465E+03  0.81141191357E+02 0.  0.
        -13    1    3    3    0    0  0.11400488974E+02 -0.20626409449E+02  0.33840932267E+01  0.23809073955E+02  0.00000000000E+00 0.  1.
         14    1    3    3    0    0  0.38566194850E+02  0.75129697878E+02 -0.23514853221E+02  0.87662826845E+02  0.00000000000E+00 0. -1.
         13    1    5    5    0    0 -0.33650890380E+01 -0.53934656777E+01  0.31897896086E+03  0.31904230248E+03  0.00000000000E+00 0. -1.
        -14    1    5    5    0    0  0.11522980541E+02 -0.21399329574E+02  0.22708376408E+02  0.33262302173E+02  0.00000000000E+00 0.  1.
          5    1    4    4  501    0 -0.46726490947E+02  0.32236488832E+02  0.70600830079E+02  0.90689060951E+02  0.41800000000E+01 0.  1.
         -5    1    4    4    0  501 -0.11398084380E+02 -0.59946982009E+02  0.29011366009E+03  0.29649108781E+03  0.41800000000E+01 0.  1.
</event>
<event>
11    1  0.8328696E-009  0.2465892E+03  0.7561462E-02  0.1025732E+00
         22   -1    0    0    0    0  0.00000000000E+00  0.00000000000E+00  0.24878896450E+04  0.24878896450E+04  0.00000000000E+00 0. -1.
         22   -1    0    0    0    0 -0.00000000000E+00 -0.00000000000E+00 -0.10385313513E+04  0.10385313513E+04  0.00000000000E+00 0.  1.
        -24    2    1    2    0    0 -0.11757854477E+03 -0.16392442269E+03 -0.80653316358E+03  0.83527994540E+03  0.80628237599E+02 0.  0.
         25    2    1    2    0    0  0.27022083441E+03  0.20675004863E+03 -0.60827628380E+02  0.36757580570E+03  0.12508833120E+03 0.  0.
         24    2    1    2    0    0 -0.15264228964E+03 -0.42825625940E+02  0.23167190857E+04  0.23235652452E+04  0.81451972770E+02 0.  0.
        -13    1    5    5    0    0 -0.46790567296E+02  0.93571515167E+01  0.11263596581E+04  0.11273699450E+04  0.00000000000E+00 0.  1.
         14    1    5    5    0    0 -0.10585172234E+03 -0.52182777457E+02  0.11903594275E+04  0.11961953002E+04  0.00000000000E+00 0. -1.
         11    1    3    3    0    0 -0.60486259356E+01  0.62398917230E+01 -0.90077195842E+02  0.90495432676E+02  0.00000000000E+00 0. -1.
        -12    1    3    3    0    0 -0.11152991884E+03 -0.17016431442E+03 -0.71645596773E+03  0.74478451273E+03  0.00000000000E+00 0.  1.
          5    1    4    4  501    0  0.10831518399E+03  0.78095100020E+02 -0.86487720593E+02  0.15914968408E+03  0.41800000000E+01 0.  1.
         -5    1    4    4    0  501  0.16190565042E+03  0.12865494862E+03  0.25660092213E+02  0.20842612162E+03  0.41800000000E+01 0.  1.
</event>
<event>
11    1  0.8328696E-009  0.1411300E+03  0.7561462E-02  0.1106303E+00
         22   -1    0    0    0    0  0.00000000000E+00  0.00000000000E+00  0.89990877598E+03  0.89990877598E+03  0.00000000000E+00 0. -1.
         22   -1    0    0    0    0 -0.00000000000E+00 -0.00000000000E+00 -0.22207171450E+03  0.22207171450E+03  0.00000000000E+00 0. -1.
         24    2    1    2    0    0 -0.57350155747E+02 -0.28631870576E+02 -0.16500219840E+03  0.19259813841E+03  0.75891324058E+02 0.  0.
         25    2    1    2    0    0  0.80485546064E+02  0.11578627746E+02  0.95180765281E+02  0.17697119384E+03  0.12508971830E+03 0.  0.
        -24    2    1    2    0    0 -0.23135390317E+02  0.17053242829E+02  0.74765849459E+03  0.75241115823E+03  0.79393117608E+02 0.  0.
        -11    1    3    3    0    0 -0.22914950570E+02 -0.44284782271E+02 -0.46405810777E+02  0.68115608889E+02  0.00000000000E+00 0.  1.
         12    1    3    3    0    0 -0.34435205177E+02  0.15652911695E+02 -0.11859638762E+03  0.12448252952E+03  0.00000000000E+00 0. -1.
         11    1    5    5    0    0 -0.81238811953E+01 -0.15252071656E+02  0.60915236044E+03  0.60939742481E+03  0.00000000000E+00 0. -1.
        -12    1    5    5    0    0 -0.15011509122E+02  0.32305314485E+02  0.13850613415E+03  0.14301373342E+03  0.00000000000E+00 0.  1.
          5    1    4    4  501    0  0.78750198353E+02  0.56971421087E+02  0.39526669901E+02  0.10501031661E+03  0.41800000000E+01 0. -1.
         -5    1    4    4    0  501  0.17353477107E+01 -0.45392793340E+02  0.55654095380E+02  0.71960877228E+02  0.41800000000E+01 0. -1.
</event>
<event>
11    1  0.8328696E-009  0.1406262E+03  0.7561462E-02  0.1106861E+00
         22   -1    0    0    0    0  0.00000000000E+00  0.00000000000E+00  0.76767309840E+03  0.76767309840E+03  0.00000000000E+00 0.  1.
         22   -1    0    0    0    0 -0.00000000000E+00 -0.00000000000E+00 -0.67225861763E+03  0.67225861763E+03  0.00000000000E+00 0.  1.
         24    2    1    2    0    0 -0.19513928005E+02 -0.39596698166E+02 -0.63747661437E+03  0.64416542355E+03  0.81387757879E+02 0.  0.
         25    2    1    2    0    0  0.50343691766E+02 -0.20157484471E+02  0.14018472697E+03  0.19555264147E+03  0.12509303110E+03 0.  0.
        -24    2    1    2    0    0 -0.30829763760E+02  0.59754182637E+02  0.59270636817E+03  0.60021365101E+03  0.66592426830E+02 0.  0.
        -13    1    3    3    0    0  0.10232526468E+02 -0.48964789562E+02 -0.52707686266E+03  0.52944525153E+03  0.00000000000E+00 0.  1.
         14    1    3    3    0    0 -0.29746454474E+02  0.93680913961E+01 -0.11039975171E+03  0.11472017201E+03  0.00000000000E+00 0. -1.
         13    1    5    5    0    0 -0.13815247100E+02 -0.13391248893E+02  0.14110445268E+03  0.14241015823E+03  0.00000000000E+00 0. -1.
        -14    1    5    5    0    0 -0.17014516660E+02  0.73145431530E+02  0.45160191549E+03  0.45780349278E+03  0.00000000000E+00 0.  1.
          5    1    4    4  501    0  0.17835974803E+02  0.54964889629E+00 -0.22094631143E+02  0.28706606146E+02  0.41800000000E+01 0. -1.
         -5    1    4    4    0  501  0.32507716962E+02 -0.20707133367E+02  0.16227935812E+03  0.16684603533E+03  0.41800000000E+01 0. -1.
</event>
<event>
11    1  0.8328696E-009  0.1723755E+03  0.7561462E-02  0.1075983E+00
         22   -1    0    0    0    0  0.00000000000E+00  0.00000000000E+00  0.36707388303E+03  0.36707388303E+03  0.00000000000E+00 0. -1.
         22   -1    0    0    0    0 -0.00000000000E+00 -0.00000000000E+00 -0.15281280770E+04  0.15281280770E+04  0.00000000000E+00 0. -1.
        -24    2    1    2    0    0  0.11346007657E+03 -0.39035175726E+02 -0.14641010806E+04  0.14718441072E+04  0.91302617786E+02 0.  0.
         25    2    1    2    0    0 -0.86870856472E+02 -0.12354880480E+02  0.61765202204E+02  0.16479930366E+03  0.12507870125E+03 0.  0.
         24    2    1    2    0    0 -0.26589220100E+02  0.51390056206E+02  0.24128168438E+03  0.25855854913E+03  0.72716900431E+02 0.  0.
        -13    1    5    5    0    0  0.24404203590E+02  0.23390008107E+02  0.71530911705E+02  0.79115921036E+02  0.00000000000E+00 0.  1.
         14    1    5    5    0    0 -0.50993423690E+02  0.28000048099E+02  0.16975077267E+03  0.17944262809E+03  0.00000000000E+00 0. -1.
         11    1    3    3    0    0  0.26085663894E+02 -0.18504538719E+02 -0.90663114805E+03  0.90719508290E+03  0.00000000000E+00 0. -1.
        -12    1    3    3    0    0  0.87374412678E+02 -0.20530637007E+02 -0.55746993250E+03  0.56464902434E+03  0.00000000000E+00 0.  1.
          5    1    4    4  501    0 -0.97123965561E+02 -0.36437389360E+02  0.81307667217E+02  0.13186795357E+03  0.41800000000E+01 0. -1.
         -5    1    4    4    0  501  0.10253109089E+02  0.24082508880E+02 -0.19542465013E+02  0.32931350090E+02  0.41800000000E+01 0. -1.
</event>
<event>
11    1  0.8328696E-009  0.1586507E+03  0.7561462E-02  0.1088353E+00
         22   -1    0    0    0    0  0.00000000000E+00  0.00000000000E+00  0.36527359659E+03  0.36527359659E+03  0.00000000000E+00 0.  1.
         22   -1    0    0    0    0 -0.00000000000E+00 -0.00000000000E+00 -0.73823912716E+03  0.73823912716E+03  0.00000000000E+00 0. -1.
        -24    2    1    2    0    0  0.42908805158E+01 -0.96610901583E+02 -0.41896933409E+03  0.43754666949E+03  0.80992018815E+02 0.  0.
         25    2    1    2    0    0 -0.33273189503E+02  0.96951801873E+02 -0.28299511798E+03  0.32594383218E+03  0.12508552237E+03 0.  0.
         24    2    1    2    0    0  0.28982308987E+02 -0.34090028960E+00  0.32899892150E+03  0.34002222208E+03  0.80837681264E+02 0.  0.
        -11    1    5    5    0    0  0.38364043750E+02  0.15087820329E+02  0.31357853321E+03  0.31627668056E+03  0.00000000000E+00 0.  1.
         12    1    5    5    0    0 -0.93817347631E+01 -0.15428720619E+02  0.15420388291E+02  0.23745541522E+02  0.00000000000E+00 0. -1.
         11    1    3    3    0    0 -0.40451700288E+01 -0.75335657014E+02 -0.40217131664E+03  0.40918650094E+03  0.00000000000E+00 0. -1.
        -12    1    3    3    0    0  0.83360505446E+01 -0.21275244569E+02 -0.16798017449E+02  0.28360168553E+02  0.00000000000E+00 0.  1.
          5    1    4    4  501    0 -0.59133032481E+02  0.88263978985E+02 -0.11873904628E+03  0.15938531623E+03  0.41800000000E+01 0. -1.
         -5    1    4    4    0  501  0.25859842979E+02  0.86878228876E+01 -0.16425607170E+03  0.16655851595E+03  0.41800000000E+01 0. -1.
</event>
<event>
11    1  0.8328696E-009  0.1402331E+03  0.7561462E-02  0.1107298E+00
         22   -1    0    0    0    0  0.00000000000E+00  0.00000000000E+00  0.45330935115E+03  0.45330935115E+03  0.00000000000E+00 0. -1.
         22   -1    0    0    0    0 -0.00000000000E+00 -0.00000000000E+00 -0.14456342965E+03  0.14456342965E+03  0.00000000000E+00 0.  1.
         24    2    1    2    0    0 -0.51840363159E+02  0.21199745270E+02 -0.49522080398E+02  0.10936929788E+03  0.79827028125E+02 0.  0.
         25    2    1    2    0    0  0.92412810781E+02 -0.48142587060E+01  0.45655053461E+02  0.16215800778E+03  0.12509009112E+03 0.  0.
        -24    2    1    2    0    0 -0.40572447622E+02 -0.16385486564E+02  0.31261294843E+03  0.32634547515E+03  0.82824549172E+02 0.  0.
        -11    1    3    3    0    0 -0.46517278919E+02  0.34616454011E+02 -0.65740330766E+02  0.87658126922E+02  0.00000000000E+00 0.  1.
         12    1    3    3    0    0 -0.53230842403E+01 -0.13416708741E+02  0.16218250368E+02  0.21711170955E+02  0.00000000000E+00 0. -1.
         13    1    5    5    0    0 -0.63906321588E+02 -0.24609784342E+02  0.21480915422E+03  0.22546093267E+03  0.00000000000E+00 0. -1.
        -14    1    5    5    0    0  0.23333873967E+02  0.82242977784E+01  0.97803794208E+02  0.10088454247E+03  0.00000000000E+00 0.  1.
          5    1    4    4  501    0  0.11594489256E+03  0.30634609416E+00  0.63155434419E+02  0.13209615155E+03  0.41800000000E+01 0. -1.
         -5    1    4    4    0  501 -0.23532081776E+02 -0.51206048002E+01 -0.17500380957E+02  0.30061856228E+02  0.41800000000E+01 0. -1.
</event>
<event>
11    1  0.8328696E-009  0.1853931E+03  0.7561462E-02  0.1065362E+00
         22   -1    0    0    0    0  0.00000000000E+00  0.00000000000E+00  0.42766803154E+03  0.42766803154E+03  0.00000000000E+00 0.  1.
         22   -1    0    0    0    0 -0.00000000000E+00 -0.00000000000E+00 -0.49444393378E+03  0.49444393378E+03  0.00000000000E+00 0.  1.
        -24    2    1    2    0    0 -0.47147157764E+02 -0.12364676488E+03 -0.34773181936E+03  0.38165988282E+03  0.85061571849E+02 0.  0.
         25    2    1    2    0    0  0.15583570392E+02  0.16412070655E+03 -0.35416414614E+02  0.20994668111E+03  0.12507930484E+03 0.  0.
         24    2    1    2    0    0  0.31563587372E+02 -0.40473941676E+02  0.31637233174E+03  0.33050540139E+03  0.80671978125E+02 0.  0.
        -13    1    5    5    0    0  0.53913191278E+02 -0.46433251977E+02  0.21275030079E+03  0.22433316645E+03  0.00000000000E+00 0.  1.
         14    1    5    5    0    0 -0.22349603906E+02  0.59593103015E+01  0.10362203095E+03  0.10617223494E+03  0.00000000000E+00 0. -1.
         13    1    3    3    0    0  0.23036325249E+02 -0.50634782233E+02 -0.13669780836E+03  0.14758334684E+03  0.00000000000E+00 0. -1.
        -14    1    3    3    0    0 -0.70183483013E+02 -0.73011982642E+02 -0.21103401100E+03  0.23407653598E+03  0.00000000000E+00 0.  1.
          5    1    4    4  501    0  0.43389231375E+02  0.15560073118E+03  0.29558533823E+01  0.16161813764E+03  0.41800000000E+01 0. -1.
         -5    1    4    4    0  501 -0.27805660983E+02  0.85199753690E+01 -0.38372267996E+02  0.48328543472E+02  0.41800000000E+01 0. -1.
</event>
<event>
11    1  0.8328696E-009  0.1399144E+03  0.7561462E-02  0.1107654E+00
         22   -1    0    0    0    0  0.00000000000E+00  0.00000000000E+00  0.75243779465E+03  0.75243779465E+03  0.00000000000E+00 0. -1.
         22   -1    0    0    0    0 -0.00000000000E+00 -0.00000000000E+00 -0.52432203076E+03  0.52432203076E+03  0.00000000000E+00 0.  1.
        -24    2    1    2    0    0  0.16167919430E+02 -0.32887252187E+02 -0.43994587987E+03  0.44899925874E+03  0.81883967693E+02 0.  0.
         25    2    1    2    0    0 -0.15868239818E+02  0.93973368323E+02  0.52899537982E+01  0.15735479076E+03  0.12509896712E+03 0.  0.
         24    2    1    2    0    0 -0.29967961139E+00 -0.61086116136E+02  0.66277168995E+03  0.67040577591E+03  0.80286910364E+02 0.  0.
        -11    1    5    5    0    0  0.66016301702E+01 -0.15685062501E+02  0.21166416316E+02  0.27159158423E+02  0.00000000000E+00 0.  1.
         12    1    5    5    0    0 -0.69013097816E+01 -0.45401053635E+02  0.64160527364E+03  0.64324661748E+03  0.00000000000E+00 0. -1.
         13    1    3    3    0    0 -0.64162026264E+01  0.17136977276E+02 -0.28235425407E+02  0.33646439547E+02  0.00000000000E+00 0. -1.
        -14    1    3    3    0    0  0.22584122056E+02 -0.50024229463E+02 -0.41171045446E+03  0.41535281920E+03  0.00000000000E+00 0.  1.
          5    1    4    4  501    0 -0.68105043311E+02  0.40700316023E+02 -0.12786433793E+02  0.80472218423E+02  0.41800000000E+01 0. -1.
         -5    1    4    4    0  501  0.52236803493E+02  0.53273052300E+02  0.18076387591E+02  0.76882572335E+02  0.41800000000E+01 0. -1.
</event>
<event>
11    1  0.8328696E-009  0.1344089E+03  0.7561462E-02  0.1113967E+00
         22   -1    0    0    0    0  0.00000000000E+00  0.00000000000E+00  0.16087868796E+03  0.16087868796E+03  0.00000000000E+00 0.  1.
         22   -1    0    0    0    0 -0.00000000000E+00 -0.00000000000E+00 -0.30566161070E+03  0.30566161070E+03  0.00000000000E+00 0.  1.
         24    2    1    2    0    0 -0.39017135158E+02  0.50552231386E+01 -0.17011555503E+03  0.19193401249E+03  0.79696116391E+02 0.  0.
         25    2    1    2    0    0  0.81436488595E+02  0.10991822298E+01 -0.50400750028E+02  0.15754619139E+03  0.12508979552E+03 0.  0.
        -24    2    1    2    0    0 -0.42419353437E+02 -0.61544053683E+01  0.75733382322E+02  0.11706009478E+03  0.78295864134E+02 0.  0.
        -11    1    3    3    0    0 -0.19316207504E+02  0.33830387778E+02 -0.14167685856E+03  0.14693516686E+03  0.00000000000E+00 0.  1.
         12    1    3    3    0    0 -0.19700927654E+02 -0.28775164640E+02 -0.28438696479E+02  0.44998845628E+02  0.00000000000E+00 0. -1.
         11    1    5    5    0    0 -0.11307564051E+02  0.31125580533E+02  0.86131442651E+01  0.34217671201E+02  0.00000000000E+00 0. -1.
        -12    1    5    5    0    0 -0.31111789386E+02 -0.37279985902E+02  0.67120238057E+02  0.82842423579E+02  0.00000000000E+00 0.  1.
          5    1    4    4  501    0 -0.25952264847E+02  0.22738039940E+02 -0.30262357450E+02  0.46084934517E+02  0.41800000000E+01 0. -1.
         -5    1    4    4    0  501  0.10738875344E+03 -0.21638857710E+02 -0.20138392578E+02  0.11146125688E+03  0.41800000000E+01 0. -1.
</event>
<event>
11    1  0.8328696E-009  0.1723940E+03  0.7561462E-02  0.1075967E+00
         22   -1    0    0    0    0  0.00000000000E+00  0.00000000000E+00  0.11392492632E+03  0.11392492632E+03  0.00000000000E+00 0. -1.
         22   -1    0    0    0    0 -0.00000000000E+00 -0.00000000000E+00 -0.34933181940E+04  0.34933181940E+04  0.00000000000E+00 0.  1.
         24    2    1    2    0    0  0.74651763144E+01 -0.11598377575E+03 -0.30308746334E+04  0.30340396584E+04  0.75416443257E+02 0.  0.
         25    2    1    2    0    0 -0.23043643042E+02  0.15108069347E+03 -0.41671769715E+03  0.46114898529E+03  0.12509341344E+03 0.  0.
        -24    2    1    2    0    0  0.15578466727E+02 -0.35096917723E+02  0.68199062902E+02  0.11205447665E+03  0.80191092385E+02 0.  0.
        -11    1    3    3    0    0 -0.19548412486E+01 -0.11778574059E+03 -0.29761816664E+04  0.29785121476E+04  0.00000000000E+00 0.  1.
         12    1    3    3    0    0  0.94200175630E+01  0.18019648407E+01 -0.54692967086E+02  0.55527510811E+02  0.00000000000E+00 0. -1.
         13    1    5    5    0    0  0.23434188699E+02 -0.59068207502E+02  0.45958625246E+02  0.78424546999E+02  0.00000000000E+00 0. -1.
        -14    1    5    5    0    0 -0.78557219712E+01  0.23971289779E+02  0.22240437655E+02  0.33629929653E+02  0.00000000000E+00 0.  1.
          5    1    4    4  501    0  0.12832561182E+02 -0.31995722772E+01  0.14709078726E+01  0.13948041412E+02  0.41800000000E+01 0. -1.
         -5    1    4    4    0  501 -0.35876204224E+02  0.15428026575E+03 -0.41818860503E+03  0.44720094388E+03  0.41800000000E+01 0. -1.
</event>
<event>
11    1  0.8328696E-009  0.1462930E+03  0.7561462E-02  0.1100728E+00
         22   -1    0    0    0    0  0.00000000000E+00  0.00000000000E+00  0.47987376950E+03  0.47987376950E+03  0.00000000000E+00 0. -1.
         22   -1    0    0    0    0 -0.00000000000E+00 -0.00000000000E+00 -0.26164918663E+03  0.26164918663E+03  0.00000000000E+00 0. -1.
        -24    2    1    2    0    0  0.51528521571E+02 -0.29899830541E+02 -0.18858524033E+03  0.20777967760E+03  0.63708815334E+02 0.  0.
         25    2    1    2    0    0  0.21731668312E+02 -0.10458085774E+02  0.18348764653E+02  0.12870446557E+03  0.12508607168E+03 0.  0.
         24    2    1    2    0    0 -0.73260189882E+02  0.40357916315E+02  0.38846105855E+03  0.40503881296E+03  0.78476933973E+02 0.  0.
        -11    1    5    5    0    0 -0.89389547405E+02  0.37055546893E+02  0.30546218820E+03  0.32042277254E+03  0.00000000000E+00 0.  1.
         12    1    5    5    0    0  0.16129357523E+02  0.33023694222E+01  0.82998870347E+02  0.84616040422E+02  0.00000000000E+00 0. -1.
         13    1    3    3    0    0 -0.69352945118E+01  0.10523297745E+02 -0.55394128119E+02  0.56809748595E+02  0.00000000000E+00 0. -1.
        -14    1    3    3    0    0  0.58463816082E+02 -0.40423128286E+02 -0.13319111221E+03  0.15096992900E+03  0.00000000000E+00 0.  1.
          5    1    4    4  501    0 -0.20686554590E+02 -0.50155624268E+02 -0.21092978290E+02  0.58360143246E+02  0.41800000000E+01 0.  1.
         -5    1    4    4    0  501  0.42418222902E+02  0.39697538494E+02  0.39441742942E+02  0.70344322322E+02  0.41800000000E+01 0.  1.
</event>
<event>
11    1  0.8328696E-009  0.1865160E+03  0.7561462E-02  0.1064491E+00
         22   -1    0    0    0    0  0.00000000000E+00  0.00000000000E+00  0.35980559858E+04  0.35980559858E+04  0.00000000000E+00 0. -1.
         22   -1    0    0    0    0 -0.00000000000E+00 -0.00000000000E+00 -0.16781119353E+04  0.16781119353E+04  0.00000000000E+00 0.  1.
        -24    2    1    2    0    0  0.80375648192E+02 -0.11238928767E+03 -0.16347411034E+04  0.16425484619E+04  0.80593906973E+02 0.  0.
         25    2    1    2    0    0 -0.39139558287E+02  0.15655204808E+03  0.23045874579E+03  0.30789677128E+03  0.12509492187E+03 0.  0.
         24    2    1    2    0    0 -0.41236089905E+02 -0.44162760408E+02  0.33242264081E+04  0.33257226880E+04  0.79368889329E+02 0.  0.
        -13    1    5    5    0    0 -0.12375691028E+02  0.19812654183E+01  0.74965213826E+02  0.76005699951E+02  0.00000000000E+00 0.  1.
         14    1    5    5    0    0 -0.28860398877E+02 -0.46144025826E+02  0.32492611942E+04  0.32497169880E+04  0.00000000000E+00 0. -1.
         13    1    3    3    0    0  0.43554210215E+02 -0.27549406834E+01 -0.51775894024E+03  0.51959491830E+03  0.00000000000E+00 0. -1.
        -14    1    3    3    0    0  0.36821437977E+02 -0.10963434699E+03 -0.11169821631E+04  0.11229535436E+04  0.00000000000E+00 0.  1.
          5    1    4    4  501    0 -0.61258623136E+02  0.11471566400E+03  0.86353644279E+02  0.15616250112E+03  0.41800000000E+01 0.  1.
         -5    1    4    4    0  501  0.22119064849E+02  0.41836384082E+02  0.14410510151E+03  0.15173427017E+03  0.41800000000E+01 0.  1.
</event>
<event>
11    1  0.8328696E-009  0.1315606E+03  0.7561462E-02  0.1117366E+00
         22   -1    0    0    0    0  0.00000000000E+00  0.00000000000E+00  0.10455194828E+04  0.10455194828E+04  0.00000000000E+00 0. -1.
         22   -1    0    0    0    0 -0.00000000000E+00 -0.00000000000E+00 -0.85146666023E+02  0.85146666023E+02  0.00000000000E+00 0. -1.
         24    2    1    2    0    0  0.47770107517E+02 -0.86607640388E+01  0.13951998949E+01  0.96983037986E+02  0.83945047908E+02 0.  0.
         25    2    1    2    0    0 -0.24163898910E+02 -0.14606248694E+02  0.81312752432E+02  0.15182989564E+03  0.12507324650E+03 0.  0.
        -24    2    1    2    0    0 -0.23606208606E+02  0.23267012733E+02  0.87766486443E+03  0.88185321518E+03  0.79188836942E+02 0.  0.
        -13    1    3    3    0    0  0.65305638474E+02 -0.71051441545E+01  0.22557074516E+02  0.69455965191E+02  0.00000000000E+00 0.  1.
         14    1    3    3    0    0 -0.17535530957E+02 -0.15556198842E+01 -0.21161874621E+02  0.27527072795E+02  0.00000000000E+00 0. -1.
         13    1    5    5    0    0 -0.27200758231E+02  0.35131436193E+02  0.85384697897E+03  0.85500220032E+03  0.00000000000E+00 0. -1.
        -14    1    5    5    0    0  0.35945496244E+01 -0.11864423460E+02  0.23817885466E+02  0.26851014861E+02  0.00000000000E+00 0.  1.
          5    1    4    4  501    0 -0.11537033579E+02  0.49845929687E+02  0.67130918201E+02  0.84508889643E+02  0.41800000000E+01 0. -1.
         -5    1    4    4    0  501 -0.12626865331E+02 -0.64452178382E+02  0.14181834231E+02  0.67321005996E+02  0.41800000000E+01 0. -1.
</event>
<event>
11    1  0.8328696E-009  0.1869591E+03  0.7561462E-02  0.1064149E+00
         22   -1    0    0    0    0  0.00000000000E+00  0.00000000000E+00  0.11915775795E+04  0.11915775795E+04  0.00000000000E+00 0. -1.
         22   -1    0    0    0    0 -0.00000000000E+00 -0.00000000000E+00 -0.51731073349E+03  0.51731073349E+03  0.00000000000E+00 0. -1.
        -24    2    1    2    0    0 -0.62873837823E+02 -0.11066588412E+03 -0.31543907813E+03  0.35131096645E+03  0.87849449310E+02 0.  0.
         25    2    1    2    0    0  0.13535018663E+03  0.13445842653E+03 -0.10942213813E+03  0.25301965253E+03  0.12508796411E+03 0.  0.
         24    2    1    2    0    0 -0.72476348809E+02 -0.23792542410E+02  0.10991280623E+04  0.11045576940E+04  0.78398315532E+02 0.  0.
        -11    1    5    5    0    0 -0.70361320200E+01  0.11847446141E+02  0.57438221576E+03  0.57454747316E+03  0.00000000000E+00 0.  1.
         12    1    5    5    0    0 -0.65440216789E+02 -0.35639988551E+02  0.52474584656E+03  0.53001022088E+03  0.00000000000E+00 0. -1.
         11    1    3    3    0    0 -0.33043586729E+01 -0.77196381032E+02 -0.22543496839E+03  0.23830888570E+03  0.00000000000E+00 0. -1.
        -12    1    3    3    0    0 -0.59569479150E+02 -0.33469503092E+02 -0.90004109742E+02  0.11300208075E+03  0.00000000000E+00 0.  1.
          5    1    4    4  501    0  0.11917615023E+03  0.11396542136E+03 -0.13728726954E+03  0.21460740627E+03  0.41800000000E+01 0.  1.
         -5    1    4    4    0  501  0.16174036399E+02  0.20493005173E+02  0.27865131402E+02  0.38412246257E+02  0.41800000000E+01 0.  1.
</event>
<event>
11    1  0.8328696E-009  0.2118159E+03  0.7561462E-02  0.1046469E+00
         22   -1    0    0    0    0  0.00000000000E+00  0.00000000000E+00  0.94527911256E+03  0.94527911256E+03  0.00000000000E+00 0.  1.
         22   -1    0    0    0    0 -0.00000000000E+00 -0.00000000000E+00 -0.31073117328E+03  0.31073117328E+03  0.00000000000E+00 0.  1.
        -24    2    1    2    0    0  0.62245647027E+02  0.15970780956E+03 -0.24262956469E+03  0.30741129898E+03  0.79066402921E+02 0.  0.
         25    2    1    2    0    0 -0.72040772317E+02 -0.15012819974E+03  0.29740989533E+03  0.36308228289E+03  0.12509096319E+03 0.  0.
         24    2    1    2    0    0  0.97951252899E+01 -0.95796098165E+01  0.57976760864E+03  0.58551670398E+03  0.80694592164E+02 0.  0.
        -13    1    5    5    0    0 -0.34674408407E+02  0.19629828519E+01  0.29973148875E+03  0.30173686094E+03  0.00000000000E+00 0.  1.
         14    1    5    5    0    0  0.44469533697E+02 -0.11542592668E+02  0.28003611989E+03  0.28377984304E+03  0.00000000000E+00 0. -1.
         11    1    3    3    0    0 -0.90750046986E+01 -0.34743754165E+01 -0.20664189871E+02  0.22834967437E+02  0.00000000000E+00 0. -1.
        -12    1    3    3    0    0  0.71320651726E+02  0.16318218498E+03 -0.22196537482E+03  0.28457633154E+03  0.00000000000E+00 0.  1.
          5    1    4    4  501    0 -0.94283672327E+02 -0.94778606923E+02  0.26044284865E+03  0.29278036992E+03  0.41800000000E+01 0.  1.
         -5    1    4    4    0  501  0.22242900010E+02 -0.55349592821E+02  0.36967046673E+02  0.70301912961E+02  0.41800000000E+01 0.  1.
</event>
<event>
11    1  0.8328696E-009  0.1440086E+03  0.7561462E-02  0.1103163E+00
         22   -1    0    0    0    0  0.00000000000E+00  0.00000000000E+00  0.10626328516E+03  0.10626328516E+03  0.00000000000E+00 0. -1.
         22   -1    0    0    0    0 -0.00000000000E+00 -0.00000000000E+00 -0.96422336791E+03  0.96422336791E+03  0.00000000000E+00 0.  1.
         24    2    1    2    0    0 -0.55625222109E+02  0.43704229923E+02 -0.79399997189E+03  0.80081395940E+03  0.76569035239E+02 0.  0.
         25    2    1    2    0    0  0.40569774362E+02 -0.75157708330E+02 -0.92790346038E+02  0.17762961168E+03  0.12509053886E+03 0.  0.
        -24    2    1    2    0    0  0.15055447748E+02  0.31453478407E+02  0.28830235182E+02  0.92043081999E+02  0.80154592335E+02 0.  0.
        -11    1    3    3    0    0 -0.58719796034E+02  0.60034995709E+02 -0.56442328331E+03  0.57063636223E+03  0.00000000000E+00 0.  1.
         12    1    3    3    0    0  0.30945739241E+01 -0.16330765786E+02 -0.22957668858E+03  0.23017759717E+03  0.00000000000E+00 0. -1.
         11    1    5    5    0    0 -0.10185692701E+01  0.53084072643E+02  0.36010460900E+02  0.64153796037E+02  0.00000000000E+00 0. -1.
        -12    1    5    5    0    0  0.16074017018E+02 -0.21630594236E+02 -0.71802257179E+01  0.27889285962E+02  0.00000000000E+00 0.  1.
          5    1    4    4  501    0 -0.13237585399E+02 -0.37447378200E+01 -0.86728161509E+02  0.87911905492E+02  0.41800000000E+01 0.  1.
         -5    1    4    4    0  501  0.53807359761E+02 -0.71412970510E+02 -0.60621845285E+01  0.89717706183E+02  0.41800000000E+01 0.  1.
</event>
<event>
11    1  0.8328696E-009  0.1561466E+03  0.7561462E-02  0.1090759E+00
         22   -1    0    0    0    0  0.00000000000E+00  0.00000000000E+00  0.31199159268E+03  0.31199159268E+03  0.00000000000E+00 0.  1.
         22   -1    0    0    0    0 -0.00000000000E+00 -0.00000000000E+00 -0.55737040225E+03  0.55737040225E+03  0.00000000000E+00 0. -1.
        -24    2    1    2    0    0 -0.60384430625E+02 -0.74634675637E+02 -0.49691195156E+03  0.51228196338E+03  0.79339196702E+02 0.  0.
         25    2    1    2    0    0  0.66280761322E+02  0.51217985305E+01  0.10680828108E+03  0.17741340781E+03  0.12509251066E+03 0.  0.
         24    2    1    2    0    0 -0.58963306970E+01  0.69512877106E+02  0.14472486091E+03  0.17966662373E+03  0.80423898933E+02 0.  0.
        -11    1    5    5    0    0 -0.15124618631E+02  0.85954931316E+02  0.12417485061E+03  0.15177746154E+03  0.00000000000E+00 0.  1.
         12    1    5    5    0    0  0.92282879340E+01 -0.16442054209E+02  0.20550010297E+02  0.27889162197E+02  0.00000000000E+00 0. -1.
         11    1    3    3    0    0 -0.31719152979E+02 -0.87192340052E+02 -0.38992230285E+03  0.40080919537E+03  0.00000000000E+00 0. -1.
        -12    1    3    3    0    0 -0.28665277645E+02  0.12557664415E+02 -0.10698964871E+03  0.11147276802E+03  0.00000000000E+00 0.  1.
          5    1    4    4  501    0 -0.88688473265E+01 -0.47623718020E+02  0.47861721977E+02  0.68226767486E+02  0.41800000000E+01 0. -1.
         -5    1    4    4    0  501  0.75149608648E+02  0.52745516550E+02  0.58946559100E+02  0.10918664033E+03  0.41800000000E+01 0. -1.
</event>
<event>
11    1  0.8328696E-009  0.1310115E+03  0.7561462E-02  0.1118032E+00
         22   -1    0    0    0    0  0.00000000000E+00  0.00000000000E+00  0.19172653700E+03  0.19172653700E+03  0.00000000000E+00 0.  1.
         22   -1    0    0    0    0 -0.00000000000E+00 -0.00000000000E+00 -0.56287829602E+03  0.56287829602E+03  0.00000000000E+00 0. -1.
         24    2    1    2    0    0  0.31238215106E+02  0.42507467971E+01 -0.49016174355E+03  0.49718887681E+03  0.77099607352E+02 0.  0.
         25    2    1    2    0    0 -0.96581342788E+01 -0.40022802574E+02  0.43388472616E+02  0.13865503214E+03  0.12509018386E+03 0.  0.
        -24    2    1    2    0    0 -0.21580080827E+02  0.35772055777E+02  0.75621511914E+02  0.11876092406E+03  0.81487447845E+02 0.  0.
        -11    1    3    3    0    0  0.21106969867E+02 -0.20882609250E+02 -0.68510717593E+02  0.74667971522E+02  0.00000000000E+00 0.  1.
         12    1    3    3    0    0  0.10131245238E+02  0.25133356047E+02 -0.42165102596E+03  0.42252090529E+03  0.00000000000E+00 0. -1.
         11    1    5    5    0    0 -0.27733560341E+02  0.22336070722E+02 -0.57389936464E+01  0.36069190074E+02  0.00000000000E+00 0. -1.
        -12    1    5    5    0    0  0.61534795143E+01  0.13435985055E+02  0.81360505561E+02  0.82691733986E+02  0.00000000000E+00 0.  1.
          5    1    4    4  501    0  0.15246332959E+02 -0.72000188837E+02  0.59607104752E+02  0.94799563280E+02  0.41800000000E+01 0.  1.
         -5    1    4    4    0  501 -0.24904467237E+02  0.31977386263E+02 -0.16218632136E+02  0.43855468860E+02  0.41800000000E+01 0.  1.
</event>
<event>
11    1  0.8328696E-009  0.1507664E+03  0.7561462E-02  0.1096098E+00
         22   -1    0    0    0    0  0.00000000000E+00  0.00000000000E+00  0.10647846724E+04  0.10647846724E+04  0.00000000000E+00 0. -1.
         22   -1    0    0    0    0 -0.00000000000E+00 -0.00000000000E+00 -0.11848960619E+04  0.11848960619E+04  0.00000000000E+00 0. -1.
        -24    2    1    2    0    0  0.32482878453E+02  0.12591589951E+02 -0.11413602433E+04  0.11446257484E+04  0.79064615692E+02 0.  0.
         25    2    1    2    0    0  0.95373238780E+01  0.62993876600E+02  0.90594356324E+02  0.16707456943E+03  0.12508950921E+03 0.  0.
         24    2    1    2    0    0 -0.42020202331E+02 -0.75585466551E+02  0.93065449745E+03  0.93798041641E+03  0.78807409477E+02 0.  0.
        -11    1    5    5    0    0 -0.70514455715E+01 -0.81180662483E+02  0.63039653559E+03  0.63564126277E+03  0.00000000000E+00 0.  1.
         12    1    5    5    0    0 -0.34968756759E+02  0.55951959319E+01  0.30025796186E+03  0.30233915364E+03  0.00000000000E+00 0. -1.
         11    1    3    3    0    0  0.21938775746E+02  0.21258985697E+02 -0.11100433630E+04  0.11104636518E+04  0.00000000000E+00 0. -1.
        -12    1    3    3    0    0  0.10544102707E+02 -0.86673957460E+01 -0.31316880352E+02  0.34162096627E+02  0.00000000000E+00 0.  1.
          5    1    4    4  501    0 -0.48791587102E+02 -0.38347269135E+01  0.17788080066E+02  0.52241863432E+02  0.41800000000E+01 0.  1.
         -5    1    4    4    0  501  0.58328910980E+02  0.66828603513E+02  0.72806276258E+02  0.11483270599E+03  0.41800000000E+01 0.  1.
</event>
<event>
11    1  0.8328696E-009  0.1444780E+03  0.7561462E-02  0.1102659E+00
         22   -1    0    0    0    0  0.00000000000E+00  0.00000000000E+00  0.14170726945E+03  0.14170726945E+03  0.00000000000E+00 0. -1.
         22   -1    0    0    0    0 -0.00000000000E+00 -0.00000000000E+00 -0.95053255350E+03  0.95053255350E+03  0.00000000000E+00 0.  1.
         24    2    1    2    0    0 -0.37607871983E+02 -0.65772434411E+02 -0.82188474450E+03  0.82918106068E+03  0.79412423374E+02 0.  0.
         25    2    1    2    0    0  0.16037611412E+02  0.29776334030E+02 -0.63360198101E+02  0.14424240843E+03  0.12509005811E+03 0.  0.
        -24    2    1    2    0    0  0.21570260571E+02  0.35996100380E+02  0.76419658546E+02  0.11881635384E+03  0.80724013429E+02 0.  0.
        -13    1    3    3    0    0 -0.34300077886E+02 -0.71654506938E+02 -0.43234263779E+03  0.43958050475E+03  0.00000000000E+00 0.  1.
         14    1    3    3    0    0 -0.33077940964E+01  0.58820725280E+01 -0.38954210671E+03  0.38960055593E+03  0.00000000000E+00 0. -1.
         13    1    5    5    0    0 -0.29711679384E+02  0.19274340401E+02  0.41512440674E+02  0.54567085504E+02  0.00000000000E+00 0. -1.
        -14    1    5    5    0    0  0.51281939954E+02  0.16721759979E+02  0.34907217872E+02  0.64249268337E+02  0.00000000000E+00 0.  1.
          5    1    4    4  501    0 -0.49824450737E+02  0.38140906593E+02 -0.27071492440E+02  0.68465631888E+02  0.41800000000E+01 0. -1.
         -5    1    4    4    0  501  0.65862062149E+02 -0.83645725623E+01 -0.36288705661E+02  0.75776776543E+02  0.41800000000E+01 0. -1.
</event>
<event>
11    1  0.8328696E-009  0.2635707E+03  0.7561462E-02  0.1016908E+00
         22   -1    0    0    0    0  0.00000000000E+00  0.00000000000E+00  0.68712917089E+03  0.68712917089E+03  0.00000000000E+00 0. -1.
         22   -1    0    0    0    0 -0.00000000000E+00 -0.00000000000E+00 -0.47483872743E+03  0.47483872743E+03  0.00000000000E+00 0.  1.
        -24    2    1    2    0    0 -0.12393614401E+02  0.26015484852E+02 -0.36272934594E+03  0.37242125124E+03  0.79338533133E+02 0.  0.
         25    2    1    2    0    0 -0.11827590219E+03  0.17653200342E+03  0.13418758822E+03  0.28073321274E+03  0.12510831562E+03 0.  0.
         24    2    1    2    0    0  0.13066951659E+03 -0.20254748827E+03  0.44083220118E+03  0.50881343434E+03  0.80362141590E+02 0.  0.
        -11    1    5    5    0    0 -0.58789015018E+01 -0.26362696045E+02  0.24040469746E+02  0.36159333667E+02  0.00000000000E+00 0.  1.
         12    1    5    5    0    0  0.13654841809E+03 -0.17618479222E+03  0.41679173143E+03  0.47265410068E+03  0.00000000000E+00 0. -1.
         11    1    3    3    0    0 -0.28509867546E+02  0.75410670049E+01 -0.45342905409E+02  0.54089364112E+02  0.00000000000E+00 0. -1.
        -12    1    3    3    0    0  0.16116253145E+02  0.18474417847E+02 -0.31738644053E+03  0.31833188713E+03  0.00000000000E+00 0.  1.
          5    1    4    4  501    0 -0.80760717073E+02  0.55988996469E+02  0.11763553503E+03  0.15333836001E+03  0.41800000000E+01 0.  1.
         -5    1    4    4    0  501 -0.37515185112E+02  0.12054300695E+03  0.16552053185E+02  0.12739485273E+03  0.41800000000E+01 0.  1.
</event>
<event>
11    1  0.8328696E-009  0.1293122E+03  0.7561462E-02  0.1120117E+00
         22   -1    0    0    0    0  0.00000000000E+00  0.00000000000E+00  0.48793346145E+03  0.48793346145E+03  0.00000000000E+00 0. -1.
         22   -1    0    0    0    0 -0.00000000000E+00 -0.00000000000E+00 -0.49266048428E+02  0.49266048428E+02  0.00000000000E+00 0.  1.
        -24    2    1    2    0    0  0.88209484382E+01 -0.22135245335E+02  0.86775773818E+02  0.11983041749E+03  0.79129740411E+02 0.  0.
         25    2    1    2    0    0  0.15930920024E+02  0.39997763894E+02  0.16152567866E+03  0.20878606539E+03  0.12508981136E+03 0.  0.
         24    2    1    2    0    0 -0.24751868462E+02 -0.17862518559E+02  0.19036596054E+03  0.20858302699E+03  0.79598716414E+02 0.  0.
        -11    1    5    5    0    0 -0.37209705843E+02 -0.42322447152E+02  0.14490830606E+03  0.15548044542E+03  0.00000000000E+00 0.  1.
         12    1    5    5    0    0  0.12457837381E+02  0.24459928594E+02  0.45457654482E+02  0.53102581575E+02  0.00000000000E+00 0. -1.
         13    1    3    3    0    0  0.26627304727E+02 -0.27881778534E+02  0.92541641282E+02  0.10025149526E+03  0.00000000000E+00 0. -1.
        -14    1    3    3    0    0 -0.17806356289E+02  0.57465331992E+01 -0.57658674643E+01  0.19578922230E+02  0.00000000000E+00 0.  1.
          5    1    4    4  501    0 -0.33483613648E+02 -0.30231582709E+02  0.68394420180E+02  0.82038832803E+02  0.41800000000E+01 0. -1.
         -5    1    4    4    0  501  0.49414533672E+02  0.70229346603E+02  0.93131258484E+02  0.12674723259E+03  0.41800000000E+01 0. -1.
</event>
<event>
11    1  0.8328696E-009  0.7999763E+03  0.7561462E-02  0.8896695E-01
         22   -1    0    0    0    0  0.00000000000E+00  0.00000000000E+00  0.43544134301E+03  0.43544134301E+03  0.00000000000E+00 0. -1.
         22   -1    0    0    0    0 -0.00000000000E+00 -0.00000000000E+00 -0.36742153234E+03  0.36742153234E+03  0.00000000000E+00 0. -1.
        -24    2    1    2    0    0 -0.10467662591E+02  0.13207305167E+03 -0.86281293589E+02  0.17734277816E+03  0.80331416064E+02 0.  0.
         25    2    1    2    0    0  0.12882308409E+03 -0.32140926663E+03  0.11018356661E+03  0.38430146087E+03  0.12509152972E+03 0.  0.
         24    2    1    2    0    0 -0.11835542150E+03  0.18933621496E+03  0.44117537652E+02  0.24121863631E+03  0.79899094359E+02 0.  0.
        -11    1    5    5    0    0 -0.19083040628E+01  0.22277687308E+02 -0.17576076015E+02  0.28440383687E+02  0.00000000000E+00 0.  1.
         12    1    5    5    0    0 -0.11644711744E+03  0.16705852766E+03  0.61693613667E+02  0.21277825262E+03  0.00000000000E+00 0. -1.
         11    1    3    3    0    0  0.47459395818E+01  0.12767318742E+03 -0.95049934919E+02  0.15924024886E+03  0.00000000000E+00 0. -1.
        -12    1    3    3    0    0 -0.15213602172E+02  0.43998642456E+01  0.87686413301E+01  0.18102529304E+02  0.00000000000E+00 0.  1.
          5    1    4    4  501    0 -0.21707176837E+02 -0.15477134663E+02  0.48564621805E+01  0.27418987007E+02  0.41800000000E+01 0.  1.
         -5    1    4    4    0  501  0.15053026093E+03 -0.30593213197E+03  0.10532710443E+03  0.35688247387E+03  0.41800000000E+01 0.  1.
</event>
<event>
11    1  0.8328696E-009  0.1476831E+03  0.7561462E-02  0.1099270E+00
         22   -1    0    0    0    0  0.00000000000E+00  0.00000000000E+00  0.36524527605E+03  0.36524527605E+03  0.00000000000E+00 0.  1.
         22   -1    0    0    0    0 -0.00000000000E+00 -0.00000000000E+00 -0.38029968634E+03  0.38029968634E+03  0.00000000000E+00 0.  1.
        -24    2    1    2    0    0  0.19065422533E+02 -0.21955044506E+02 -0.31389437375E+03  0.32355240305E+03  0.72876370187E+02 0.  0.
         25    2    1    2    0    0 -0.72211883959E+02  0.71210026191E+02  0.84395371368E+02  0.18181113672E+03  0.12508911509E+03 0.  0.
         24    2    1    2    0    0  0.53146461427E+02 -0.49254981685E+02  0.21444459210E+03  0.24018142261E+03  0.80312098103E+02 0.  0.
        -11    1    5    5    0    0  0.62913457410E+02 -0.30910457491E+02  0.20625928155E+03  0.21784501539E+03  0.00000000000E+00 0.  1.
         12    1    5    5    0    0 -0.97669959836E+01 -0.18344524194E+02  0.81853105481E+01  0.22336407213E+02  0.00000000000E+00 0. -1.
         13    1    3    3    0    0 -0.10731485828E+02 -0.15288167823E+02 -0.17520331681E+02  0.25609663912E+02  0.00000000000E+00 0. -1.
        -14    1    3    3    0    0  0.29796908360E+02 -0.66668766828E+01 -0.29637404207E+03  0.29794273914E+03  0.00000000000E+00 0.  1.
          5    1    4    4  501    0 -0.62055468320E+02 -0.22782232904E+02  0.30687526771E+02  0.73000739612E+02  0.41800000000E+01 0.  1.
         -5    1    4    4    0  501 -0.10156415639E+02  0.93992259094E+02  0.53707844597E+02  0.10881039711E+03  0.41800000000E+01 0.  1.
</event>
<event>
11    1  0.8328696E-009  0.1974898E+03  0.7561462E-02  0.1056313E+00
         22   -1    0    0    0    0  0.00000000000E+00  0.00000000000E+00  0.60884823366E+03  0.60884823366E+03  0.00000000000E+00 0.  1.
         22   -1    0    0    0    0 -0.00000000000E+00 -0.00000000000E+00 -0.12005658098E+03  0.12005658098E+03  0.00000000000E+00 0.  1.
         24    2    1    2    0    0  0.15591973184E+02 -0.10402723589E+03  0.10937062946E+03  0.17174420142E+03  0.80432336157E+02 0.  0.
         25    2    1    2    0    0 -0.16026163006E+03  0.10584310651E+03  0.14754648315E+03  0.27258730866E+03  0.12508925969E+03 0.  0.
        -24    2    1    2    0    0  0.14466965687E+03 -0.18158706276E+01  0.23187454007E+03  0.28457330455E+03  0.79268886228E+02 0.  0.
        -13    1    3    3    0    0 -0.21116683828E+02 -0.76148136016E+02  0.40299692075E+02  0.88704668062E+02  0.00000000000E+00 0.  1.
         14    1    3    3    0    0  0.36708657012E+02 -0.27879099869E+02  0.69070937389E+02  0.83039533362E+02  0.00000000000E+00 0. -1.
         11    1    5    5    0    0  0.99018756868E+01 -0.12620729142E+01  0.83638817569E+02  0.84232367737E+02  0.00000000000E+00 0. -1.
        -12    1    5    5    0    0  0.13476778119E+03 -0.55379771332E+00  0.14823572250E+03  0.20034093681E+03  0.00000000000E+00 0.  1.
          5    1    4    4  501    0 -0.12263869465E+02  0.36052473543E+02 -0.15711114477E+02  0.41406459170E+02  0.41800000000E+01 0.  1.
         -5    1    4    4    0  501 -0.14799776059E+03  0.69790632969E+02  0.16325759763E+03  0.23118084949E+03  0.41800000000E+01 0.  1.
</event>
<event>
11    1  0.8328696E-009  0.2082093E+03  0.7561462E-02  0.1048866E+00
         22   -1    0    0    0    0  0.00000000000E+00  0.00000000000E+00  0.11044769716E+04  0.11044769716E+04  0.00000000000E+00 0.  1.
         22   -1    0    0    0    0 -0.00000000000E+00 -0.00000000000E+00 -0.87452607759E+02  0.87452607759E+02  0.00000000000E+00 0. -1.
         24    2    1    2    0    0  0.16875080388E+03  0.19096719851E+01  0.76429192863E+02  0.20136196412E+03  0.78897011439E+02 0.  0.
         25    2    1    2    0    0 -0.15555147665E+03  0.56727524305E+02  0.55218937299E+03  0.58989414570E+03  0.12509086928E+03 0.  0.
        -24    2    1    2    0    0 -0.13199327234E+02 -0.58637196290E+02  0.38840579799E+03  0.40067346954E+03  0.77894943726E+02 0.  0.
        -11    1    3    3    0    0 -0.32075591970E+01 -0.83539423088E+01 -0.56080978352E+01  0.10560660464E+02  0.00000000000E+00 0.  1.
         12    1    3    3    0    0  0.17195836308E+03  0.10263614294E+02  0.82037290698E+02  0.19080130366E+03  0.00000000000E+00 0. -1.
         11    1    5    5    0    0 -0.67801897118E+01 -0.28816416235E+01 -0.82862791681E+00  0.74135993417E+01  0.00000000000E+00 0. -1.
        -12    1    5    5    0    0 -0.64191375225E+01 -0.55755554667E+02  0.38923442590E+03  0.39325987020E+03  0.00000000000E+00 0.  1.
          5    1    4    4  501    0 -0.11387357262E+03 -0.76984553440E+01  0.20862868440E+03  0.23784418662E+03  0.41800000000E+01 0. -1.
         -5    1    4    4    0  501 -0.41677904034E+02  0.64425979649E+02  0.34356068859E+03  0.35204995907E+03  0.41800000000E+01 0. -1.
</event>
<event>
11    1  0.8328696E-009  0.1337393E+03  0.7561462E-02  0.1114758E+00
         22   -1    0    0    0    0  0.00000000000E+00  0.00000000000E+00  0.27311589521E+03  0.27311589521E+03  0.00000000000E+00 0.  1.
         22   -1    0    0    0    0 -0.00000000000E+00 -0.00000000000E+00 -0.73705356772E+03  0.73705356772E+03  0.00000000000E+00 0. -1.
         24    2    1    2    0    0  0.12650587455E+02  0.45630747722E+02 -0.68907460140E+03  0.69550098669E+03  0.81581944645E+02 0.  0.
         25    2    1    2    0    0 -0.21054963111E+02 -0.42394031786E+02  0.97858569539E+02  0.16571901368E+03  0.12508367784E+03 0.  0.
        -24    2    1    2    0    0  0.84043756565E+01 -0.32367159357E+01  0.12727835935E+03  0.14894946256E+03  0.76844334721E+02 0.  0.
        -13    1    3    3    0    0  0.11148475520E+02 -0.12143493554E+02 -0.33025754153E+02  0.36911426137E+02  0.00000000000E+00 0.  1.
         14    1    3    3    0    0  0.15021119344E+01  0.57774241276E+02 -0.65604884724E+03  0.65858956055E+03  0.00000000000E+00 0. -1.
         13    1    5    5    0    0 -0.57880447651E+01 -0.75502499507E+01 -0.82616996304E+01  0.12600135607E+02  0.00000000000E+00 0. -1.
        -14    1    5    5    0    0  0.14192420422E+02  0.43135340150E+01  0.13554005898E+03  0.13634932696E+03  0.00000000000E+00 0.  1.
          5    1    4    4  501    0 -0.24217624163E+02 -0.62475653746E+02  0.11865940687E+03  0.13633498402E+03  0.41800000000E+01 0. -1.
         -5    1    4    4    0  501  0.31626610524E+01  0.20081621960E+02 -0.20800837327E+02  0.29384029658E+02  0.41800000000E+01 0. -1.
</event>
<event>
11    1  0.8328696E-009  0.1293092E+03  0.7561462E-02  0.1120121E+00
         22   -1    0    0    0    0  0.00000000000E+00  0.00000000000E+00  0.90125811358E+02  0.90125811358E+02  0.00000000000E+00 0.  1.
         22   -1    0    0    0    0 -0.00000000000E+00 -0.00000000000E+00 -0.13944216743E+04  0.13944216743E+04  0.00000000000E+00 0. -1.
         24    2    1    2    0    0 -0.27024835314E+02 -0.25998550319E+02 -0.12151203067E+04  0.12183650070E+04  0.80558451236E+02 0.  0.
         25    2    1    2    0    0 -0.35972307588E+01 -0.54787182236E+01 -0.93321866426E+02  0.15620467633E+03  0.12509186117E+03 0.  0.
        -24    2    1    2    0    0  0.30622066072E+02  0.31477268543E+02  0.41463102075E+01  0.10997780235E+03  0.10074420954E+03 0.  0.
        -13    1    3    3    0    0  0.10298630836E+02  0.39173254008E+01 -0.25442033061E+02  0.27725516797E+02  0.00000000000E+00 0.  1.
         14    1    3    3    0    0 -0.37323466149E+02 -0.29915875720E+02 -0.11896782736E+04  0.11906394902E+04  0.00000000000E+00 0. -1.
         11    1    5    5    0    0  0.27417861003E+02  0.16089000343E+02 -0.46848186504E+02  0.56615789430E+02  0.00000000000E+00 0. -1.
        -12    1    5    5    0    0  0.32042050700E+01  0.15388268200E+02  0.50994496712E+02  0.53362012923E+02  0.00000000000E+00 0.  1.
          5    1    4    4  501    0  0.84821921754E+01  0.32843948266E+01  0.30147752096E+02  0.31766242931E+02  0.41800000000E+01 0.  1.
         -5    1    4    4    0  501 -0.12079422934E+02 -0.87631130502E+01 -0.12346961852E+03  0.12443843340E+03  0.41800000000E+01 0.  1.
</event>
<event>
11    1  0.8328696E-009  0.1887073E+03  0.7561462E-02  0.1062809E+00
         22   -1    0    0    0    0  0.00000000000E+00  0.00000000000E+00  0.62935038067E+03  0.62935038067E+03  0.00000000000E+00 0.  1.
         22   -1    0    0    0    0 -0.00000000000E+00 -0.00000000000E+00 -0.21597915860E+03  0.21597915860E+03  0.00000000000E+00 0.  1.
         24    2    1    2    0    0 -0.20246538121E+02  0.63159761999E+02 -0.12468090616E+03  0.17819629065E+03  0.10867157769E+03 0.  0.
         25    2    1    2    0    0  0.58515410767E+02  0.87098070074E+02  0.89261211595E+02  0.18608469945E+03  0.12509925805E+03 0.  0.
        -24    2    1    2    0    0 -0.38268872646E+02 -0.15025783207E+03  0.44879091663E+03  0.48104854918E+03  0.77152427732E+02 0.  0.
        -11    1    3    3    0    0 -0.55557984366E+02  0.23816149276E+02 -0.10619092822E+03  0.12219006437E+03  0.00000000000E+00 0.  1.
         12    1    3    3    0    0  0.35311446244E+02  0.39343612723E+02 -0.18489977935E+02  0.56006226279E+02  0.00000000000E+00 0. -1.
         13    1    5    5    0    0 -0.29451271927E+02 -0.61292178436E+02  0.99634029378E+02  0.12062772636E+03  0.00000000000E+00 0. -1.
        -14    1    5    5    0    0 -0.88176007191E+01 -0.88965653637E+02  0.34915688725E+03  0.36042082283E+03  0.00000000000E+00 0.  1.
          5    1    4    4  501    0  0.75982108610E+02  0.13920222667E+02  0.78073625901E+02  0.10990913015E+03  0.41800000000E+01 0.  1.
         -5    1    4    4    0  501 -0.17466697844E+02  0.73177847408E+02  0.11187585693E+02  0.76175569301E+02  0.41800000000E+01 0.  1.
</event>
<event>
11    1  0.8328696E-009  0.1488794E+03  0.7561462E-02  0.1098029E+00
         22   -1    0    0    0    0  0.00000000000E+00  0.00000000000E+00  0.16240589503E+04  0.16240589503E+04  0.00000000000E+00 0. -1.
         22   -1    0    0    0    0 -0.00000000000E+00 -0.00000000000E+00 -0.47082451434E+03  0.47082451434E+03  0.00000000000E+00 0.  1.
        -24    2    1    2    0    0  0.26911145448E+02  0.14429127713E+02 -0.42471041665E+03  0.43347601742E+03  0.81179493658E+02 0.  0.
         25    2    1    2    0    0 -0.28428712073E+02 -0.94356202336E+02  0.12071372296E+03  0.19982624073E+03  0.12508972373E+03 0.  0.
         24    2    1    2    0    0  0.15175666258E+01  0.79927074623E+02  0.14572311297E+04  0.14615812065E+04  0.79412956769E+02 0.  0.
        -13    1    5    5    0    0  0.25344457939E+02 -0.30616427327E+01  0.26453792551E+03  0.26576687009E+03  0.00000000000E+00 0.  1.
         14    1    5    5    0    0 -0.23826891314E+02  0.82988717356E+02  0.11926932042E+04  0.11958143364E+04  0.00000000000E+00 0. -1.
         11    1    3    3    0    0 -0.62451707628E+01 -0.16783517890E+02 -0.22788845512E+02  0.28983100428E+02  0.00000000000E+00 0. -1.
        -12    1    3    3    0    0  0.33156316210E+02  0.31212645603E+02 -0.40192157113E+03  0.40449291699E+03  0.00000000000E+00 0.  1.
          5    1    4    4  501    0  0.31146317734E+02  0.14859880646E+02  0.26959687153E+02  0.43990979673E+02  0.41800000000E+01 0.  1.
         -5    1    4    4    0  501 -0.59575029807E+02 -0.10921608298E+03  0.93754035808E+02  0.15583526106E+03  0.41800000000E+01 0.  1.
</event>
<event>
11    1  0.8328696E-009  0.2614508E+03  0.7561462E-02  0.1017970E+00
         22   -1    0    0    0    0  0.00000000000E+00  0.00000000000E+00  0.29634396378E+04  0.29634396378E+04  0.00000000000E+00 0. -1.
         22   -1    0    0    0    0 -0.00000000000E+00 -0.00000000000E+00 -0.44546436788E+02  0.44546436788E+02  0.00000000000E+00 0.  1.
         24    2    1    2    0    0  0.25025616893E+03 -0.39669661054E+01  0.57866092360E+03  0.63530783422E+03  0.78254027413E+02 0.  0.
         25    2    1    2    0    0 -0.17241611808E+03  0.10701455391E+03  0.14079568157E+04  0.14279948005E+04  0.12508926042E+03 0.  0.
        -24    2    1    2    0    0 -0.77840050848E+02 -0.10304758781E+03  0.93227546170E+03  0.94468343979E+03  0.81310430104E+02 0.  0.
        -13    1    3    3    0    0  0.11969072519E+03 -0.38891770933E+02  0.24841236888E+03  0.27847287939E+03  0.00000000000E+00 0.  1.
         14    1    3    3    0    0  0.13056544374E+03  0.34924804828E+02  0.33024855472E+03  0.35683495483E+03  0.00000000000E+00 0. -1.
         11    1    5    5    0    0 -0.41470493912E+02  0.14109015254E+01  0.28995446314E+03  0.29290848947E+03  0.00000000000E+00 0. -1.
        -12    1    5    5    0    0 -0.36369556936E+02 -0.10445848933E+03  0.64232099856E+03  0.65177495032E+03  0.00000000000E+00 0.  1.
          5    1    4    4  501    0 -0.18274751798E+03  0.75943880583E+02  0.13035798338E+04  0.13185226520E+04  0.41800000000E+01 0.  1.
         -5    1    4    4    0  501  0.10331399898E+02  0.31070673332E+02  0.10437698189E+03  0.10947214857E+03  0.41800000000E+01 0.  1.
</event>
<event>
11    1  0.8328696E-009  0.1421666E+03  0.7561462E-02  0.1105163E+00
         22   -1    0    0    0    0  0.00000000000E+00  0.00000000000E+00  0.15908012087E+04  0.15908012087E+04  0.00000000000E+00 0.  1.
         22   -1    0    0    0    0 -0.00000000000E+00 -0.00000000000E+00 -0.37329639407E+03  0.37329639407E+03  0.00000000000E+00 0. -1.
        -24    2    1    2    0    0 -0.33784261703E+01 -0.37930557257E+02 -0.34840669353E+03  0.35944443163E+03  0.79768003613E+02 0.  0.
         25    2    1    2    0    0 -0.30315666743E+02  0.92445144666E+02  0.34794610161E+03  0.38233260294E+03  0.12508631108E+03 0.  0.
         24    2    1    2    0    0  0.33694092913E+02 -0.54514587409E+02  0.12179654066E+04  0.12223205682E+04  0.80750899536E+02 0.  0.
        -13    1    5    5    0    0  0.32593217908E+02 -0.69225084090E+02  0.11595370593E+04  0.11620587859E+04  0.00000000000E+00 0.  1.
         14    1    5    5    0    0  0.11008750053E+01  0.14710496681E+02  0.58428347293E+02  0.60261782298E+02  0.00000000000E+00 0. -1.
         11    1    3    3    0    0 -0.39825265000E+02 -0.15193247651E+02 -0.21851631878E+03  0.22263483124E+03  0.00000000000E+00 0. -1.
        -12    1    3    3    0    0  0.36446838830E+02 -0.22737309605E+02 -0.12989037475E+03  0.13680960040E+03  0.00000000000E+00 0.  1.
          5    1    4    4  501    0 -0.56413040616E+01  0.89283522618E+02  0.34558080774E+03  0.35699711315E+03  0.41800000000E+01 0.  1.
         -5    1    4    4    0  501 -0.24674362681E+02  0.31616220478E+01  0.23652938781E+01  0.25335489788E+02  0.41800000000E+01 0.  1.
</event>
<event>
11    1  0.8328696E-009  0.1529394E+03  0.7561462E-02  0.1093913E+00
         22   -1    0    0    0    0  0.00000000000E+00  0.00000000000E+00  0.36323172754E+03  0.36323172754E+03  0.00000000000E+00 0. -1.
         22   -1    0    0    0    0 -0.00000000000E+00 -0.00000000000E+00 -0.25735353221E+03  0.25735353221E+03  0.00000000000E+00 0.  1.
        -24    2    1    2    0    0 -0.72847305304E+02  0.50273062900E+02 -0.18088376587E+03  0.21500061393E+03  0.75314118817E+02 0.  0.
         25    2    1    2    0    0  0.53165946389E+02 -0.70799967699E+02  0.62491947417E+02  0.16550450597E+03  0.12508894725E+03 0.  0.
         24    2    1    2    0    0  0.19681358916E+02  0.20526904800E+02  0.22427001379E+03  0.24008013984E+03  0.80825272964E+02 0.  0.
        -13    1    5    5    0    0 -0.78485402878E+01 -0.19194083550E+02  0.15769063080E+02  0.26051406457E+02  0.00000000000E+00 0.  1.
         14    1    5    5    0    0  0.27529899204E+02  0.39720988350E+02  0.20850095071E+03  0.21402873338E+03  0.00000000000E+00 0. -1.
         11    1    3    3    0    0 -0.52661381785E+02 -0.23071967863E+01 -0.12499523635E+03  0.13565527413E+03  0.00000000000E+00 0. -1.
        -12    1    3    3    0    0 -0.20185923519E+02  0.52580259686E+02 -0.55888529519E+02  0.79345339805E+02  0.00000000000E+00 0.  1.
          5    1    4    4  501    0  0.89072157642E+02 -0.74138380637E+02  0.39378007114E+02  0.12246815339E+03  0.41800000000E+01 0. -1.
         -5    1    4    4    0  501 -0.35906211254E+02  0.33384129373E+01  0.23113940302E+02  0.43036352585E+02  0.41800000000E+01 0. -1.
</event>
<event>
11    1  0.8328696E-009  0.1671354E+03  0.7561462E-02  0.1080552E+00
         22   -1    0    0    0    0  0.00000000000E+00  0.00000000000E+00  0.66659632476E+03  0.66659632476E+03  0.00000000000E+00 0.  1.
         22   -1    0    0    0    0 -0.00000000000E+00 -0.00000000000E+00 -0.37840054868E+03  0.37840054868E+03  0.00000000000E+00 0.  1.
         24    2    1    2    0    0  0.26731565047E+02  0.90866104918E+02 -0.16376459156E+03  0.20582152785E+03  0.81070551296E+02 0.  0.
         25    2    1    2    0    0 -0.99765647723E+02 -0.12544165260E+03 -0.13270735366E+03  0.24279159730E+03  0.12509086829E+03 0.  0.
        -24    2    1    2    0    0  0.73034082676E+02  0.34575547684E+02  0.58466772130E+03  0.59638374828E+03  0.85485584498E+02 0.  0.
        -13    1    3    3    0    0  0.50163503206E+02  0.33103984589E+02 -0.61033107239E+02  0.85657988704E+02  0.00000000000E+00 0.  1.
         14    1    3    3    0    0 -0.23431938160E+02  0.57762120329E+02 -0.10273148432E+03  0.12016353915E+03  0.00000000000E+00 0. -1.
         13    1    5    5    0    0 -0.19505126113E+02  0.49311264875E+01  0.11855714027E+03  0.12025207467E+03  0.00000000000E+00 0. -1.
        -14    1    5    5    0    0  0.92539208789E+02  0.29644421197E+02  0.46611058103E+03  0.47613167362E+03  0.00000000000E+00 0.  1.
          5    1    4    4  501    0 -0.15338617205E+01 -0.95620059520E+02 -0.37785317417E+02  0.10291137511E+03  0.41800000000E+01 0.  1.
         -5    1    4    4    0  501 -0.98231786002E+02 -0.29821593082E+02 -0.94922036246E+02  0.13988022219E+03  0.41800000000E+01 0.  1.
</event>
<event>
11    1  0.8328696E-009  0.1376679E+03  0.7561462E-02  0.1110191E+00
         22   -1    0    0    0    0  0.00000000000E+00  0.00000000000E+00  0.26222475026E+04  0.26222475026E+04  0.00000000000E+00 0. -1.
         22   -1    0    0    0    0 -0.00000000000E+00 -0.00000000000E+00 -0.44766529899E+02  0.44766529899E+02  0.00000000000E+00 0.  1.
         24    2    1    2    0    0  0.24134733901E-01 -0.56691873175E+00  0.61947476186E+02  0.10094821092E+03  0.79704011840E+02 0.  0.
         25    2    1    2    0    0 -0.57386525451E+02 -0.33025869092E+01  0.17134088981E+03  0.21979290690E+03  0.12508837284E+03 0.  0.
        -24    2    1    2    0    0  0.57362390717E+02  0.38695056409E+01  0.23441926067E+04  0.23462729146E+04  0.80325561670E+02 0.  0.
        -13    1    3    3    0    0  0.39526488863E+02  0.37343642784E+01  0.35094033514E+02  0.52989432784E+02  0.00000000000E+00 0.  1.
         14    1    3    3    0    0 -0.39502354130E+02 -0.43012830101E+01  0.26853442672E+02  0.47958778140E+02  0.00000000000E+00 0. -1.
         11    1    5    5    0    0  0.42690735526E+02 -0.96378639075E+01  0.22244877167E+04  0.22249181982E+04  0.00000000000E+00 0. -1.
        -12    1    5    5    0    0  0.14671655191E+02  0.13507369548E+02  0.11970489002E+03  0.12135471640E+03  0.00000000000E+00 0.  1.
          5    1    4    4  501    0 -0.49179465362E+01 -0.59153104697E+02  0.90643426378E+02  0.10842960453E+03  0.41800000000E+01 0.  1.
         -5    1    4    4    0  501 -0.52468578914E+02  0.55850517788E+02  0.80697463431E+02  0.11136330237E+03  0.41800000000E+01 0.  1.
</event>
<event>
11    1  0.8328696E-009  0.1447838E+03  0.7561462E-02  0.1102331E+00
         22   -1    0    0    0    0  0.00000000000E+00  0.00000000000E+00  0.34561519384E+03  0.34561519384E+03  0.00000000000E+00 0.  1.
         22   -1    0    0    0    0 -0.00000000000E+00 -0.00000000000E+00 -0.69631974301E+03  0.69631974301E+03  0.00000000000E+00 0. -1.
        -24    2    1    2    0    0 -0.46643106162E+02 -0.55597635320E+02 -0.64819165546E+03  0.65718628454E+03  0.80465607380E+02 0.  0.
         25    2    1    2    0    0  0.57217062488E+02  0.62820356507E+02  0.13277720571E+03  0.20124267042E+03  0.12509451072E+03 0.  0.
         24    2    1    2    0    0 -0.10573956327E+02 -0.72227211871E+01  0.16470990058E+03  0.18350598189E+03  0.79881899003E+02 0.  0.
        -13    1    5    5    0    0  0.34804276651E+02  0.83092007070E+00  0.70678785747E+02  0.78787809058E+02  0.00000000000E+00 0.  1.
         14    1    5    5    0    0 -0.45378232978E+02 -0.80536412578E+01  0.94031114830E+02  0.10471817284E+03  0.00000000000E+00 0. -1.
         11    1    3    3    0    0 -0.30849438438E+02 -0.61332284544E+02 -0.62380490735E+03  0.62757142973E+03  0.00000000000E+00 0. -1.
        -12    1    3    3    0    0 -0.15793667724E+02  0.57346492236E+01 -0.24386748109E+02  0.29614854806E+02  0.00000000000E+00 0.  1.
          5    1    4    4  501    0  0.83417190042E+02  0.58806679050E+02  0.14014077525E+03  0.17341730705E+03  0.41800000000E+01 0. -1.
         -5    1    4    4    0  501 -0.26200127554E+02  0.40136774566E+01 -0.73635695415E+01  0.27825363375E+02  0.41800000000E+01 0. -1.
</event>
<event>
11    1  0.8911820E-009  0.1856020E+03  0.7561462E-02  0.1065199E+00
         22   -1    0    0    0    0  0.00000000000E+00  0.00000000000E+00  0.19894099934E+04  0.19894099934E+04  0.00000000000E+00 0. -1.
         22   -1    0    0    0    0 -0.00000000000E+00 -0.00000000000E+00 -0.10459237490E+04  0.10459237490E+04  0.00000000000E+00 0. -1.
         24    2    1    2    0    0  0.60953607432E+02 -0.10328459634E+03 -0.96292360468E+03  0.97361328992E+03  0.79485343002E+02 0.  0.
         25    2    1    2    0    0 -0.28175719936E+02  0.23243942810E+03  0.16332995400E+03  0.31168306894E+03  0.12509077768E+03 0.  0.
        -24    2    1    2    0    0 -0.32777887496E+02 -0.12915483176E+03  0.17430798951E+04  0.17500373835E+04  0.80919481273E+02 0.  0.
        -13    1    3    3    0    0  0.14781458973E+02 -0.23272181184E+02 -0.60640539553E+02  0.66613519527E+02  0.00000000000E+00 0.  1.
         14    1    3    3    0    0  0.46172148459E+02 -0.80012415151E+02 -0.90228306513E+03  0.90699977039E+03  0.00000000000E+00 0. -1.
         13    1    5    5    0    0  0.17098790850E+02 -0.84216181698E+02  0.11393562330E+04  0.11425923856E+04  0.00000000000E+00 0. -1.
        -14    1    5    5    0    0 -0.49876678346E+02 -0.44938650067E+02  0.60372366214E+03  0.60744499796E+03  0.00000000000E+00 0.  1.
          5    1    4    4  501    0  0.29706127158E+02  0.39646338382E+02  0.79120653038E+02  0.93444295038E+02  0.41800000000E+01 0. -1.
         -5    1    4    4    0  501 -0.57881847094E+02  0.19279308972E+03  0.84209300962E+02  0.21823877390E+03  0.41800000000E+01 0. -1.
</event>
<event>
11    1  0.8328696E-009  0.1521989E+03  0.7561462E-02  0.1094653E+00
         22   -1    0    0    0    0  0.00000000000E+00  0.00000000000E+00  0.49578372559E+03  0.49578372559E+03  0.00000000000E+00 0.  1.
         22   -1    0    0    0    0 -0.00000000000E+00 -0.00000000000E+00 -0.14720533835E+04  0.14720533835E+04  0.00000000000E+00 0. -1.
         24    2    1    2    0    0 -0.31259568395E+02 -0.42207581789E+02 -0.11943696870E+04  0.11984421355E+04  0.83582069096E+02 0.  0.
         25    2    1    2    0    0  0.11617047882E+03  0.53856771401E+02 -0.23837498097E+03  0.29810506416E+03  0.12509142956E+03 0.  0.
        -24    2    1    2    0    0 -0.84910910421E+02 -0.11649189612E+02  0.45647501010E+03  0.47128990942E+03  0.79994859474E+02 0.  0.
        -13    1    3    3    0    0 -0.29914764389E+02 -0.63689412489E+01 -0.13319133888E+03  0.13665792803E+03  0.00000000000E+00 0.  1.
         14    1    3    3    0    0 -0.13448040064E+01 -0.35838640540E+02 -0.10611783481E+04  0.10617842074E+04  0.00000000000E+00 0. -1.
         13    1    5    5    0    0 -0.31678854050E+02 -0.40106873959E+02  0.13833638703E+03  0.14747564921E+03  0.00000000000E+00 0. -1.
        -14    1    5    5    0    0 -0.53232056371E+02  0.28457684347E+02  0.31813862307E+03  0.32381426021E+03  0.00000000000E+00 0.  1.
          5    1    4    4  501    0  0.44612301364E+02 -0.48961455501E+01 -0.18654869659E+03  0.19191695671E+03  0.41800000000E+01 0. -1.
         -5    1    4    4    0  501  0.71558177452E+02  0.58752916951E+02 -0.51826284385E+02  0.10618810745E+03  0.41800000000E+01 0. -1.
</event>
<event>
11    1  0.8328696E-009  0.1640685E+03  0.7561462E-02  0.1083312E+00
         22   -1    0    0    0    0  0.00000000000E+00  0.00000000000E+00  0.85120108831E+02  0.85120108831E+02  0.00000000000E+00 0. -1.
         22   -1    0    0    0    0 -0.00000000000E+00 -0.00000000000E+00 -0.14229743021E+04  0.14229743021E+04  0.00000000000E+00 0. -1.
        -24    2    1    2    0    0  0.80579728872E+01 -0.33209818910E+01 -0.97783524240E+03  0.98081809857E+03  0.75936956423E+02 0.  0.
         25    2    1    2    0    0  0.78999524647E+02  0.65198736210E+02 -0.36342376349E+03  0.39776715553E+03  0.12510027199E+03 0.  0.
         24    2    1    2    0    0 -0.87057497534E+02 -0.61877754319E+02  0.34048126605E+01  0.12950915679E+03  0.73165323671E+02 0.  0.
        -13    1    5    5    0    0  0.83030300996E+01 -0.11663511983E+02 -0.14364256553E+02  0.20280771360E+02  0.00000000000E+00 0.  1.
         14    1    5    5    0    0 -0.95360527634E+02 -0.50214242336E+02  0.17769069214E+02  0.10922838543E+03  0.00000000000E+00 0. -1.
         11    1    3    3    0    0 -0.31421880429E+02 -0.15505171278E+02 -0.47102476362E+03  0.47232623561E+03  0.00000000000E+00 0. -1.
        -12    1    3    3    0    0  0.39479853316E+02  0.12184189387E+02 -0.50681047878E+03  0.50849186296E+03  0.00000000000E+00 0.  1.
          5    1    4    4  501    0 -0.12903205044E+01  0.32191615709E+02 -0.10263664832E+02  0.34070225488E+02  0.41800000000E+01 0.  1.
         -5    1    4    4    0  501  0.80289845151E+02  0.33007120500E+02 -0.35316009866E+03  0.36369693004E+03  0.41800000000E+01 0.  1.
</event>
<event>
11    1  0.8328696E-009  0.1351210E+03  0.7561462E-02  0.1113132E+00
         22   -1    0    0    0    0  0.00000000000E+00  0.00000000000E+00  0.22853767347E+03  0.22853767347E+03  0.00000000000E+00 0.  1.
         22   -1    0    0    0    0 -0.00000000000E+00 -0.00000000000E+00 -0.24638479706E+04  0.24638479706E+04  0.00000000000E+00 0. -1.
        -24    2    1    2    0    0  0.49850754915E+02  0.11756782788E+02 -0.23031847999E+04  0.23051608262E+04  0.80516408943E+02 0.  0.
         25    2    1    2    0    0 -0.46345226849E+02 -0.22098998744E+01 -0.12213695036E+03  0.18089538868E+03  0.12511172325E+03 0.  0.
         24    2    1    2    0    0 -0.35055280659E+01 -0.95468829141E+01  0.19001145315E+03  0.20632942924E+03  0.79774991944E+02 0.  0.
        -13    1    5    5    0    0 -0.16904808549E+02 -0.17007966159E+02  0.18947197484E+03  0.19098343571E+03  0.00000000000E+00 0.  1.
         14    1    5    5    0    0  0.13399280483E+02  0.74610832452E+01  0.53947831669E+00  0.15345993533E+02  0.00000000000E+00 0. -1.
         13    1    3    3    0    0  0.21159895384E+02 -0.72230871527E+01 -0.19842824251E+04  0.19844083896E+04  0.00000000000E+00 0. -1.
        -14    1    3    3    0    0  0.28690859530E+02  0.18979869941E+02 -0.31890237487E+03  0.32075243660E+03  0.00000000000E+00 0.  1.
          5    1    4    4  501    0 -0.62691606828E+02 -0.42829084222E+02 -0.35897810368E+02  0.84087414107E+02  0.41800000000E+01 0. -1.
         -5    1    4    4    0  501  0.16346379980E+02  0.40619184348E+02 -0.86239139990E+02  0.96807974577E+02  0.41800000000E+01 0. -1.
</event>
<event>
11    1  0.8328696E-009  0.1355767E+03  0.7561462E-02  0.1112601E+00
         22   -1    0    0    0    0  0.00000000000E+00  0.00000000000E+00  0.83960959854E+03  0.83960959854E+03  0.00000000000E+00 0.  1.
         22   -1    0    0    0    0 -0.00000000000E+00 -0.00000000000E+00 -0.85728028816E+02  0.85728028816E+02  0.00000000000E+00 0. -1.
        -24    2    1    2    0    0 -0.36906878078E+01  0.35851125041E+02 -0.38368903467E+02  0.95533641817E+02  0.79721889230E+02 0.  0.
         25    2    1    2    0    0  0.29088030573E+02 -0.70322560160E+02  0.39215138010E+03  0.41859454787E+03  0.12508922656E+03 0.  0.
         24    2    1    2    0    0 -0.25397342765E+02  0.34471435119E+02  0.40009909310E+03  0.41120943768E+03  0.84738494662E+02 0.  0.
        -11    1    5    5    0    0  0.29221592975E+02  0.26434714542E+02  0.18376555612E+03  0.18794274460E+03  0.00000000000E+00 0.  1.
         12    1    5    5    0    0 -0.54618935741E+02  0.80367205767E+01  0.21633353697E+03  0.22326669308E+03  0.00000000000E+00 0. -1.
         11    1    3    3    0    0  0.39225437575E+00  0.24370329646E+01 -0.57003833287E+02  0.57057251972E+02  0.00000000000E+00 0. -1.
        -12    1    3    3    0    0 -0.40829421836E+01  0.33414092076E+02  0.18634929819E+02  0.38476389845E+02  0.00000000000E+00 0.  1.
          5    1    4    4  501    0  0.30654498014E+02 -0.75518365009E+02  0.39996347754E+03  0.40820457796E+03  0.41800000000E+01 0.  1.
         -5    1    4    4    0  501 -0.15664674409E+01  0.51958048492E+01 -0.78120974399E+01  0.10389969908E+02  0.41800000000E+01 0.  1.
</event>
<event>
11    1  0.8328696E-009  0.1550360E+03  0.7561462E-02  0.1091841E+00
         22   -1    0    0    0    0  0.00000000000E+00  0.00000000000E+00  0.18732952964E+03  0.18732952964E+03  0.00000000000E+00 0.  1.
         22   -1    0    0    0    0 -0.00000000000E+00 -0.00000000000E+00 -0.63874830388E+03  0.63874830388E+03  0.00000000000E+00 0.  1.
         24    2    1    2    0    0 -0.24347985392E+02  0.27562884178E+02 -0.49227581203E+03  0.50045547923E+03  0.82265877470E+02 0.  0.
         25    2    1    2    0    0 -0.63992131551E+02 -0.59851180509E+02 -0.61935862453E+02  0.16480468875E+03  0.12508947865E+03 0.  0.
        -24    2    1    2    0    0  0.88340116943E+02  0.32288296331E+02  0.10279290024E+03  0.16081766554E+03  0.80308348680E+02 0.  0.
        -13    1    3    3    0    0 -0.30748181631E+02  0.54165351267E+02 -0.31759652417E+03  0.32364623916E+03  0.00000000000E+00 0.  1.
         14    1    3    3    0    0  0.64001962391E+01 -0.26602467088E+02 -0.17467928786E+03  0.17680924007E+03  0.00000000000E+00 0. -1.
         13    1    5    5    0    0  0.22119076571E+01  0.13203622647E+02 -0.10652858722E+02  0.17108816015E+02  0.00000000000E+00 0. -1.
        -14    1    5    5    0    0  0.86128209286E+02  0.19084673684E+02  0.11344575896E+03  0.14370884952E+03  0.00000000000E+00 0.  1.
          5    1    4    4  501    0 -0.20292679967E+02 -0.13057897557E+02  0.38496787661E+02  0.45626490212E+02  0.41800000000E+01 0. -1.
         -5    1    4    4    0  501 -0.43699451584E+02 -0.46793282953E+02 -0.10043265011E+03  0.11917819854E+03  0.41800000000E+01 0. -1.
</event>
<event>
11    1  0.8328696E-009  0.3633918E+03  0.7561462E-02  0.9764410E-01
         22   -1    0    0    0    0  0.00000000000E+00  0.00000000000E+00  0.23230518513E+04  0.23230518513E+04  0.00000000000E+00 0. -1.
         22   -1    0    0    0    0 -0.00000000000E+00 -0.00000000000E+00 -0.21781713202E+03  0.21781713202E+03  0.00000000000E+00 0.  1.
        -24    2    1    2    0    0  0.25271427692E+03  0.23442252858E+03 -0.34758779334E+02  0.35556446233E+03  0.79996790339E+02 0.  0.
         25    2    1    2    0    0 -0.19614671736E+03 -0.24250454199E+03  0.14476509411E+04  0.14861437964E+04  0.12509256052E+03 0.  0.
         24    2    1    2    0    0 -0.56567559562E+02  0.80820134070E+01  0.69234255746E+03  0.69916072453E+03  0.78881519517E+02 0.  0.
        -11    1    5    5    0    0 -0.91845210042E+01 -0.93582125500E+01  0.50391947278E+03  0.50409003820E+03  0.00000000000E+00 0.  1.
         12    1    5    5    0    0 -0.47383038557E+02  0.17440225957E+02  0.18842308468E+03  0.19507068633E+03  0.00000000000E+00 0. -1.
         11    1    3    3    0    0  0.11389111961E+03  0.75992358507E+02 -0.46483979051E+02  0.14459179087E+03  0.00000000000E+00 0. -1.
        -12    1    3    3    0    0  0.13882315731E+03  0.15843017008E+03  0.11725199716E+02  0.21097267146E+03  0.00000000000E+00 0.  1.
          5    1    4    4  501    0 -0.17667750510E+02 -0.53510576409E+02  0.11224552718E+03  0.12566647113E+03  0.41800000000E+01 0. -1.
         -5    1    4    4    0  501 -0.17847896685E+03 -0.18899396558E+03  0.13354054139E+04  0.13604773253E+04  0.41800000000E+01 0. -1.
</event>
<event>
11    1  0.8328696E-009  0.1319619E+03  0.7561462E-02  0.1116882E+00
         22   -1    0    0    0    0  0.00000000000E+00  0.00000000000E+00  0.64895956660E+03  0.64895956660E+03  0.00000000000E+00 0.  1.
         22   -1    0    0    0    0 -0.00000000000E+00 -0.00000000000E+00 -0.10970496571E+03  0.10970496571E+03  0.00000000000E+00 0.  1.
         24    2    1    2    0    0  0.36118948674E+00 -0.46194203138E+02  0.31183728637E+01  0.11125742948E+03  0.10116549068E+03 0.  0.
         25    2    1    2    0    0 -0.31295678125E+02  0.30886942206E+02  0.33470982643E+02  0.13675014434E+03  0.12508745993E+03 0.  0.
        -24    2    1    2    0    0  0.30934488639E+02  0.15307260932E+02  0.50266524538E+03  0.51065695848E+03  0.83107914865E+02 0.  0.
        -13    1    3    3    0    0  0.43946166746E+02 -0.86498820280E+01 -0.20265187265E+02  0.49160592406E+02  0.00000000000E+00 0.  1.
         14    1    3    3    0    0 -0.43584977259E+02 -0.37544321110E+02  0.23383560129E+02  0.62096837074E+02  0.00000000000E+00 0. -1.
         11    1    5    5    0    0 -0.17528609546E+02  0.10620745503E+02  0.35736048220E+02  0.41196086343E+02  0.00000000000E+00 0. -1.
        -12    1    5    5    0    0  0.48463098185E+02  0.46865154282E+01  0.46692919716E+03  0.46946087214E+03  0.00000000000E+00 0.  1.
          5    1    4    4  501    0  0.42333612283E+02 -0.17714517698E+00  0.37382739310E+02  0.56631331502E+02  0.41800000000E+01 0. -1.
         -5    1    4    4    0  501 -0.73629290409E+02  0.31064087383E+02 -0.39117566677E+01  0.80118812842E+02  0.41800000000E+01 0. -1.
</event>
<event>
11    1  0.8328696E-009  0.1418685E+03  0.7561462E-02  0.1105490E+00
         22   -1    0    0    0    0  0.00000000000E+00  0.00000000000E+00  0.10938718320E+03  0.10938718320E+03  0.00000000000E+00 0. -1.
         22   -1    0    0    0    0 -0.00000000000E+00 -0.00000000000E+00 -0.21468007449E+04  0.21468007449E+04  0.00000000000E+00 0. -1.
         24    2    1    2    0    0  0.69116690882E+01 -0.19562006271E+02 -0.13933969252E+04  0.13958552108E+04  0.80164425503E+02 0.  0.
         25    2    1    2    0    0 -0.10864329729E+02 -0.47936491047E+02 -0.71887858905E+03  0.73133431339E+03  0.12509001284E+03 0.  0.
        -24    2    1    2    0    0  0.39526606412E+01  0.67498497318E+02  0.74861952583E+02  0.12899840387E+03  0.80402771027E+02 0.  0.
        -13    1    3    3    0    0  0.26106136269E+02 -0.43702243247E+02 -0.75543545141E+03  0.75714868926E+03  0.00000000000E+00 0.  1.
         14    1    3    3    0    0 -0.19194467181E+02  0.24140236976E+02 -0.63796147380E+03  0.63870652154E+03  0.00000000000E+00 0. -1.
         13    1    5    5    0    0  0.21561161116E+01  0.81110812969E+02  0.80368799478E+02  0.11420488933E+03  0.00000000000E+00 0. -1.
        -14    1    5    5    0    0  0.17965445296E+01 -0.13612315651E+02 -0.55068468943E+01  0.14793514536E+02  0.00000000000E+00 0.  1.
          5    1    4    4  501    0 -0.23025101396E+02 -0.88365611346E+02 -0.52105430386E+03  0.52901200037E+03  0.41800000000E+01 0.  1.
         -5    1    4    4    0  501  0.12160771667E+02  0.40429120299E+02 -0.19782428519E+03  0.20232231303E+03  0.41800000000E+01 0.  1.
</event>
<event>
11    1  0.8328696E-009  0.1783636E+03  0.7561462E-02  0.1070974E+00
         22   -1    0    0    0    0  0.00000000000E+00  0.00000000000E+00  0.10273651102E+03  0.10273651102E+03  0.00000000000E+00 0. -1.
         22   -1    0    0    0    0 -0.00000000000E+00 -0.00000000000E+00 -0.23408670185E+04  0.23408670185E+04  0.00000000000E+00 0. -1.
        -24    2    1    2    0    0 -0.86289254775E+02 -0.76499157246E+02 -0.15013423780E+04  0.15079089866E+04  0.80390418529E+02 0.  0.
         25    2    1    2    0    0  0.17066241473E+03  0.85654110843E+02 -0.77878377907E+03  0.81155202302E+03  0.12510085939E+03 0.  0.
         24    2    1    2    0    0 -0.84373159957E+02 -0.91549535969E+01  0.41995649600E+02  0.12414251986E+03  0.80281301413E+02 0.  0.
        -13    1    5    5    0    0 -0.75265948492E+02  0.19479566060E+02  0.70649924833E+01  0.78066193804E+02  0.00000000000E+00 0.  1.
         14    1    5    5    0    0 -0.91072114649E+01 -0.28634519657E+02  0.34930657116E+02  0.46076326060E+02  0.00000000000E+00 0. -1.
         11    1    3    3    0    0 -0.82233772039E+02 -0.92339457926E+02 -0.13652345832E+04  0.13708225400E+04  0.00000000000E+00 0. -1.
        -12    1    3    3    0    0 -0.40554827355E+01  0.15840300680E+02 -0.13610779474E+03  0.13708644665E+03  0.00000000000E+00 0.  1.
          5    1    4    4  501    0  0.94897054457E+01  0.64399675041E+02 -0.24610870776E+03  0.25460624715E+03  0.41800000000E+01 0. -1.
         -5    1    4    4    0  501  0.16117270929E+03  0.21254435802E+02 -0.53267507131E+03  0.55694577587E+03  0.41800000000E+01 0. -1.
</event>
<event>
11    1  0.8328696E-009  0.1308406E+03  0.7561462E-02  0.1118240E+00
         22   -1    0    0    0    0  0.00000000000E+00  0.00000000000E+00  0.96401591976E+03  0.96401591976E+03  0.00000000000E+00 0.  1.
         22   -1    0    0    0    0 -0.00000000000E+00 -0.00000000000E+00 -0.26134625027E+04  0.26134625027E+04  0.00000000000E+00 0.  1.
        -24    2    1    2    0    0 -0.29235055918E+01  0.15931806346E+02 -0.25050741337E+04  0.25065792901E+04  0.85328502346E+02 0.  0.
         25    2    1    2    0    0 -0.35066492584E+02 -0.98781844235E+01 -0.65157310315E+02  0.14567274874E+03  0.12509131548E+03 0.  0.
         24    2    1    2    0    0  0.37989998176E+02 -0.60536219225E+01  0.92078486102E+03  0.92522638359E+03  0.81970813702E+02 0.  0.
        -13    1    5    5    0    0  0.56504337068E+02  0.11947386529E+02  0.77682244456E+03  0.77896636033E+03  0.00000000000E+00 0.  1.
         14    1    5    5    0    0 -0.18514338892E+02 -0.18001008452E+02  0.14396241646E+03  0.14626002325E+03  0.00000000000E+00 0. -1.
         13    1    3    3    0    0 -0.43586172790E+02  0.22593118832E+01 -0.11578165285E+04  0.11586388448E+04  0.00000000000E+00 0. -1.
        -14    1    3    3    0    0  0.40662667198E+02  0.13672494463E+02 -0.13472576052E+04  0.13479404454E+04  0.00000000000E+00 0.  1.
          5    1    4    4  501    0 -0.28761590148E+02 -0.58854168176E+02 -0.23667061997E+01  0.65681929614E+02  0.41800000000E+01 0.  1.
         -5    1    4    4    0  501 -0.63049024360E+01  0.48975983753E+02 -0.62790604115E+02  0.79990819126E+02  0.41800000000E+01 0.  1.
</event>
<event>
11    1  0.8328696E-009  0.3145581E+03  0.7561462E-02  0.9942115E-01
         22   -1    0    0    0    0  0.00000000000E+00  0.00000000000E+00  0.33015080470E+03  0.33015080470E+03  0.00000000000E+00 0.  1.
         22   -1    0    0    0    0 -0.00000000000E+00 -0.00000000000E+00 -0.93416094505E+03  0.93416094505E+03  0.00000000000E+00 0.  1.
        -24    2    1    2    0    0  0.19013906881E+03  0.20552299478E+03 -0.59018701204E+03  0.65807803208E+03  0.79708344968E+02 0.  0.
         25    2    1    2    0    0 -0.21273756645E+03 -0.22964078804E+03 -0.19963966007E+03  0.39178568124E+03  0.12509141633E+03 0.  0.
         24    2    1    2    0    0  0.22598497639E+02  0.24117793255E+02  0.18581653176E+03  0.21444803643E+03  0.10182247691E+03 0.  0.
        -13    1    5    5    0    0  0.16557771102E+02  0.32540106184E+02  0.19632328885E+03  0.19968938890E+03  0.00000000000E+00 0.  1.
         14    1    5    5    0    0  0.60407265374E+01 -0.84223129291E+01 -0.10506757090E+02  0.14758647523E+02  0.00000000000E+00 0. -1.
         13    1    3    3    0    0 -0.11810401515E+01 -0.55544347740E+01 -0.68742450096E+01  0.89163807653E+01  0.00000000000E+00 0. -1.
        -14    1    3    3    0    0  0.19132010897E+03  0.21107742955E+03 -0.58331276703E+03  0.64916165131E+03  0.00000000000E+00 0.  1.
          5    1    4    4  501    0 -0.21882891877E+03 -0.17848810922E+03 -0.14852102275E+03  0.31909256874E+03  0.41800000000E+01 0.  1.
         -5    1    4    4    0  501  0.60913523212E+01 -0.51152678817E+02 -0.51118637324E+02  0.72693112502E+02  0.41800000000E+01 0.  1.
</event>
<event>
11    1  0.8328696E-009  0.1669322E+03  0.7561462E-02  0.1080733E+00
         22   -1    0    0    0    0  0.00000000000E+00  0.00000000000E+00  0.90151989606E+02  0.90151989606E+02  0.00000000000E+00 0. -1.
         22   -1    0    0    0    0 -0.00000000000E+00 -0.00000000000E+00 -0.10231801721E+04  0.10231801721E+04  0.00000000000E+00 0.  1.
         24    2    1    2    0    0 -0.17893727015E+02 -0.86312394628E+02 -0.59140696225E+03  0.60320618959E+03  0.79532994607E+02 0.  0.
         25    2    1    2    0    0 -0.77131431941E+00  0.17987234161E+03 -0.31289054371E+03  0.38197420213E+03  0.12509654093E+03 0.  0.
        -24    2    1    2    0    0  0.18665041334E+02 -0.93559946977E+02 -0.28730676559E+02  0.12815177001E+03  0.80595142122E+02 0.  0.
        -13    1    3    3    0    0 -0.51637557049E+01  0.25995114881E+01 -0.25349266538E+03  0.25355857949E+03  0.00000000000E+00 0.  1.
         14    1    3    3    0    0 -0.12729971310E+02 -0.88911906117E+02 -0.33791429687E+03  0.34964761010E+03  0.00000000000E+00 0. -1.
         11    1    5    5    0    0  0.10769550942E+02 -0.10748830545E+03 -0.29930902166E+02  0.11209628870E+03  0.00000000000E+00 0. -1.
        -12    1    5    5    0    0  0.78954903925E+01  0.13928358475E+02  0.12002256072E+01  0.16055481303E+02  0.00000000000E+00 0.  1.
          5    1    4    4  501    0  0.19374305503E+02  0.10059645577E+02 -0.12870425437E+03  0.13060940883E+03  0.41800000000E+01 0. -1.
         -5    1    4    4    0  501 -0.20145619823E+02  0.16981269603E+03 -0.18418628934E+03  0.25136479330E+03  0.41800000000E+01 0. -1.
</event>
<event>
11    1  0.8328696E-009  0.1316330E+03  0.7561462E-02  0.1117279E+00
         22   -1    0    0    0    0  0.00000000000E+00  0.00000000000E+00  0.88815648488E+02  0.88815648488E+02  0.00000000000E+00 0. -1.
         22   -1    0    0    0    0 -0.00000000000E+00 -0.00000000000E+00 -0.14146102685E+04  0.14146102685E+04  0.00000000000E+00 0.  1.
         24    2    1    2    0    0 -0.29732063790E+01 -0.39725899200E+02 -0.91067449781E+03  0.91499246910E+03  0.79348538246E+02 0.  0.
         25    2    1    2    0    0  0.58872242432E+00  0.46108951260E+02 -0.47151208740E+03  0.48999517474E+03  0.12508093669E+03 0.  0.
        -24    2    1    2    0    0  0.23844839547E+01 -0.63830520597E+01  0.56391965149E+02  0.98438273200E+02  0.80396584379E+02 0.  0.
        -11    1    3    3    0    0  0.12296353592E+02 -0.52409080770E+02 -0.83578741617E+03  0.83751926371E+03  0.00000000000E+00 0.  1.
         12    1    3    3    0    0 -0.15269559971E+02  0.12683181569E+02 -0.74887081638E+02  0.77473205385E+02  0.00000000000E+00 0. -1.
         11    1    5    5    0    0 -0.15139923674E+02 -0.23181816463E+02  0.66582947336E+02  0.72110351402E+02  0.00000000000E+00 0. -1.
        -12    1    5    5    0    0  0.17524407629E+02  0.16798764404E+02 -0.10190982187E+02  0.26327921797E+02  0.00000000000E+00 0.  1.
          5    1    4    4  501    0  0.27626355953E+02 -0.30377668418E+02 -0.26299329707E+03  0.26621225551E+03  0.41800000000E+01 0.  1.
         -5    1    4    4    0  501 -0.27037633528E+02  0.76486619678E+02 -0.20851879033E+03  0.22378291923E+03  0.41800000000E+01 0.  1.
</event>
<event>
11    1  0.8328696E-009  0.1415067E+03  0.7561462E-02  0.1105887E+00
         22   -1    0    0    0    0  0.00000000000E+00  0.00000000000E+00  0.12808301325E+03  0.12808301325E+03  0.00000000000E+00 0.  1.
         22   -1    0    0    0    0 -0.00000000000E+00 -0.00000000000E+00 -0.12167074536E+04  0.12167074536E+04  0.00000000000E+00 0. -1.
        -24    2    1    2    0    0  0.34305681985E+01 -0.49208373692E+02 -0.86754745439E+03  0.87275145921E+03  0.81383604595E+02 0.  0.
         25    2    1    2    0    0  0.34670034212E+02  0.99900698417E+02 -0.30060685616E+03  0.34233676365E+03  0.12509123453E+03 0.  0.
         24    2    1    2    0    0 -0.38100602411E+02 -0.50692324725E+02  0.79529870173E+02  0.12970224403E+03  0.80475487984E+02 0.  0.
        -11    1    5    5    0    0 -0.43330153501E+02 -0.88389550909E+01  0.75282285218E+02  0.87310089893E+02  0.00000000000E+00 0.  1.
         12    1    5    5    0    0  0.52295510902E+01 -0.41853369634E+02  0.42475849552E+01  0.42392154136E+02  0.00000000000E+00 0. -1.
         11    1    3    3    0    0  0.14410668528E+02 -0.12989396444E+02 -0.72517522372E+03  0.72543469512E+03  0.00000000000E+00 0. -1.
        -12    1    3    3    0    0 -0.10980100330E+02 -0.36218977248E+02 -0.14237223067E+03  0.14731676409E+03  0.00000000000E+00 0.  1.
          5    1    4    4  501    0  0.34897429237E+02 -0.19604047707E+02 -0.46478305723E+02  0.61480521767E+02  0.41800000000E+01 0.  1.
         -5    1    4    4    0  501 -0.22739502524E+00  0.11950474612E+03 -0.25412855044E+03  0.28085624188E+03  0.41800000000E+01 0.  1.
</event>
<event>
11    1  0.8328696E-009  0.1529961E+03  0.7561462E-02  0.1093856E+00
         22   -1    0    0    0    0  0.00000000000E+00  0.00000000000E+00  0.11444453577E+04  0.11444453577E+04  0.00000000000E+00 0.  1.
         22   -1    0    0    0    0 -0.00000000000E+00 -0.00000000000E+00 -0.39616818815E+03  0.39616818815E+03  0.00000000000E+00 0.  1.
        -24    2    1    2    0    0 -0.30091044161E+02  0.82752716337E+02 -0.36222215747E+03  0.38120888314E+03  0.79761132307E+02 0.  0.
         25    2    1    2    0    0  0.54142527475E+02 -0.75245996949E+02  0.24538006758E+03  0.29060510487E+03  0.12508627452E+03 0.  0.
         24    2    1    2    0    0 -0.24051483314E+02 -0.75067193885E+01  0.86511925945E+03  0.86879955785E+03  0.75805764725E+02 0.  0.
        -11    1    5    5    0    0 -0.12027228745E+02 -0.22846557686E+02  0.80863397116E+03  0.80904605477E+03  0.00000000000E+00 0.  1.
         12    1    5    5    0    0 -0.12024254569E+02  0.15339838298E+02  0.56485288291E+02  0.59753503079E+02  0.00000000000E+00 0. -1.
         11    1    3    3    0    0  0.25877443972E+02  0.11987107703E+02 -0.92514108371E+02  0.96810087828E+02  0.00000000000E+00 0. -1.
        -12    1    3    3    0    0 -0.55968488132E+02  0.70765608634E+02 -0.26970804909E+03  0.28439879531E+03  0.00000000000E+00 0.  1.
          5    1    4    4  501    0  0.23015088890E+01 -0.27918929975E+02 -0.65280776220E+01  0.29066334333E+02  0.41800000000E+01 0.  1.
         -5    1    4    4    0  501  0.51841018586E+02 -0.47327066974E+02  0.25190814520E+03  0.26153877054E+03  0.41800000000E+01 0.  1.
</event>
<event>
11    1  0.8328696E-009  0.1554439E+03  0.7561462E-02  0.1091442E+00
         22   -1    0    0    0    0  0.00000000000E+00  0.00000000000E+00  0.45487122728E+03  0.45487122728E+03  0.00000000000E+00 0.  1.
         22   -1    0    0    0    0 -0.00000000000E+00 -0.00000000000E+00 -0.68491186350E+03  0.68491186350E+03  0.00000000000E+00 0.  1.
        -24    2    1    2    0    0 -0.12484533629E+02  0.33053736718E+02 -0.52082662036E+03  0.52764688990E+03  0.76827461580E+02 0.  0.
         25    2    1    2    0    0  0.80637766768E+02 -0.92601296208E+02 -0.10083903296E+03  0.20222025636E+03  0.12508825694E+03 0.  0.
         24    2    1    2    0    0 -0.68153233139E+02  0.59547559490E+02  0.39162501709E+03  0.40991594452E+03  0.80437258345E+02 0.  0.
        -13    1    5    5    0    0 -0.59474135392E+02  0.67154844738E+02  0.21565719614E+03  0.23357005844E+03  0.00000000000E+00 0.  1.
         14    1    5    5    0    0 -0.86790977471E+01 -0.76072852476E+01  0.17596782096E+03  0.17634588608E+03  0.00000000000E+00 0. -1.
         13    1    3    3    0    0 -0.28555620963E+02  0.30707323175E+02 -0.13241804519E+03  0.13889889084E+03  0.00000000000E+00 0. -1.
        -14    1    3    3    0    0  0.16071087334E+02  0.23464135421E+01 -0.38840857518E+03  0.38874799906E+03  0.00000000000E+00 0.  1.
          5    1    4    4  501    0  0.10889671914E+03 -0.41574997520E+02 -0.71302948258E+02  0.13670610333E+03  0.41800000000E+01 0.  1.
         -5    1    4    4    0  501 -0.28258952373E+02 -0.51026298688E+02 -0.29536084701E+02  0.65514153025E+02  0.41800000000E+01 0.  1.
</event>
<event>
11    1  0.8328696E-009  0.2625207E+03  0.7561462E-02  0.1017433E+00
         22   -1    0    0    0    0  0.00000000000E+00  0.00000000000E+00  0.76935204040E+03  0.76935204040E+03  0.00000000000E+00 0.  1.
         22   -1    0    0    0    0 -0.00000000000E+00 -0.00000000000E+00 -0.71260399701E+03  0.71260399701E+03  0.00000000000E+00 0. -1.
         24    2    1    2    0    0  0.23009891584E+03 -0.92779431490E+00 -0.64636079266E+03  0.69090698771E+03  0.81386850905E+02 0.  0.
         25    2    1    2    0    0 -0.24894785822E+03  0.12554703747E+02  0.54304782447E+03  0.61047549164E+03  0.12508688796E+03 0.  0.
        -24    2    1    2    0    0  0.18848942373E+02 -0.11626909432E+02  0.16006101159E+03  0.18057355806E+03  0.80602821215E+02 0.  0.
        -13    1    3    3    0    0  0.73917663007E+02  0.33009173556E+02 -0.16664654239E+03  0.18526871440E+03  0.00000000000E+00 0.  1.
         14    1    3    3    0    0  0.15618125284E+03 -0.33936967871E+02 -0.47971425027E+03  0.50563827331E+03  0.00000000000E+00 0. -1.
         11    1    5    5    0    0 -0.22430688565E+02 -0.95388266630E+01  0.12618474676E+02  0.27447238600E+02  0.00000000000E+00 0. -1.
        -12    1    5    5    0    0  0.41279630938E+02 -0.20880827686E+01  0.14744253691E+03  0.15312631946E+03  0.00000000000E+00 0.  1.
          5    1    4    4  501    0 -0.17942837698E+01  0.30298585385E+02  0.70981793952E+02  0.77311779201E+02  0.41800000000E+01 0. -1.
         -5    1    4    4    0  501 -0.24715357445E+03 -0.17743881638E+02  0.47206603051E+03  0.53316371244E+03  0.41800000000E+01 0. -1.
</event>
<event>
11    1  0.8328696E-009  0.1288712E+03  0.7561462E-02  0.1120664E+00
         22   -1    0    0    0    0  0.00000000000E+00  0.00000000000E+00  0.31122868509E+03  0.31122868509E+03  0.00000000000E+00 0.  1.
         22   -1    0    0    0    0 -0.00000000000E+00 -0.00000000000E+00 -0.15831936531E+03  0.15831936531E+03  0.00000000000E+00 0.  1.
        -24    2    1    2    0    0  0.17214891412E+02 -0.20049415804E+01 -0.93651622679E+02  0.11863327673E+03  0.70730867655E+02 0.  0.
         25    2    1    2    0    0  0.13485719156E+02  0.15626763244E+02  0.51426951683E+02  0.13683067332E+03  0.12510731974E+03 0.  0.
         24    2    1    2    0    0 -0.30700610568E+02 -0.13621821664E+02  0.19513399078E+03  0.21408410035E+03  0.81404214564E+02 0.  0.
        -11    1    5    5    0    0 -0.53853822853E+02 -0.71214459078E+01  0.17325754892E+03  0.18157402756E+03  0.00000000000E+00 0.  1.
         12    1    5    5    0    0  0.23153212284E+02 -0.65003757561E+01  0.21876441865E+02  0.32510072789E+02  0.00000000000E+00 0. -1.
         13    1    3    3    0    0  0.29035409583E+02  0.13783527998E+02 -0.11482867564E+02  0.34130586007E+02  0.00000000000E+00 0. -1.
        -14    1    3    3    0    0 -0.11820518171E+02 -0.15788469579E+02 -0.82168755115E+02  0.84502690718E+02  0.00000000000E+00 0.  1.
          5    1    4    4  501    0 -0.35548328638E+02  0.30458033197E+02  0.68146354668E+02  0.82781480476E+02  0.41800000000E+01 0. -1.
         -5    1    4    4    0  501  0.49034047794E+02 -0.14831269953E+02 -0.16719402985E+02  0.54049192849E+02  0.41800000000E+01 0. -1.
</event>
<event>
11    1  0.8328696E-009  0.1581673E+03  0.7561462E-02  0.1088814E+00
         22   -1    0    0    0    0  0.00000000000E+00  0.00000000000E+00  0.34327232235E+03  0.34327232235E+03  0.00000000000E+00 0. -1.
         22   -1    0    0    0    0 -0.00000000000E+00 -0.00000000000E+00 -0.37391437892E+03  0.37391437892E+03  0.00000000000E+00 0.  1.
         24    2    1    2    0    0 -0.58027694326E+02  0.47556246400E+02 -0.19045359490E+03  0.21956467710E+03  0.79418296004E+02 0.  0.
         25    2    1    2    0    0  0.14423656075E+03 -0.76824257318E+02 -0.86869301468E+02  0.22338307296E+03  0.12509024654E+03 0.  0.
        -24    2    1    2    0    0 -0.86208866420E+02  0.29268010918E+02  0.24668083980E+03  0.27423895121E+03  0.77890824365E+02 0.  0.
        -11    1    3    3    0    0 -0.65828571370E+02  0.59470773088E+02 -0.18327397234E+03  0.20361611576E+03  0.00000000000E+00 0.  1.
         12    1    3    3    0    0  0.78008770446E+01 -0.11914526687E+02 -0.71796225670E+01  0.15948561347E+02  0.00000000000E+00 0. -1.
         13    1    5    5    0    0 -0.69329080020E+02  0.18805318228E+01  0.22499329763E+03  0.23544010219E+03  0.00000000000E+00 0. -1.
        -14    1    5    5    0    0 -0.16879786400E+02  0.27387479095E+02  0.21687542169E+02  0.38798849022E+02  0.00000000000E+00 0.  1.
          5    1    4    4  501    0  0.10441731627E+03 -0.68089666556E+02 -0.11817054629E+03  0.17181655636E+03  0.41800000000E+01 0.  1.
         -5    1    4    4    0  501  0.39819244474E+02 -0.87345907624E+01  0.31301244826E+02  0.51566516597E+02  0.41800000000E+01 0.  1.
</event>
<event>
11    1  0.8328696E-009  0.2028576E+03  0.7561462E-02  0.1052521E+00
         22   -1    0    0    0    0  0.00000000000E+00  0.00000000000E+00  0.14520682119E+03  0.14520682119E+03  0.00000000000E+00 0. -1.
         22   -1    0    0    0    0 -0.00000000000E+00 -0.00000000000E+00 -0.32583286344E+04  0.32583286344E+04  0.00000000000E+00 0.  1.
         24    2    1    2    0    0 -0.86331509777E+02 -0.74932331405E+02 -0.26645250656E+04  0.26682617967E+04  0.82820328409E+02 0.  0.
         25    2    1    2    0    0  0.23554319726E+03  0.80351881593E+02 -0.48716818895E+03  0.56117190947E+03  0.12507615678E+03 0.  0.
        -24    2    1    2    0    0 -0.14921168749E+03 -0.54195501876E+01  0.38571441322E+02  0.17410174941E+03  0.80809429238E+02 0.  0.
        -11    1    3    3    0    0 -0.26077003237E+02 -0.55217316074E+02 -0.19422402745E+04  0.19432000016E+04  0.00000000000E+00 0.  1.
         12    1    3    3    0    0 -0.60254506540E+02 -0.19715015331E+02 -0.72228479105E+03  0.72506179514E+03  0.00000000000E+00 0. -1.
         11    1    5    5    0    0 -0.81553683391E+02 -0.43068074696E+02  0.24233838513E+02  0.95357963809E+02  0.00000000000E+00 0. -1.
        -12    1    5    5    0    0 -0.67658004098E+02  0.37648524509E+02  0.14337602808E+02  0.78743785599E+02  0.00000000000E+00 0.  1.
          5    1    4    4  501    0  0.13613005566E+03  0.79143059309E+02 -0.39613940318E+03  0.42630847404E+03  0.41800000000E+01 0. -1.
         -5    1    4    4    0  501  0.99413141604E+02  0.12088222839E+01 -0.91028785771E+02  0.13486343542E+03  0.41800000000E+01 0. -1.
</event>
<event>
11    1  0.8328696E-009  0.1758690E+03  0.7561462E-02  0.1073034E+00
         22   -1    0    0    0    0  0.00000000000E+00  0.00000000000E+00  0.84820219618E+02  0.84820219618E+02  0.00000000000E+00 0. -1.
         22   -1    0    0    0    0 -0.00000000000E+00 -0.00000000000E+00 -0.19974257224E+04  0.19974257224E+04  0.00000000000E+00 0.  1.
         24    2    1    2    0    0 -0.10087858838E+03 -0.16005360056E+02 -0.14952666179E+04  0.15010378236E+04  0.82822871424E+02 0.  0.
         25    2    1    2    0    0  0.87109877035E+02  0.13659101871E+03 -0.38177645645E+03  0.43318164132E+03  0.12509130508E+03 0.  0.
        -24    2    1    2    0    0  0.13768711343E+02 -0.12058565866E+03 -0.35562428340E+02  0.14802647704E+03  0.76919913605E+02 0.  0.
        -11    1    3    3    0    0 -0.73872424336E+02 -0.66666888988E+01 -0.13895234239E+04  0.13915016800E+04  0.00000000000E+00 0.  1.
         12    1    3    3    0    0 -0.27006164042E+02 -0.93386711572E+01 -0.10574319405E+03  0.10953614364E+03  0.00000000000E+00 0. -1.
         13    1    5    5    0    0 -0.28700615995E+02 -0.71064895905E+02 -0.30854182994E+02  0.82619158775E+02  0.00000000000E+00 0. -1.
        -14    1    5    5    0    0  0.42469327338E+02 -0.49520762751E+02 -0.47082453458E+01  0.65407318262E+02  0.00000000000E+00 0.  1.
          5    1    4    4  501    0  0.14572371366E+02  0.14479773042E+02  0.46372118413E+01  0.21470770089E+02  0.41800000000E+01 0. -1.
         -5    1    4    4    0  501  0.72537505670E+02  0.12211124567E+03 -0.38641366829E+03  0.41171087123E+03  0.41800000000E+01 0. -1.
</event>
<event>
11    1  0.8328696E-009  0.1847925E+03  0.7561462E-02  0.1065831E+00
         22   -1    0    0    0    0  0.00000000000E+00  0.00000000000E+00  0.57822716734E+03  0.57822716734E+03  0.00000000000E+00 0. -1.
         22   -1    0    0    0    0 -0.00000000000E+00 -0.00000000000E+00 -0.16682715972E+03  0.16682715972E+03  0.00000000000E+00 0.  1.
        -24    2    1    2    0    0 -0.55672481081E+02 -0.34838387181E+02  0.35066706992E+02  0.10896193440E+03  0.79560611098E+02 0.  0.
         25    2    1    2    0    0 -0.73878729570E+01 -0.92550733093E+02 -0.63008657864E+02  0.16804238819E+03  0.12509170396E+03 0.  0.
         24    2    1    2    0    0  0.63060354038E+02  0.12738912027E+03  0.43934195849E+03  0.46805000447E+03  0.76451644706E+02 0.  0.
        -13    1    5    5    0    0 -0.88362734953E+01  0.28326041899E+02  0.36593692828E+02  0.47112023240E+02  0.00000000000E+00 0.  1.
         14    1    5    5    0    0  0.71896627533E+02  0.99063078375E+02  0.40274826566E+03  0.42093798123E+03  0.00000000000E+00 0. -1.
         13    1    3    3    0    0 -0.35070412689E+01  0.21579938410E+02 -0.48185030896E+01  0.22387743349E+02  0.00000000000E+00 0. -1.
        -14    1    3    3    0    0 -0.52165439812E+02 -0.56418325591E+02  0.39885210081E+02  0.86574191053E+02  0.00000000000E+00 0.  1.
          5    1    4    4  501    0 -0.39698359598E+02  0.80964432778E+01  0.68028599217E+01  0.41294835654E+02  0.41800000000E+01 0.  1.
         -5    1    4    4    0  501  0.32310486641E+02 -0.10064717637E+03 -0.69811517786E+02  0.12674755254E+03  0.41800000000E+01 0.  1.
</event>
<event>
11    1  0.8328696E-009  0.1697752E+03  0.7561462E-02  0.1078227E+00
         22   -1    0    0    0    0  0.00000000000E+00  0.00000000000E+00  0.62654999764E+03  0.62654999764E+03  0.00000000000E+00 0. -1.
         22   -1    0    0    0    0 -0.00000000000E+00 -0.00000000000E+00 -0.20117500056E+04  0.20117500056E+04  0.00000000000E+00 0. -1.
        -24    2    1    2    0    0 -0.51832459328E+02  0.97925186037E+02 -0.17311178396E+04  0.17364633469E+04  0.79120380931E+02 0.  0.
         25    2    1    2    0    0  0.94819215573E+02 -0.15470895704E+03 -0.22854037210E+03  0.31749742560E+03  0.12509343928E+03 0.  0.
         24    2    1    2    0    0 -0.42986756245E+02  0.56783771001E+02  0.57445820379E+03  0.58433923068E+03  0.79861447174E+02 0.  0.
        -11    1    5    5    0    0 -0.36847493926E+02  0.59074568186E+02  0.24200075829E+03  0.25181721432E+03  0.00000000000E+00 0.  1.
         12    1    5    5    0    0 -0.61392623192E+01 -0.22907971846E+01  0.33245744550E+03  0.33252201636E+03  0.00000000000E+00 0. -1.
         13    1    3    3    0    0 -0.68261392898E+02  0.93919359627E+02 -0.16085018263E+04  0.16126867610E+04  0.00000000000E+00 0. -1.
        -14    1    3    3    0    0  0.16428933570E+02  0.40058264103E+01 -0.12261601330E+03  0.12377658592E+03  0.00000000000E+00 0.  1.
          5    1    4    4  501    0  0.16520290395E+00  0.17715080524E+02 -0.44565936612E+02  0.48139863690E+02  0.41800000000E+01 0. -1.
         -5    1    4    4    0  501  0.94654012669E+02 -0.17242403756E+03 -0.18397443549E+03  0.26935756191E+03  0.41800000000E+01 0. -1.
</event>
<event>
11    1  0.8328696E-009  0.1610597E+03  0.7561462E-02  0.1086085E+00
         22   -1    0    0    0    0  0.00000000000E+00  0.00000000000E+00  0.19343328611E+03  0.19343328611E+03  0.00000000000E+00 0. -1.
         22   -1    0    0    0    0 -0.00000000000E+00 -0.00000000000E+00 -0.12208765337E+04  0.12208765337E+04  0.00000000000E+00 0.  1.
        -24    2    1    2    0    0  0.70983540049E+02  0.68504384400E+02 -0.10474404522E+04  0.10550839185E+04  0.79618217885E+02 0.  0.
         25    2    1    2    0    0 -0.11900259621E+03 -0.88367811335E+02 -0.89351120291E+02  0.21354329726E+03  0.12508648658E+03 0.  0.
         24    2    1    2    0    0  0.48019056158E+02  0.19863426935E+02  0.10934832492E+03  0.14568260399E+03  0.81030731570E+02 0.  0.
        -11    1    5    5    0    0 -0.38936571409E+01 -0.25801466472E+02  0.20984758717E+02  0.33484867275E+02  0.00000000000E+00 0.  1.
         12    1    5    5    0    0  0.51912713298E+02  0.45664893407E+02  0.88363566199E+02  0.11219773671E+03  0.00000000000E+00 0. -1.
         13    1    3    3    0    0  0.15615886969E+02  0.48295497504E+02 -0.23061345951E+03  0.23613318003E+03  0.00000000000E+00 0. -1.
        -14    1    3    3    0    0  0.55367653080E+02  0.20208886895E+02 -0.81682699268E+03  0.81895073850E+03  0.00000000000E+00 0.  1.
          5    1    4    4  501    0 -0.15810777938E+02  0.20232089623E+02 -0.53437683488E+02  0.59433799863E+02  0.41800000000E+01 0.  1.
         -5    1    4    4    0  501 -0.10319181827E+03 -0.10859990096E+03 -0.35913436803E+02  0.15410949740E+03  0.41800000000E+01 0.  1.
</event>
<event>
11    1  0.8883972E-009  0.1446688E+03  0.7561462E-02  0.1102454E+00
         22   -1    0    0    0    0  0.00000000000E+00  0.00000000000E+00  0.48987312798E+03  0.48987312798E+03  0.00000000000E+00 0.  1.
         22   -1    0    0    0    0 -0.00000000000E+00 -0.00000000000E+00 -0.83566147759E+03  0.83566147759E+03  0.00000000000E+00 0.  1.
         24    2    1    2    0    0 -0.31012364139E+01  0.24889806972E+02 -0.71993658667E+03  0.72501140018E+03  0.81876256717E+02 0.  0.
         25    2    1    2    0    0 -0.57768033058E+02 -0.63409804278E+02 -0.52524907794E+02  0.16051195600E+03  0.12508906091E+03 0.  0.
        -24    2    1    2    0    0  0.60869269472E+02  0.38519997306E+02  0.42667314485E+03  0.44001124938E+03  0.79818975724E+02 0.  0.
        -13    1    3    3    0    0  0.21614221138E+02 -0.15128477847E+02 -0.46661139780E+03  0.46735665391E+03  0.00000000000E+00 0.  1.
         14    1    3    3    0    0 -0.24715457552E+02  0.40018284819E+02 -0.25332518886E+03  0.25765474627E+03  0.00000000000E+00 0. -1.
         11    1    5    5    0    0  0.11797104245E+02 -0.16839910306E+02  0.29202616837E+02  0.35714801943E+02  0.00000000000E+00 0. -1.
        -12    1    5    5    0    0  0.49072165226E+02  0.55359907612E+02  0.39747052801E+03  0.40429644744E+03  0.00000000000E+00 0.  1.
          5    1    4    4  501    0  0.36438553235E+02 -0.19753346575E+02 -0.36465096783E+02  0.55363693393E+02  0.41800000000E+01 0. -1.
         -5    1    4    4    0  501 -0.94206586293E+02 -0.43656457704E+02 -0.16059811011E+02  0.10514826261E+03  0.41800000000E+01 0. -1.
</event>
<event>
11    1  0.8328696E-009  0.1314869E+03  0.7561462E-02  0.1117455E+00
         22   -1    0    0    0    0  0.00000000000E+00  0.00000000000E+00  0.15710762204E+03  0.15710762204E+03  0.00000000000E+00 0.  1.
         22   -1    0    0    0    0 -0.00000000000E+00 -0.00000000000E+00 -0.88266631740E+03  0.88266631740E+03  0.00000000000E+00 0.  1.
        -24    2    1    2    0    0  0.17427546524E+02 -0.32137375981E+02 -0.78827078622E+03  0.79324160984E+03  0.80776784179E+02 0.  0.
         25    2    1    2    0    0 -0.29113079795E+02  0.60290988215E+02  0.90655636903E+01  0.14216516664E+03  0.12508467326E+03 0.  0.
         24    2    1    2    0    0  0.11685533271E+02 -0.28153612234E+02  0.53646527171E+02  0.10436716296E+03  0.84174682989E+02 0.  0.
        -11    1    5    5    0    0  0.33935265390E+02  0.15228014938E+02  0.37973484342E+02  0.53155246111E+02  0.00000000000E+00 0.  1.
         12    1    5    5    0    0 -0.22249732119E+02 -0.43381627172E+02  0.15673042830E+02  0.51211916846E+02  0.00000000000E+00 0. -1.
         13    1    3    3    0    0 -0.25882220146E+01  0.26537776422E+02 -0.23294403094E+03  0.23446508060E+03  0.00000000000E+00 0. -1.
        -14    1    3    3    0    0  0.20015768538E+02 -0.58675152403E+02 -0.55532675528E+03  0.55877652924E+03  0.00000000000E+00 0.  1.
          5    1    4    4  501    0  0.92102948729E+01 -0.17212515887E+02  0.44390223625E+02  0.48673037591E+02  0.41800000000E+01 0.  1.
         -5    1    4    4    0  501 -0.38323374668E+02  0.77503504102E+02 -0.35324659935E+02  0.93492129046E+02  0.41800000000E+01 0.  1.
</event>
<event>
11    1  0.8328696E-009  0.1475307E+03  0.7561462E-02  0.1099429E+00
         22   -1    0    0    0    0  0.00000000000E+00  0.00000000000E+00  0.14140278121E+04  0.14140278121E+04  0.00000000000E+00 0. -1.
         22   -1    0    0    0    0 -0.00000000000E+00 -0.00000000000E+00 -0.57005220378E+03  0.57005220378E+03  0.00000000000E+00 0. -1.
         24    2    1    2    0    0 -0.61203756865E+02  0.55702338864E+02 -0.52978041169E+03  0.54214183076E+03  0.80011434423E+02 0.  0.
         25    2    1    2    0    0  0.24449939687E+02  0.20011183893E+02  0.10094943263E+03  0.16381996548E+03  0.12509175077E+03 0.  0.
        -24    2    1    2    0    0  0.36753817178E+02 -0.75713522758E+02  0.12728065873E+04  0.12781182196E+04  0.80412647702E+02 0.  0.
        -11    1    3    3    0    0 -0.10603772063E+01 -0.13296409471E+02 -0.18298514853E+03  0.18347066111E+03  0.00000000000E+00 0.  1.
         12    1    3    3    0    0 -0.60143379659E+02  0.68998748335E+02 -0.34679526316E+03  0.35867116965E+03  0.00000000000E+00 0. -1.
         13    1    5    5    0    0  0.54229041403E+02 -0.63520700561E+02  0.11775132745E+04  0.11804715922E+04  0.00000000000E+00 0. -1.
        -14    1    5    5    0    0 -0.17475224225E+02 -0.12192822197E+02  0.95293312802E+02  0.97646627385E+02  0.00000000000E+00 0.  1.
          5    1    4    4  501    0  0.63995754018E+02 -0.20847282663E+02  0.75941873715E+02  0.10156134260E+03  0.41800000000E+01 0. -1.
         -5    1    4    4    0  501 -0.39545814331E+02  0.40858466556E+02  0.25007558917E+02  0.62258622884E+02  0.41800000000E+01 0. -1.
</event>
<event>
11    1  0.8328696E-009  0.1345778E+03  0.7561462E-02  0.1113769E+00
         22   -1    0    0    0    0  0.00000000000E+00  0.00000000000E+00  0.24078805738E+03  0.24078805738E+03  0.00000000000E+00 0. -1.
         22   -1    0    0    0    0 -0.00000000000E+00 -0.00000000000E+00 -0.29123171708E+03  0.29123171708E+03  0.00000000000E+00 0.  1.
        -24    2    1    2    0    0 -0.62633322529E+01  0.82297126338E+01 -0.14558033562E+03  0.16621600877E+03  0.79543509803E+02 0.  0.
         25    2    1    2    0    0  0.28235323391E+02 -0.51781930434E+02 -0.85328954928E+02  0.16250168267E+03  0.12508862664E+03 0.  0.
         24    2    1    2    0    0 -0.21971991138E+02  0.43552217800E+02  0.18046563085E+03  0.20330208301E+03  0.79901996025E+02 0.  0.
        -11    1    5    5    0    0 -0.88117106320E+01 -0.16685899375E+02  0.86501808197E+01  0.20757916813E+02  0.00000000000E+00 0.  1.
         12    1    5    5    0    0 -0.13160280506E+02  0.60238117175E+02  0.17181545003E+03  0.18254416620E+03  0.00000000000E+00 0. -1.
         13    1    3    3    0    0 -0.17393374018E+00  0.18445051820E+02  0.16376713766E+01  0.18518427502E+02  0.00000000000E+00 0. -1.
        -14    1    3    3    0    0 -0.60893985127E+01 -0.10215339186E+02 -0.14721800700E+03  0.14769758127E+03  0.00000000000E+00 0.  1.
          5    1    4    4  501    0  0.59491417925E+01  0.11527395800E+02  0.27762298084E+02  0.30927184432E+02  0.41800000000E+01 0.  1.
         -5    1    4    4    0  501  0.22286181599E+02 -0.63309326234E+02 -0.11309125301E+03  0.13157449824E+03  0.41800000000E+01 0.  1.
</event>
<event>
11    1  0.8328696E-009  0.2146933E+03  0.7561462E-02  0.1044594E+00
         22   -1    0    0    0    0  0.00000000000E+00  0.00000000000E+00  0.30076347411E+04  0.30076347411E+04  0.00000000000E+00 0.  1.
         22   -1    0    0    0    0 -0.00000000000E+00 -0.00000000000E+00 -0.53792810161E+02  0.53792810161E+02  0.00000000000E+00 0. -1.
        -24    2    1    2    0    0  0.91585865007E+02 -0.14217649419E+03  0.17720247001E+03  0.25834414732E+03  0.82090540906E+02 0.  0.
         25    2    1    2    0    0 -0.14342646450E+03  0.15125515977E+03  0.12451442510E+04  0.12686530791E+04  0.12508858983E+03 0.  0.
         24    2    1    2    0    0  0.51840599493E+02 -0.90786655870E+01  0.15314952100E+04  0.15344303249E+04  0.78923847851E+02 0.  0.
        -13    1    5    5    0    0  0.67698110339E+02  0.11423167938E+02  0.11630357114E+04  0.11650603371E+04  0.00000000000E+00 0.  1.
         14    1    5    5    0    0 -0.15857510846E+02 -0.20501833525E+02  0.36845949854E+03  0.36936998781E+03  0.00000000000E+00 0. -1.
         11    1    3    3    0    0  0.10656148697E+03 -0.11521625896E+03  0.14341942851E+03  0.21260119781E+03  0.00000000000E+00 0. -1.
        -12    1    3    3    0    0 -0.14975621967E+02 -0.26960235226E+02  0.33783041500E+02  0.45742949508E+02  0.00000000000E+00 0.  1.
          5    1    4    4  501    0 -0.13557539525E+03  0.17268762171E+03  0.11061854217E+04  0.11277700839E+04  0.41800000000E+01 0.  1.
         -5    1    4    4    0  501 -0.78510692493E+01 -0.21432461934E+02  0.13895882924E+03  0.14088299520E+03  0.41800000000E+01 0.  1.
</event>
<event>
11    1  0.8328696E-009  0.1397496E+03  0.7561462E-02  0.1107838E+00
         22   -1    0    0    0    0  0.00000000000E+00  0.00000000000E+00  0.10922193705E+04  0.10922193705E+04  0.00000000000E+00 0. -1.
         22   -1    0    0    0    0 -0.00000000000E+00 -0.00000000000E+00 -0.79970424349E+03  0.79970424349E+03  0.00000000000E+00 0.  1.
         24    2    1    2    0    0  0.39085088944E+02  0.26061839001E+02 -0.73715292705E+03  0.74300418649E+03  0.80336291027E+02 0.  0.
         25    2    1    2    0    0  0.28425583391E+01 -0.72488516964E+02  0.35084646327E+02  0.14881250359E+03  0.12510620923E+03 0.  0.
        -24    2    1    2    0    0 -0.41927647283E+02  0.46426677963E+02  0.99458340773E+03  0.10001069239E+04  0.84287248590E+02 0.  0.
        -13    1    3    3    0    0  0.22558571617E+02  0.27261509852E+02 -0.71203126364E+03  0.71290995187E+03  0.00000000000E+00 0.  1.
         14    1    3    3    0    0  0.16526517326E+02 -0.11996708506E+01 -0.25121663414E+02  0.30094234627E+02  0.00000000000E+00 0. -1.
         13    1    5    5    0    0 -0.57328983645E+02  0.13673034029E+01  0.54100698104E+03  0.54403771507E+03  0.00000000000E+00 0. -1.
        -14    1    5    5    0    0  0.15401336362E+02  0.45059374560E+02  0.45357642669E+03  0.45606920883E+03  0.00000000000E+00 0.  1.
          5    1    4    4  501    0 -0.15427118639E+02 -0.46152553531E+01  0.68772032083E+02  0.70755645487E+02  0.41800000000E+01 0.  1.
         -5    1    4    4    0  501  0.18269676979E+02 -0.67873261611E+02 -0.33687385755E+02  0.78056858108E+02  0.41800000000E+01 0.  1.
</event>
<event>
11    1  0.8328696E-009  0.1411377E+03  0.7561462E-02  0.1106295E+00
         22   -1    0    0    0    0  0.00000000000E+00  0.00000000000E+00  0.46201390467E+03  0.46201390467E+03  0.00000000000E+00 0.  1.
         22   -1    0    0    0    0 -0.00000000000E+00 -0.00000000000E+00 -0.13441305803E+04  0.13441305803E+04  0.00000000000E+00 0.  1.
        -24    2    1    2    0    0 -0.43617259140E+01 -0.65812100347E+02 -0.12978777593E+04  0.13020304769E+04  0.80289647191E+02 0.  0.
         25    2    1    2    0    0  0.31170689259E+01  0.35105155330E+02  0.69282063276E+02  0.14726712874E+03  0.12508203254E+03 0.  0.
         24    2    1    2    0    0  0.12446569881E+01  0.30706945017E+02  0.34647902034E+03  0.35684687941E+03  0.79671313341E+02 0.  0.
        -11    1    5    5    0    0  0.23128052696E+01  0.55122511626E+02  0.29158377902E+03  0.29675737657E+03  0.00000000000E+00 0.  1.
         12    1    5    5    0    0 -0.10681482815E+01 -0.24415566609E+02  0.54895241314E+02  0.60089502848E+02  0.00000000000E+00 0. -1.
         11    1    3    3    0    0 -0.12776481748E+02  0.48458565746E+01 -0.42608745343E+02  0.44746239970E+02  0.00000000000E+00 0. -1.
        -12    1    3    3    0    0  0.84147558342E+01 -0.70657956922E+02 -0.12552690139E+04  0.12572842369E+04  0.00000000000E+00 0.  1.
          5    1    4    4  501    0  0.51079909882E+02  0.33907323241E+02 -0.17165194384E+01  0.61475870079E+02  0.41800000000E+01 0.  1.
         -5    1    4    4    0  501 -0.47962840956E+02  0.11978320887E+01  0.70998582714E+02  0.85791258656E+02  0.41800000000E+01 0.  1.
</event>
<event>
11    1  0.8328696E-009  0.1406881E+03  0.7561462E-02  0.1106792E+00
         22   -1    0    0    0    0  0.00000000000E+00  0.00000000000E+00  0.69370741828E+03  0.69370741828E+03  0.00000000000E+00 0.  1.
         22   -1    0    0    0    0 -0.00000000000E+00 -0.00000000000E+00 -0.12565247495E+04  0.12565247495E+04  0.00000000000E+00 0. -1.
        -24    2    1    2    0    0 -0.61661100765E+02 -0.21530964307E+02 -0.11995239037E+04  0.12041041842E+04  0.82119529434E+02 0.  0.
         25    2    1    2    0    0  0.39101676048E+02 -0.25271913513E+02  0.36879369486E+02  0.13847575143E+03  0.12509130728E+03 0.  0.
         24    2    1    2    0    0  0.22559424717E+02  0.46802877821E+02  0.59982720293E+03  0.60765223221E+03  0.82153057864E+02 0.  0.
        -13    1    5    5    0    0  0.32078143172E+02  0.64057978143E+02  0.53829617743E+03  0.54304254573E+03  0.00000000000E+00 0.  1.
         14    1    5    5    0    0 -0.95187184549E+01 -0.17255100322E+02  0.61531025499E+02  0.64609686481E+02  0.00000000000E+00 0. -1.
         13    1    3    3    0    0 -0.30517904371E+02 -0.13465858866E+02 -0.10741769412E+04  0.10746947348E+04  0.00000000000E+00 0. -1.
        -14    1    3    3    0    0 -0.31143196394E+02 -0.80651054419E+01 -0.12534696243E+03  0.12940944942E+03  0.00000000000E+00 0.  1.
          5    1    4    4  501    0 -0.36884981712E+02  0.15797775218E+02  0.32643847187E+02  0.51895710198E+02  0.41800000000E+01 0. -1.
         -5    1    4    4    0  501  0.75986657760E+02 -0.41069688732E+02  0.42355222997E+01  0.86580041229E+02  0.41800000000E+01 0. -1.
</event>
<event>
11    1  0.8328696E-009  0.1917054E+03  0.7561462E-02  0.1060549E+00
         22   -1    0    0    0    0  0.00000000000E+00  0.00000000000E+00  0.25381220759E+03  0.25381220759E+03  0.00000000000E+00 0. -1.
         22   -1    0    0    0    0 -0.00000000000E+00 -0.00000000000E+00 -0.17805008027E+04  0.17805008027E+04  0.00000000000E+00 0.  1.
         24    2    1    2    0    0 -0.98225598591E+02 -0.10726887690E+03 -0.15569368316E+04  0.15659526846E+04  0.83669782188E+02 0.  0.
         25    2    1    2    0    0  0.87271318626E+02  0.11469641565E+03 -0.16809219290E+03  0.25431065919E+03  0.12508946896E+03 0.  0.
        -24    2    1    2    0    0  0.10954279965E+02 -0.74275387580E+01  0.19834042938E+03  0.21404966656E+03  0.79392501198E+02 0.  0.
        -13    1    3    3    0    0 -0.18663902349E+02 -0.71644179641E+02 -0.93647552079E+03  0.93939748284E+03  0.00000000000E+00 0.  1.
         14    1    3    3    0    0 -0.79561696241E+02 -0.35624697254E+02 -0.62046131084E+03  0.62655520173E+03  0.00000000000E+00 0. -1.
         11    1    5    5    0    0  0.11213784071E+01 -0.19291450102E+02  0.19768444181E+03  0.19862667512E+03  0.00000000000E+00 0. -1.
        -12    1    5    5    0    0  0.98329015580E+01  0.11863911344E+02  0.65598757801E+00  0.15422991445E+02  0.00000000000E+00 0.  1.
          5    1    4    4  501    0  0.75009748610E+02  0.39744173071E+02 -0.15550106369E+03  0.17721206191E+03  0.41800000000E+01 0. -1.
         -5    1    4    4    0  501  0.12261570015E+02  0.74952242583E+02 -0.12591129218E+02  0.77098597279E+02  0.41800000000E+01 0. -1.
</event>
<event>
11    1  0.8328696E-009  0.1432645E+03  0.7561462E-02  0.1103967E+00
         22   -1    0    0    0    0  0.00000000000E+00  0.00000000000E+00  0.30048619928E+03  0.30048619928E+03  0.00000000000E+00 0. -1.
         22   -1    0    0    0    0 -0.00000000000E+00 -0.00000000000E+00 -0.39342617671E+04  0.39342617671E+04  0.00000000000E+00 0. -1.
        -24    2    1    2    0    0 -0.23871880915E+02  0.63394536750E+02 -0.35341777290E+04  0.35357230053E+04  0.79600353799E+02 0.  0.
         25    2    1    2    0    0  0.59472012073E+02 -0.11043383074E+03 -0.37081340358E+03  0.41095284138E+03  0.12508839425E+03 0.  0.
         24    2    1    2    0    0 -0.35600131158E+02  0.47039293991E+02  0.27121556478E+03  0.28807211962E+03  0.77120678200E+02 0.  0.
        -13    1    5    5    0    0 -0.19402076188E+02 -0.75666375112E+01  0.15161986917E+02  0.25760054560E+02  0.00000000000E+00 0.  1.
         14    1    5    5    0    0 -0.16198054970E+02  0.54605931502E+02  0.25605357787E+03  0.26231206506E+03  0.00000000000E+00 0. -1.
         11    1    3    3    0    0 -0.22710034655E+02  0.28763550396E+02 -0.30825947760E+04  0.30828126184E+04  0.00000000000E+00 0. -1.
        -12    1    3    3    0    0 -0.11618462607E+01  0.34630986354E+02 -0.45158295302E+03  0.45291038690E+03  0.00000000000E+00 0.  1.
          5    1    4    4  501    0  0.35336438437E+02 -0.12843251871E+03 -0.34888353573E+03  0.37347124340E+03  0.41800000000E+01 0.  1.
         -5    1    4    4    0  501  0.24135573636E+02  0.17998687972E+02 -0.21929867844E+02  0.37481597980E+02  0.41800000000E+01 0.  1.
</event>
<event>
11    1  0.8328696E-009  0.1429103E+03  0.7561462E-02  0.1104351E+00
         22   -1    0    0    0    0  0.00000000000E+00  0.00000000000E+00  0.73907396434E+03  0.73907396434E+03  0.00000000000E+00 0. -1.
         22   -1    0    0    0    0 -0.00000000000E+00 -0.00000000000E+00 -0.30518459285E+03  0.30518459285E+03  0.00000000000E+00 0. -1.
        -24    2    1    2    0    0 -0.32252629023E+02  0.57014080966E+02 -0.13095835902E+03  0.16556302224E+03  0.77266972428E+02 0.  0.
         25    2    1    2    0    0  0.55393521507E+02 -0.55315072826E+02 -0.11922225066E+03  0.18970643782E+03  0.12508552271E+03 0.  0.
         24    2    1    2    0    0 -0.23140892484E+02 -0.16990081406E+01  0.68406998116E+03  0.68898909713E+03  0.78840657663E+02 0.  0.
        -13    1    5    5    0    0  0.21525052836E+02  0.98194584251E+01  0.87616109296E+02  0.90754241066E+02  0.00000000000E+00 0.  1.
         14    1    5    5    0    0 -0.44665945320E+02 -0.11518466566E+02  0.59645387187E+03  0.59823485606E+03  0.00000000000E+00 0. -1.
         13    1    3    3    0    0  0.11228700329E+02  0.37841531851E+02 -0.10328794602E+03  0.11057334687E+03  0.00000000000E+00 0. -1.
        -14    1    3    3    0    0 -0.43481329352E+02  0.19172549116E+02 -0.27670412993E+02  0.54989675367E+02  0.00000000000E+00 0.  1.
          5    1    4    4  501    0  0.76612022609E+02 -0.61907745188E+01 -0.11148551322E+03  0.13547774634E+03  0.41800000000E+01 0. -1.
         -5    1    4    4    0  501 -0.21218501102E+02 -0.49124298307E+02 -0.77367374434E+01  0.54228691478E+02  0.41800000000E+01 0. -1.
</event>
<event>
11    1  0.8328696E-009  0.1799403E+03  0.7561462E-02  0.1069691E+00
         22   -1    0    0    0    0  0.00000000000E+00  0.00000000000E+00  0.14181817113E+04  0.14181817113E+04  0.00000000000E+00 0.  1.
         22   -1    0    0    0    0 -0.00000000000E+00 -0.00000000000E+00 -0.34287518326E+03  0.34287518326E+03  0.00000000000E+00 0. -1.
         24    2    1    2    0    0  0.95217366501E+02 -0.86474610550E+02 -0.25904668466E+03  0.30064963660E+03  0.82102460365E+02 0.  0.
         25    2    1    2    0    0 -0.52106291722E+02  0.13990767151E+03  0.95610475623E+02  0.21697631531E+03  0.12509251046E+03 0.  0.
        -24    2    1    2    0    0 -0.43111074779E+02 -0.53433060960E+02  0.12387427370E+04  0.12434309426E+04  0.83206272041E+02 0.  0.
        -13    1    3    3    0    0  0.53438973625E+02  0.29233506774E+01 -0.10164243682E+03  0.11487147097E+03  0.00000000000E+00 0.  1.
         14    1    3    3    0    0  0.41778392876E+02 -0.89397961228E+02 -0.15740424785E+03  0.18577816563E+03  0.00000000000E+00 0. -1.
         13    1    5    5    0    0 -0.23210625015E+01  0.20756654212E+02  0.36461929640E+03  0.36521700033E+03  0.00000000000E+00 0. -1.
        -14    1    5    5    0    0 -0.40790012278E+02 -0.74189715172E+02  0.87412344064E+03  0.87821394228E+03  0.00000000000E+00 0.  1.
          5    1    4    4  501    0 -0.64281014624E+02  0.74918289056E+02 -0.22132126302E+01  0.98828991629E+02  0.41800000000E+01 0.  1.
         -5    1    4    4    0  501  0.12174722903E+02  0.64989382454E+02  0.97823688254E+02  0.11814732368E+03  0.41800000000E+01 0.  1.
</event>
<event>
11    1  0.8328696E-009  0.1474058E+03  0.7561462E-02  0.1099559E+00
         22   -1    0    0    0    0  0.00000000000E+00  0.00000000000E+00  0.37589116527E+03  0.37589116527E+03  0.00000000000E+00 0. -1.
         22   -1    0    0    0    0 -0.00000000000E+00 -0.00000000000E+00 -0.31698453773E+03  0.31698453773E+03  0.00000000000E+00 0. -1.
         24    2    1    2    0    0  0.48543361943E+02  0.21084442111E+02 -0.25274911192E+03  0.27082685187E+03  0.81633684414E+02 0.  0.
         25    2    1    2    0    0 -0.20832176026E+02  0.60805560549E+02  0.79570190429E+02  0.16158992106E+03  0.12509433093E+03 0.  0.
        -24    2    1    2    0    0 -0.27711185917E+02 -0.81890002660E+02  0.23208554903E+03  0.26045893006E+03  0.80630452187E+02 0.  0.
        -13    1    3    3    0    0  0.14387703255E+02 -0.28682336491E+02 -0.51119459394E+02  0.60356288490E+02  0.00000000000E+00 0.  1.
         14    1    3    3    0    0  0.34155658688E+02  0.49766778602E+02 -0.20162965253E+03  0.21047056339E+03  0.00000000000E+00 0. -1.
         11    1    5    5    0    0 -0.36607098220E+01 -0.67778413773E+02  0.21970127396E+03  0.22994774178E+03  0.00000000000E+00 0. -1.
        -12    1    5    5    0    0 -0.24050476095E+02 -0.14111588887E+02  0.12384275068E+02  0.30511188280E+02  0.00000000000E+00 0.  1.
          5    1    4    4  501    0 -0.21413557960E+02  0.92026055102E+02  0.23782688403E+02  0.97521402522E+02  0.41800000000E+01 0. -1.
         -5    1    4    4    0  501  0.58138193407E+00 -0.31220494553E+02  0.55787502026E+02  0.64068518536E+02  0.41800000000E+01 0. -1.
</event>
<event>
11    1  0.8328696E-009  0.1439130E+03  0.7561462E-02  0.1103266E+00
         22   -1    0    0    0    0  0.00000000000E+00  0.00000000000E+00  0.10732800464E+04  0.10732800464E+04  0.00000000000E+00 0. -1.
         22   -1    0    0    0    0 -0.00000000000E+00 -0.00000000000E+00 -0.12693583055E+03  0.12693583055E+03  0.00000000000E+00 0.  1.
        -24    2    1    2    0    0  0.67958740486E+02  0.15912458048E+02 -0.69420312338E+02  0.11920393967E+03  0.67222040573E+02 0.  0.
         25    2    1    2    0    0 -0.72654427552E+02 -0.43510864931E+02  0.15675186720E+03  0.21770071312E+03  0.12510232376E+03 0.  0.
         24    2    1    2    0    0  0.46956870654E+01  0.27598406883E+02  0.85901266096E+03  0.86331122412E+03  0.81362131674E+02 0.  0.
        -13    1    5    5    0    0 -0.26090557235E+02 -0.87056373823E+01  0.54675165929E+03  0.54744304017E+03  0.00000000000E+00 0.  1.
         14    1    5    5    0    0  0.30786244300E+02  0.36304044265E+02  0.31226100167E+03  0.31586818395E+03  0.00000000000E+00 0. -1.
         13    1    3    3    0    0  0.10373131236E+02 -0.13006467499E+02  0.80125438509E+01  0.18465397569E+02  0.00000000000E+00 0. -1.
        -14    1    3    3    0    0  0.57585609250E+02  0.28918925547E+02 -0.77432856189E+02  0.10073854210E+03  0.00000000000E+00 0.  1.
          5    1    4    4  501    0  0.89051079999E+01  0.13269385553E+02 -0.12955519063E+02  0.20992746739E+02  0.41800000000E+01 0.  1.
         -5    1    4    4    0  501 -0.81559535551E+02 -0.56780250484E+02  0.16970738626E+03  0.19670796638E+03  0.41800000000E+01 0.  1.
</event>
<event>
11    1  0.1424875E-008  0.1647285E+03  0.7561462E-02  0.1082712E+00
         22   -1    0    0    0    0  0.00000000000E+00  0.00000000000E+00  0.99996051832E+03  0.99996051832E+03  0.00000000000E+00 0.  1.
         22   -1    0    0    0    0 -0.00000000000E+00 -0.00000000000E+00 -0.12495900676E+04  0.12495900676E+04  0.00000000000E+00 0.  1.
        -24    2    1    2    0    0  0.15496816579E+02 -0.45886102808E+02 -0.10496258219E+04  0.10539047746E+04  0.81579545205E+02 0.  0.
         25    2    1    2    0    0  0.41490116834E+02  0.13581299057E+03 -0.14682114984E+03  0.23952092470E+03  0.12508886891E+03 0.  0.
         24    2    1    2    0    0 -0.56986933413E+02 -0.89926887762E+02  0.94681742245E+03  0.95612488663E+03  0.79857445829E+02 0.  0.
        -13    1    5    5    0    0 -0.51322988348E+02 -0.35024599513E+02  0.72050637141E+03  0.72318061572E+03  0.00000000000E+00 0.  1.
         14    1    5    5    0    0 -0.56639450655E+01 -0.54902288249E+02  0.22631105104E+03  0.23294427091E+03  0.00000000000E+00 0. -1.
         11    1    3    3    0    0 -0.14719518639E+01  0.14088474575E+02 -0.41440147474E+02  0.43794264246E+02  0.00000000000E+00 0. -1.
        -12    1    3    3    0    0  0.16968768443E+02 -0.59974577383E+02 -0.10081856744E+04  0.10101105104E+04  0.00000000000E+00 0.  1.
          5    1    4    4  501    0  0.49023222558E+02  0.85921456203E+02 -0.15912818841E+03  0.18741671679E+03  0.41800000000E+01 0. -1.
         -5    1    4    4    0  501 -0.75331057238E+01  0.49891534367E+02  0.12307038568E+02  0.52104207907E+02  0.41800000000E+01 0. -1.
</event>
<event>
11    1  0.8328696E-009  0.1290882E+03  0.7561462E-02  0.1120394E+00
         22   -1    0    0    0    0  0.00000000000E+00  0.00000000000E+00  0.35307840265E+03  0.35307840265E+03  0.00000000000E+00 0.  1.
         22   -1    0    0    0    0 -0.00000000000E+00 -0.00000000000E+00 -0.22915083144E+03  0.22915083144E+03  0.00000000000E+00 0. -1.
         24    2    1    2    0    0  0.10332590737E+02  0.15683622307E+02 -0.17576662048E+03  0.19384026454E+03  0.79544986293E+02 0.  0.
         25    2    1    2    0    0 -0.53989269181E+01 -0.44525356197E+02  0.85789368445E+02  0.15817556599E+03  0.12509211879E+03 0.  0.
        -24    2    1    2    0    0 -0.49336638191E+01  0.28841733890E+02  0.21390482325E+03  0.23021340355E+03  0.79917151558E+02 0.  0.
        -13    1    3    3    0    0  0.52556369133E+01 -0.24841162503E+02 -0.13018497578E+03  0.13263797719E+03  0.00000000000E+00 0.  1.
         14    1    3    3    0    0  0.50769538240E+01  0.40524784810E+02 -0.45581644692E+02  0.61202287350E+02  0.00000000000E+00 0. -1.
         11    1    5    5    0    0 -0.64338816997E+01  0.31219396225E+02  0.23046304359E+02  0.39334179526E+02  0.00000000000E+00 0. -1.
        -12    1    5    5    0    0  0.15002178806E+01 -0.23776623344E+01  0.19085851889E+03  0.19087922403E+03  0.00000000000E+00 0.  1.
          5    1    4    4  501    0  0.44961091945E+02 -0.14882083692E+02 -0.73835900473E+01  0.48114093630E+02  0.41800000000E+01 0. -1.
         -5    1    4    4    0  501 -0.50360018863E+02 -0.29643272506E+02  0.93172958493E+02  0.11006147236E+03  0.41800000000E+01 0. -1.
</event>
<event>
11    1  0.8328696E-009  0.1628480E+03  0.7561462E-02  0.1084429E+00
         22   -1    0    0    0    0  0.00000000000E+00  0.00000000000E+00  0.78384722632E+03  0.78384722632E+03  0.00000000000E+00 0.  1.
         22   -1    0    0    0    0 -0.00000000000E+00 -0.00000000000E+00 -0.26313491392E+03  0.26313491392E+03  0.00000000000E+00 0.  1.
        -24    2    1    2    0    0  0.12572044934E+02 -0.72986955084E+02 -0.20369272573E+03  0.23104479772E+03  0.80036367436E+02 0.  0.
         25    2    1    2    0    0 -0.44573017708E+02  0.16002095269E+03  0.24199050885E+03  0.31906541829E+03  0.12509946271E+03 0.  0.
         24    2    1    2    0    0  0.32000972773E+02 -0.87033997610E+02  0.48241452928E+03  0.49687192423E+03  0.74558380001E+02 0.  0.
        -13    1    5    5    0    0  0.42579031107E+02 -0.85418191430E+02  0.31563452205E+03  0.32974898458E+03  0.00000000000E+00 0.  1.
         14    1    5    5    0    0 -0.10578058334E+02 -0.16158061793E+01  0.16678000722E+03  0.16712293965E+03  0.00000000000E+00 0. -1.
         13    1    3    3    0    0  0.25330586620E+02  0.47832083342E+01 -0.25774747149E+02  0.36453467477E+02  0.00000000000E+00 0. -1.
        -14    1    3    3    0    0 -0.12758541685E+02 -0.77770163419E+02 -0.17791797858E+03  0.19459133024E+03  0.00000000000E+00 0.  1.
          5    1    4    4  501    0 -0.36890827767E+02  0.61738242126E+02  0.19862317267E+03  0.21128459678E+03  0.41800000000E+01 0. -1.
         -5    1    4    4    0  501 -0.76821899405E+01  0.98282710568E+02  0.43367336171E+02  0.10778082151E+03  0.41800000000E+01 0. -1.
</event>
<event>
11    1  0.8328696E-009  0.1321047E+03  0.7561462E-02  0.1116710E+00
         22   -1    0    0    0    0  0.00000000000E+00  0.00000000000E+00  0.39503695510E+03  0.39503695510E+03  0.00000000000E+00 0. -1.
         22   -1    0    0    0    0 -0.00000000000E+00 -0.00000000000E+00 -0.28348151912E+03  0.28348151912E+03  0.00000000000E+00 0. -1.
         24    2    1    2    0    0  0.32636988787E+01  0.93098474924E+01 -0.20473700360E+03  0.22083611741E+03  0.82182876067E+02 0.  0.
         25    2    1    2    0    0 -0.45115149682E+02 -0.13646024037E+02  0.54610780877E+01  0.13378787302E+03  0.12509109037E+03 0.  0.
        -24    2    1    2    0    0  0.41851450804E+02  0.43361765442E+01  0.31083136150E+03  0.32389448379E+03  0.80753668471E+02 0.  0.
        -11    1    3    3    0    0  0.24847765485E+02  0.35987239029E+02 -0.76814499755E+02  0.88390950867E+02  0.00000000000E+00 0.  1.
         12    1    3    3    0    0 -0.21584066607E+02 -0.26677391536E+02 -0.12792250385E+03  0.13244516655E+03  0.00000000000E+00 0. -1.
         13    1    5    5    0    0 -0.68443600445E+01 -0.17872761167E+02  0.19897193323E+03  0.19989024756E+03  0.00000000000E+00 0. -1.
        -14    1    5    5    0    0  0.48695810848E+02  0.22208937711E+02  0.11185942827E+03  0.12400423622E+03  0.00000000000E+00 0.  1.
          5    1    4    4  501    0  0.34843818706E+02  0.22373433502E+02  0.17539800816E+02  0.45163915257E+02  0.41800000000E+01 0. -1.
         -5    1    4    4    0  501 -0.79958968388E+02 -0.36019457539E+02 -0.12078722728E+02  0.88623957764E+02  0.41800000000E+01 0. -1.
</event>
<event>
11    1  0.8328696E-009  0.1369582E+03  0.7561462E-02  0.1111003E+00
         22   -1    0    0    0    0  0.00000000000E+00  0.00000000000E+00  0.10808543913E+04  0.10808543913E+04  0.00000000000E+00 0.  1.
         22   -1    0    0    0    0 -0.00000000000E+00 -0.00000000000E+00 -0.11224799668E+03  0.11224799668E+03  0.00000000000E+00 0. -1.
         24    2    1    2    0    0 -0.29066200138E+02  0.13602889551E+02 -0.72105199712E+02  0.11387626008E+03  0.82089951818E+02 0.  0.
         25    2    1    2    0    0  0.47797532850E+02 -0.61903868234E+02  0.32242955864E+03  0.35457853275E+03  0.12509365514E+03 0.  0.
        -24    2    1    2    0    0 -0.18731332711E+02  0.48300978683E+02  0.71828203567E+03  0.72464759512E+03  0.80630062509E+02 0.  0.
        -11    1    3    3    0    0  0.27799079291E+02 -0.38391729223E+01 -0.17108326344E+02  0.32866744415E+02  0.00000000000E+00 0.  1.
         12    1    3    3    0    0 -0.56865279429E+02  0.17442062473E+02 -0.54996873368E+02  0.81009515664E+02  0.00000000000E+00 0. -1.
         13    1    5    5    0    0  0.31374161435E+02  0.14161311057E+02  0.30627501558E+03  0.30820328666E+03  0.00000000000E+00 0. -1.
        -14    1    5    5    0    0 -0.50105494146E+02  0.34139667626E+02  0.41200702008E+03  0.41644430846E+03  0.00000000000E+00 0.  1.
          5    1    4    4  501    0  0.55340423000E+02 -0.36896721149E+02  0.32126075837E+03  0.32810040798E+03  0.41800000000E+01 0. -1.
         -5    1    4    4    0  501 -0.75428901506E+01 -0.25007147084E+02  0.11688002629E+01  0.26478124767E+02  0.41800000000E+01 0. -1.
</event>
<event>
11    1  0.8328696E-009  0.1264009E+03  0.7561462E-02  0.1123772E+00
         22   -1    0    0    0    0  0.00000000000E+00  0.00000000000E+00  0.54552715869E+03  0.54552715869E+03  0.00000000000E+00 0.  1.
         22   -1    0    0    0    0 -0.00000000000E+00 -0.00000000000E+00 -0.84028762370E+02  0.84028762370E+02  0.00000000000E+00 0.  1.
        -24    2    1    2    0    0  0.64649775286E+02 -0.28017028541E+02 -0.45631246406E+01  0.10630976220E+03  0.79475757941E+02 0.  0.
         25    2    1    2    0    0 -0.18390580266E+02  0.19714538926E+02  0.24097841872E+03  0.27284915165E+03  0.12509670172E+03 0.  0.
         24    2    1    2    0    0 -0.46259195020E+02  0.83024896155E+01  0.22508310225E+03  0.25039700721E+03  0.99133313501E+02 0.  0.
        -13    1    5    5    0    0 -0.43388640801E+02  0.84068769782E+01  0.23548982123E+03  0.23960113864E+03  0.00000000000E+00 0.  1.
         14    1    5    5    0    0 -0.28705542186E+01 -0.10438736271E+00 -0.10406718986E+02  0.10795868576E+02  0.00000000000E+00 0. -1.
         13    1    3    3    0    0  0.12038299441E+01 -0.41238839899E+02  0.94410510988E+00  0.41267208014E+02  0.00000000000E+00 0. -1.
        -14    1    3    3    0    0  0.63445945342E+02  0.13221811358E+02 -0.55072297504E+01  0.65042554189E+02  0.00000000000E+00 0.  1.
          5    1    4    4  501    0  0.52170907600E+02  0.17856730249E+02  0.12980902771E+03  0.14109756373E+03  0.41800000000E+01 0. -1.
         -5    1    4    4    0  501 -0.70561487866E+02  0.18578086769E+01  0.11116939100E+03  0.13175158792E+03  0.41800000000E+01 0. -1.
</event>
<event>
11    1  0.8328696E-009  0.6390393E+03  0.7561462E-02  0.9127299E-01
         22   -1    0    0    0    0  0.00000000000E+00  0.00000000000E+00  0.24997619306E+04  0.24997619306E+04  0.00000000000E+00 0.  1.
         22   -1    0    0    0    0 -0.00000000000E+00 -0.00000000000E+00 -0.94884824464E+03  0.94884824464E+03  0.00000000000E+00 0.  1.
         24    2    1    2    0    0 -0.27368056577E+02  0.45241072082E+02 -0.71851903144E+03  0.72500624372E+03  0.81047453760E+02 0.  0.
         25    2    1    2    0    0  0.25468793655E+02 -0.66148861335E+03  0.47424957801E+03  0.82387867043E+03  0.12509019264E+03 0.  0.
        -24    2    1    2    0    0  0.18992629217E+01  0.61624754127E+03  0.17951831394E+04  0.18997252611E+04  0.80677905098E+02 0.  0.
        -13    1    3    3    0    0 -0.34229836638E+02  0.59678056175E+01 -0.57510783068E+03  0.57615650073E+03  0.00000000000E+00 0.  1.
         14    1    3    3    0    0  0.68617800617E+01  0.39273266465E+02 -0.14341120076E+03  0.14884974299E+03  0.00000000000E+00 0. -1.
         11    1    5    5    0    0 -0.32774683672E+02  0.30902540903E+03  0.83223443416E+03  0.88836087077E+03  0.00000000000E+00 0. -1.
        -12    1    5    5    0    0  0.34673946594E+02  0.30722213224E+03  0.96294870524E+03  0.10113643903E+04  0.00000000000E+00 0.  1.
          5    1    4    4  501    0  0.13232231924E+02 -0.56781806041E+03  0.34790969854E+03  0.66607137187E+03  0.41800000000E+01 0. -1.
         -5    1    4    4    0  501  0.12236561731E+02 -0.93670552942E+02  0.12633987948E+03  0.15780729856E+03  0.41800000000E+01 0. -1.
</event>
<event>
11    1  0.8328696E-009  0.1575052E+03  0.7561462E-02  0.1089447E+00
         22   -1    0    0    0    0  0.00000000000E+00  0.00000000000E+00  0.87240431910E+03  0.87240431910E+03  0.00000000000E+00 0.  1.
         22   -1    0    0    0    0 -0.00000000000E+00 -0.00000000000E+00 -0.42107156484E+03  0.42107156484E+03  0.00000000000E+00 0. -1.
         24    2    1    2    0    0 -0.63137010540E+01 -0.13560281982E+02 -0.37965618840E+03  0.38890172030E+03  0.82957715676E+02 0.  0.
         25    2    1    2    0    0 -0.86852704681E+02  0.37433752790E+02  0.17605272870E+03  0.23577305194E+03  0.12509872334E+03 0.  0.
        -24    2    1    2    0    0  0.93166405735E+02 -0.23873470808E+02  0.65493621396E+03  0.66880111170E+03  0.95412582487E+02 0.  0.
        -13    1    3    3    0    0 -0.16611884679E+02 -0.29857934666E+02 -0.63082565605E+02  0.71741627096E+02  0.00000000000E+00 0.  1.
         14    1    3    3    0    0  0.10298183625E+02  0.16297652683E+02 -0.31657362280E+03  0.31716009320E+03  0.00000000000E+00 0. -1.
         13    1    5    5    0    0 -0.14615724534E+02 -0.23508163129E+02  0.13730026202E+03  0.14006289690E+03  0.00000000000E+00 0. -1.
        -14    1    5    5    0    0  0.10778213027E+03 -0.36530767836E+00  0.51763595194E+03  0.52873821481E+03  0.00000000000E+00 0.  1.
          5    1    4    4  501    0  0.44315892850E+01  0.48112229282E+02  0.15829770026E+02  0.51014503910E+02  0.41800000000E+01 0.  1.
         -5    1    4    4    0  501 -0.91284293966E+02 -0.10678476493E+02  0.16022295867E+03  0.18475854803E+03  0.41800000000E+01 0.  1.
</event>
<event>
11    1  0.8328696E-009  0.1411692E+03  0.7561462E-02  0.1106260E+00
         22   -1    0    0    0    0  0.00000000000E+00  0.00000000000E+00  0.39929453227E+02  0.39929453227E+02  0.00000000000E+00 0. -1.
         22   -1    0    0    0    0 -0.00000000000E+00 -0.00000000000E+00 -0.19484840691E+04  0.19484840691E+04  0.00000000000E+00 0.  1.
        -24    2    1    2    0    0 -0.16976622084E+02 -0.65169105940E+02 -0.12208502203E+04  0.12254567601E+04  0.82059688293E+02 0.  0.
         25    2    1    2    0    0  0.76429717236E+01  0.59385237719E+02 -0.66479856038E+03  0.67910917183E+03  0.12508844835E+03 0.  0.
         24    2    1    2    0    0  0.93336503603E+01  0.57838682211E+01 -0.22905835172E+02  0.83847590354E+02  0.79907264768E+02 0.  0.
        -13    1    5    5    0    0  0.43463027086E+02  0.12657641218E+01 -0.23479196590E+02  0.49415681264E+02  0.00000000000E+00 0.  1.
         14    1    5    5    0    0 -0.34129376725E+02  0.45181040994E+01  0.57336141750E+00  0.34431909091E+02  0.00000000000E+00 0. -1.
         11    1    3    3    0    0 -0.43199382234E+01 -0.28237439312E+02 -0.10197100852E+03  0.10589665445E+03  0.00000000000E+00 0. -1.
        -12    1    3    3    0    0 -0.12656683860E+02 -0.36931666628E+02 -0.11188792118E+04  0.11195601057E+04  0.00000000000E+00 0.  1.
          5    1    4    4  501    0 -0.46538212170E+02  0.66805810041E+02 -0.45582713558E+03  0.46306011637E+03  0.41800000000E+01 0.  1.
         -5    1    4    4    0  501  0.54181183893E+02 -0.74205723219E+01 -0.20897142480E+03  0.21604905546E+03  0.41800000000E+01 0.  1.
</event>
<event>
11    1  0.8328696E-009  0.1617644E+03  0.7561462E-02  0.1085429E+00
         22   -1    0    0    0    0  0.00000000000E+00  0.00000000000E+00  0.18505030957E+03  0.18505030957E+03  0.00000000000E+00 0. -1.
         22   -1    0    0    0    0 -0.00000000000E+00 -0.00000000000E+00 -0.28255994032E+03  0.28255994032E+03  0.00000000000E+00 0.  1.
        -24    2    1    2    0    0  0.15673417096E+02  0.26421769197E+02 -0.81402267697E+02  0.11893245778E+03  0.81085352792E+02 0.  0.
         25    2    1    2    0    0 -0.53591709591E+02 -0.11531891822E+03 -0.93027794159E+02  0.20119131231E+03  0.12511294668E+03 0.  0.
         24    2    1    2    0    0  0.37918292495E+02  0.88897149023E+02  0.76920431102E+02  0.14748647980E+03  0.80591618617E+02 0.  0.
        -13    1    5    5    0    0  0.21785447477E+02  0.31223296607E+02 -0.12317963854E+02  0.40015399614E+02  0.00000000000E+00 0.  1.
         14    1    5    5    0    0  0.16132845018E+02  0.57673852416E+02  0.89238394956E+02  0.10747108018E+03  0.00000000000E+00 0. -1.
         11    1    3    3    0    0 -0.17614443652E+02 -0.16885950153E+02 -0.48301977975E+01  0.24874379359E+02  0.00000000000E+00 0. -1.
        -12    1    3    3    0    0  0.33287860747E+02  0.43307719349E+02 -0.76572069900E+02  0.94058078425E+02  0.00000000000E+00 0.  1.
          5    1    4    4  501    0  0.15609069605E+02 -0.52957097874E+01 -0.66278527364E+02  0.68425164856E+02  0.41800000000E+01 0. -1.
         -5    1    4    4    0  501 -0.69200779196E+02 -0.11002320843E+03 -0.26749266795E+02  0.13276614745E+03  0.41800000000E+01 0. -1.
</event>
<event>
11    1  0.9263150E-009  0.1696483E+03  0.7561462E-02  0.1078338E+00
         22   -1    0    0    0    0  0.00000000000E+00  0.00000000000E+00  0.37213407630E+03  0.37213407630E+03  0.00000000000E+00 0. -1.
         22   -1    0    0    0    0 -0.00000000000E+00 -0.00000000000E+00 -0.24764210460E+04  0.24764210460E+04  0.00000000000E+00 0.  1.
         24    2    1    2    0    0  0.31338160945E+02 -0.26310025748E+02 -0.17318375120E+04  0.17342729142E+04  0.82262233712E+02 0.  0.
         25    2    1    2    0    0 -0.56582480718E+02 -0.85817759064E+02 -0.72098867595E+03  0.73894441391E+03  0.12509161086E+03 0.  0.
        -24    2    1    2    0    0  0.25244319773E+02  0.11212778481E+03  0.34853921827E+03  0.37533779420E+03  0.78669926109E+02 0.  0.
        -13    1    3    3    0    0 -0.57465278985E+01 -0.38710189212E+02 -0.13207955328E+04  0.13213751703E+04  0.00000000000E+00 0.  1.
         14    1    3    3    0    0  0.37084688843E+02  0.12400163464E+02 -0.41104197926E+03  0.41289774390E+03  0.00000000000E+00 0. -1.
         11    1    5    5    0    0  0.20030306076E+02  0.12118773232E+03  0.27665237873E+03  0.30269492610E+03  0.00000000000E+00 0. -1.
        -12    1    5    5    0    0  0.52140136970E+01 -0.90599475044E+01  0.71886839535E+02  0.72642868101E+02  0.00000000000E+00 0.  1.
          5    1    4    4  501    0  0.26239699086E+02 -0.32526989637E+02 -0.79368074827E+02  0.89795827101E+02  0.41800000000E+01 0. -1.
         -5    1    4    4    0  501 -0.82822179804E+02 -0.53290769427E+02 -0.64162060112E+03  0.64914858681E+03  0.41800000000E+01 0. -1.
</event>
<event>
11    1  0.8328696E-009  0.1878025E+03  0.7561462E-02  0.1063501E+00
         22   -1    0    0    0    0  0.00000000000E+00  0.00000000000E+00  0.12741433917E+03  0.12741433917E+03  0.00000000000E+00 0.  1.
         22   -1    0    0    0    0 -0.00000000000E+00 -0.00000000000E+00 -0.14175686521E+04  0.14175686521E+04  0.00000000000E+00 0.  1.
         24    2    1    2    0    0  0.13503439719E+03  0.11963085502E+02 -0.11543497484E+04  0.11653019635E+04  0.83832694137E+02 0.  0.
         25    2    1    2    0    0 -0.18965904272E+03  0.91506602554E+01 -0.16273520099E+03  0.27961323265E+03  0.12508607901E+03 0.  0.
        -24    2    1    2    0    0  0.54624645532E+02 -0.21113745757E+02  0.26930636445E+02  0.10006779516E+03  0.76541898916E+02 0.  0.
        -13    1    3    3    0    0  0.91278340035E+02  0.40792652378E+02 -0.57876420400E+03  0.58733617263E+03  0.00000000000E+00 0.  1.
         14    1    3    3    0    0  0.43756057158E+02 -0.28829566876E+02 -0.57558554443E+03  0.57796579088E+03  0.00000000000E+00 0. -1.
         11    1    5    5    0    0  0.18967665219E+02  0.21486017846E+00 -0.26371445834E+02  0.32484944884E+02  0.00000000000E+00 0. -1.
        -12    1    5    5    0    0  0.35656980313E+02 -0.21328605936E+02  0.53302082279E+02  0.67582850277E+02  0.00000000000E+00 0.  1.
          5    1    4    4  501    0 -0.18443316712E+03 -0.27903882197E+02 -0.11641230320E+03  0.21991706735E+03  0.41800000000E+01 0. -1.
         -5    1    4    4    0  501 -0.52258756091E+01  0.37054542452E+02 -0.46322897795E+02  0.59696165307E+02  0.41800000000E+01 0. -1.
</event>
<event>
11    1  0.8328696E-009  0.1331146E+03  0.7561462E-02  0.1115500E+00
         22   -1    0    0    0    0  0.00000000000E+00  0.00000000000E+00  0.58453225282E+03  0.58453225282E+03  0.00000000000E+00 0. -1.
         22   -1    0    0    0    0 -0.00000000000E+00 -0.00000000000E+00 -0.96193728940E+02  0.96193728940E+02  0.00000000000E+00 0.  1.
         24    2    1    2    0    0  0.14603421575E+02 -0.43755883602E+02 -0.25446606207E+02  0.96494631092E+02  0.80844584176E+02 0.  0.
         25    2    1    2    0    0 -0.37484376263E+02  0.31276042149E+02  0.11516225332E+03  0.17690168536E+03  0.12509433407E+03 0.  0.
        -24    2    1    2    0    0  0.22880954688E+02  0.12479841453E+02  0.39862287676E+03  0.40732966530E+03  0.79611392582E+02 0.  0.
        -13    1    3    3    0    0  0.94156637025E+01 -0.55175548767E+02 -0.45977421567E+02  0.72435621062E+02  0.00000000000E+00 0.  1.
         14    1    3    3    0    0  0.51877578723E+01  0.11419665165E+02  0.20530815361E+02  0.24059010030E+02  0.00000000000E+00 0. -1.
         11    1    5    5    0    0  0.89136767996E+00 -0.29178244230E+02  0.78356462023E+02  0.83617579572E+02  0.00000000000E+00 0. -1.
        -12    1    5    5    0    0  0.21989587008E+02  0.41658085683E+02  0.32026641474E+03  0.32371208573E+03  0.00000000000E+00 0.  1.
          5    1    4    4  501    0 -0.57400400151E+01  0.96805899860E+00  0.13014140157E+03  0.13033856682E+03  0.41800000000E+01 0. -1.
         -5    1    4    4    0  501 -0.31744336247E+02  0.30307983150E+02 -0.14979148246E+02  0.46563118545E+02  0.41800000000E+01 0. -1.
</event>
<event>
11    1  0.8328696E-009  0.1323509E+03  0.7561462E-02  0.1116414E+00
         22   -1    0    0    0    0  0.00000000000E+00  0.00000000000E+00  0.17996365690E+04  0.17996365690E+04  0.00000000000E+00 0.  1.
         22   -1    0    0    0    0 -0.00000000000E+00 -0.00000000000E+00 -0.37270958491E+02  0.37270958491E+02  0.00000000000E+00 0. -1.
        -24    2    1    2    0    0  0.29688381542E+02  0.25344817339E+02  0.78433741929E+02  0.12508320953E+03  0.89275963556E+02 0.  0.
         25    2    1    2    0    0 -0.75131216247E+02  0.20587237851E+01  0.42752942393E+03  0.45174970509E+03  0.12508976665E+03 0.  0.
         24    2    1    2    0    0  0.45442834705E+02 -0.27403541124E+02  0.12564024446E+04  0.12600746128E+04  0.80155609884E+02 0.  0.
        -11    1    5    5    0    0  0.64270381761E+02 -0.11251547704E+02  0.67580703401E+03  0.67894950218E+03  0.00000000000E+00 0.  1.
         12    1    5    5    0    0 -0.18827547057E+02 -0.16151993420E+02  0.58059541061E+03  0.58112511066E+03  0.00000000000E+00 0. -1.
         11    1    3    3    0    0  0.45376822779E+02 -0.22330395242E+01  0.57726340744E+01  0.45797006618E+02  0.00000000000E+00 0. -1.
        -12    1    3    3    0    0 -0.15688441236E+02  0.27577856863E+02  0.72661107855E+02  0.79286202912E+02  0.00000000000E+00 0.  1.
          5    1    4    4  501    0 -0.53951770201E+02 -0.59659966951E+02  0.23715160609E+03  0.25045650688E+03  0.41800000000E+01 0.  1.
         -5    1    4    4    0  501 -0.21179446046E+02  0.61718690736E+02  0.19037781784E+03  0.20129319821E+03  0.41800000000E+01 0.  1.
</event>
<event>
11    1  0.8328696E-009  0.1408553E+03  0.7561462E-02  0.1106607E+00
         22   -1    0    0    0    0  0.00000000000E+00  0.00000000000E+00  0.46735046404E+03  0.46735046404E+03  0.00000000000E+00 0. -1.
         22   -1    0    0    0    0 -0.00000000000E+00 -0.00000000000E+00 -0.26391513199E+03  0.26391513199E+03  0.00000000000E+00 0. -1.
        -24    2    1    2    0    0 -0.30651376012E+02  0.23520153983E+02 -0.18924034461E+03  0.20989561775E+03  0.82167863714E+02 0.  0.
         25    2    1    2    0    0  0.90478609240E+02 -0.35367085737E+02  0.51845035121E+02  0.16665036485E+03  0.12508887622E+03 0.  0.
         24    2    1    2    0    0 -0.59827233228E+02  0.11846931754E+02  0.34083064154E+03  0.35471961344E+03  0.77076781947E+02 0.  0.
        -11    1    5    5    0    0 -0.23568893089E+02  0.33870824058E+02  0.75697242910E+02  0.86213676572E+02  0.00000000000E+00 0.  1.
         12    1    5    5    0    0 -0.36258340140E+02 -0.22023892305E+02  0.26513339863E+03  0.26850593686E+03  0.00000000000E+00 0. -1.
         13    1    3    3    0    0 -0.17276732344E+02  0.13657581933E+01 -0.18227371524E+03  0.18309576195E+03  0.00000000000E+00 0. -1.
        -14    1    3    3    0    0 -0.13374643668E+02  0.22154395790E+02 -0.69666293670E+01  0.26799855798E+02  0.00000000000E+00 0.  1.
          5    1    4    4  501    0  0.11841916162E+03 -0.29718060152E+02  0.60831671707E+02  0.13647060351E+03  0.41800000000E+01 0.  1.
         -5    1    4    4    0  501 -0.27940552381E+02 -0.56490255853E+01 -0.89866365861E+01  0.30179761341E+02  0.41800000000E+01 0.  1.
</event>
<event>
11    1  0.8328696E-009  0.1348583E+03  0.7561462E-02  0.1113440E+00
         22   -1    0    0    0    0  0.00000000000E+00  0.00000000000E+00  0.70740650110E+03  0.70740650110E+03  0.00000000000E+00 0. -1.
         22   -1    0    0    0    0 -0.00000000000E+00 -0.00000000000E+00 -0.20321586764E+03  0.20321586764E+03  0.00000000000E+00 0.  1.
        -24    2    1    2    0    0 -0.40792506197E+02 -0.29354209058E+01 -0.15212994583E+03  0.17777242824E+03  0.82382465166E+02 0.  0.
         25    2    1    2    0    0  0.78696779937E+02  0.30068515268E+02  0.13220374048E+03  0.20055514088E+03  0.12508891539E+03 0.  0.
         24    2    1    2    0    0 -0.37904273740E+02 -0.27133094363E+02  0.52411683882E+03  0.53229479962E+03  0.80413644282E+02 0.  0.
        -13    1    5    5    0    0 -0.29590833231E+02  0.91899564663E+01  0.68795301869E+02  0.75451085284E+02  0.00000000000E+00 0.  1.
         14    1    5    5    0    0 -0.83134405090E+01 -0.36323050829E+02  0.45532153695E+03  0.45684371433E+03  0.00000000000E+00 0. -1.
         11    1    3    3    0    0  0.15112405377E+02 -0.26902167364E+02 -0.44649415007E+02  0.54274134407E+02  0.00000000000E+00 0. -1.
        -12    1    3    3    0    0 -0.55904911575E+02  0.23966746458E+02 -0.10748053082E+03  0.12349829384E+03  0.00000000000E+00 0.  1.
          5    1    4    4  501    0  0.75217903782E+00  0.14794301322E+02 -0.22115667870E+02  0.26944615237E+02  0.41800000000E+01 0.  1.
         -5    1    4    4    0  501  0.77944600900E+02  0.15274213946E+02  0.15431940835E+03  0.17361052564E+03  0.41800000000E+01 0.  1.
</event>
<event>
11    1  0.8328696E-009  0.1362723E+03  0.7561462E-02  0.1111794E+00
         22   -1    0    0    0    0  0.00000000000E+00  0.00000000000E+00  0.15607066061E+04  0.15607066061E+04  0.00000000000E+00 0. -1.
         22   -1    0    0    0    0 -0.00000000000E+00 -0.00000000000E+00 -0.34975095464E+03  0.34975095464E+03  0.00000000000E+00 0. -1.
        -24    2    1    2    0    0 -0.46414056998E+02 -0.35272187768E+02 -0.33116855710E+03  0.34491676505E+03  0.76789124815E+02 0.  0.
         25    2    1    2    0    0 -0.17275769623E+02  0.22753484860E+02  0.43715484173E+03  0.45559622755E+03  0.12508954240E+03 0.  0.
         24    2    1    2    0    0  0.63689826621E+02  0.12518702908E+02  0.11049693669E+04  0.11099445682E+04  0.82501701582E+02 0.  0.
        -11    1    5    5    0    0  0.27932421289E+02 -0.12826967986E+02  0.11595872451E+03  0.11996323210E+03  0.00000000000E+00 0.  1.
         12    1    5    5    0    0  0.35757405332E+02  0.25345670894E+02  0.98901064236E+03  0.98998133607E+03  0.00000000000E+00 0. -1.
         11    1    3    3    0    0 -0.34298989448E+02 -0.20772292135E+02 -0.32093134962E+03  0.32342671498E+03  0.00000000000E+00 0. -1.
        -12    1    3    3    0    0 -0.12115067550E+02 -0.14499895633E+02 -0.10237207478E+02  0.21490050071E+02  0.00000000000E+00 0.  1.
          5    1    4    4  501    0 -0.32318963929E+02  0.69301766909E+02  0.21959987621E+03  0.23257005043E+03  0.41800000000E+01 0. -1.
         -5    1    4    4    0  501  0.15043194307E+02 -0.46548282049E+02  0.21755496552E+03  0.22302617711E+03  0.41800000000E+01 0. -1.
</event>
<event>
11    1  0.8328696E-009  0.1366586E+03  0.7561462E-02  0.1111348E+00
         22   -1    0    0    0    0  0.00000000000E+00  0.00000000000E+00  0.20702617323E+03  0.20702617323E+03  0.00000000000E+00 0.  1.
         22   -1    0    0    0    0 -0.00000000000E+00 -0.00000000000E+00 -0.98820967259E+03  0.98820967259E+03  0.00000000000E+00 0. -1.
        -24    2    1    2    0    0 -0.55335604380E+02 -0.16103151435E+01 -0.80646044073E+03  0.81362607306E+03  0.92435502231E+02 0.  0.
         25    2    1    2    0    0  0.52677626391E+02 -0.93906054756E+01 -0.14140559879E+03  0.19622945008E+03  0.12508931975E+03 0.  0.
         24    2    1    2    0    0  0.26579779888E+01  0.11000920619E+02  0.16668254016E+03  0.18538032268E+03  0.80341208250E+02 0.  0.
        -11    1    5    5    0    0  0.45765351760E+01 -0.28851184128E+01  0.17070966978E+03  0.17079537446E+03  0.00000000000E+00 0.  1.
         12    1    5    5    0    0 -0.19185571872E+01  0.13886039032E+02 -0.40271296176E+01  0.14584948222E+02  0.00000000000E+00 0. -1.
         13    1    3    3    0    0 -0.38296397910E+02 -0.41019062228E+02 -0.60746684669E+03  0.61005339716E+03  0.00000000000E+00 0. -1.
        -14    1    3    3    0    0 -0.17039206470E+02  0.39408747084E+02 -0.19899359403E+03  0.20357267589E+03  0.00000000000E+00 0.  1.
          5    1    4    4  501    0 -0.15028122481E+02 -0.33361456162E+02 -0.11305059892E+03  0.11889803001E+03  0.41800000000E+01 0. -1.
         -5    1    4    4    0  501  0.67705748872E+02  0.23970850687E+02 -0.28354999864E+02  0.77331420071E+02  0.41800000000E+01 0. -1.
</event>
<event>
11    1  0.8328696E-009  0.1462539E+03  0.7561462E-02  0.1100769E+00
         22   -1    0    0    0    0  0.00000000000E+00  0.00000000000E+00  0.23962645675E+03  0.23962645675E+03  0.00000000000E+00 0.  1.
         22   -1    0    0    0    0 -0.00000000000E+00 -0.00000000000E+00 -0.14234907660E+04  0.14234907660E+04  0.00000000000E+00 0.  1.
        -24    2    1    2    0    0  0.52213617156E+02 -0.58688251167E+02 -0.13079634546E+04  0.13127533063E+04  0.79889122917E+02 0.  0.
         25    2    1    2    0    0 -0.50250290855E+02 -0.18373159418E+02 -0.48920124670E+02  0.14457884231E+03  0.12508876180E+03 0.  0.
         24    2    1    2    0    0 -0.19633263011E+01  0.77061410586E+02  0.17301927002E+03  0.20578507416E+03  0.80433284753E+02 0.  0.
        -13    1    5    5    0    0  0.10303422099E+01  0.23262934734E+02  0.14141337330E+03  0.14331771658E+03  0.00000000000E+00 0.  1.
         14    1    5    5    0    0 -0.29936685109E+01  0.53798475852E+02  0.31605896717E+02  0.62467357575E+02  0.00000000000E+00 0. -1.
         13    1    3    3    0    0  0.58646307918E+01  0.15647357727E+02 -0.45422336746E+03  0.45453063840E+03  0.00000000000E+00 0. -1.
        -14    1    3    3    0    0  0.46348986364E+02 -0.74335608895E+02 -0.85374008714E+03  0.85822266789E+03  0.00000000000E+00 0.  1.
          5    1    4    4  501    0  0.22432020910E+02  0.35734301836E+02 -0.19769541983E+01  0.42444276855E+02  0.41800000000E+01 0.  1.
         -5    1    4    4    0  501 -0.72682311765E+02 -0.54107461255E+02 -0.46943170471E+02  0.10213456546E+03  0.41800000000E+01 0.  1.
</event>
<event>
11    1  0.8328696E-009  0.1361803E+03  0.7561462E-02  0.1111900E+00
         22   -1    0    0    0    0  0.00000000000E+00  0.00000000000E+00  0.77753464803E+03  0.77753464803E+03  0.00000000000E+00 0.  1.
         22   -1    0    0    0    0 -0.00000000000E+00 -0.00000000000E+00 -0.71399887665E+02  0.71399887665E+02  0.00000000000E+00 0. -1.
        -24    2    1    2    0    0  0.57624276993E+01  0.21642757221E+02 -0.89083387163E+01  0.84254140319E+02  0.80732813336E+02 0.  0.
         25    2    1    2    0    0  0.47451031935E+02 -0.39583143156E+01  0.20388451539E+03  0.24389617058E+03  0.12509667353E+03 0.  0.
         24    2    1    2    0    0 -0.53213459634E+02 -0.17684442906E+02  0.51115858370E+03  0.52078422479E+03  0.82393563460E+02 0.  0.
        -13    1    5    5    0    0 -0.61013095311E+02 -0.16906083427E+02  0.50861953692E+03  0.51254487296E+03  0.00000000000E+00 0.  1.
         14    1    5    5    0    0  0.77996356763E+01 -0.77835947891E+00  0.25390467756E+01  0.82393518368E+01  0.00000000000E+00 0. -1.
         11    1    3    3    0    0 -0.25650629464E+01 -0.42663973923E+01 -0.41498112472E+02  0.41795634143E+02  0.00000000000E+00 0. -1.
        -12    1    3    3    0    0  0.83274906457E+01  0.25909154614E+02  0.32589773756E+02  0.42458506176E+02  0.00000000000E+00 0.  1.
          5    1    4    4  501    0 -0.78878619658E+01  0.31406353433E+02  0.33283283366E+01  0.32819621751E+02  0.41800000000E+01 0. -1.
         -5    1    4    4    0  501  0.55338893901E+02 -0.35364667749E+02  0.20055618705E+03  0.21107654883E+03  0.41800000000E+01 0. -1.
</event>
<event>
11    1  0.8328696E-009  0.1759505E+03  0.7561462E-02  0.1072966E+00
         22   -1    0    0    0    0  0.00000000000E+00  0.00000000000E+00  0.90883863163E+03  0.90883863163E+03  0.00000000000E+00 0. -1.
         22   -1    0    0    0    0 -0.00000000000E+00 -0.00000000000E+00 -0.22809618144E+03  0.22809618144E+03  0.00000000000E+00 0. -1.
        -24    2    1    2    0    0 -0.53285999712E+02 -0.10989402840E+03 -0.15045316533E+03  0.21545427720E+03  0.94171627168E+02 0.  0.
         25    2    1    2    0    0  0.90991095162E+02  0.10364657649E+03  0.16289634934E+03  0.24740785220E+03  0.12511367826E+03 0.  0.
         24    2    1    2    0    0 -0.37705095450E+02  0.62474519180E+01  0.66829926619E+03  0.67407268366E+03  0.79305540731E+02 0.  0.
        -11    1    5    5    0    0 -0.28947809853E+02 -0.16220029500E+02  0.10202945368E+03  0.10728967551E+03  0.00000000000E+00 0.  1.
         12    1    5    5    0    0 -0.87572855964E+01  0.22467481418E+02  0.56626981251E+03  0.56678300816E+03  0.00000000000E+00 0. -1.
         13    1    3    3    0    0 -0.50621494600E+02 -0.60859139422E+02 -0.14608375398E+03  0.16615304314E+03  0.00000000000E+00 0. -1.
        -14    1    3    3    0    0 -0.26645051123E+01 -0.49034888981E+02 -0.43694113495E+01  0.49301234066E+02  0.00000000000E+00 0.  1.
          5    1    4    4  501    0  0.51942782602E+02  0.12082882756E+03  0.15584229123E+03  0.20396556173E+03  0.41800000000E+01 0. -1.
         -5    1    4    4    0  501  0.39048312560E+02 -0.17182251077E+02  0.70540581012E+01  0.43442290473E+02  0.41800000000E+01 0. -1.
</event>
<event>
11    1  0.8328696E-009  0.1300227E+03  0.7561462E-02  0.1119241E+00
         22   -1    0    0    0    0  0.00000000000E+00  0.00000000000E+00  0.24383253365E+04  0.24383253365E+04  0.00000000000E+00 0.  1.
         22   -1    0    0    0    0 -0.00000000000E+00 -0.00000000000E+00 -0.93522813500E+03  0.93522813500E+03  0.00000000000E+00 0.  1.
         24    2    1    2    0    0 -0.15003871494E+02  0.32186603871E+02 -0.89926297769E+03  0.90354747753E+03  0.80393081042E+02 0.  0.
         25    2    1    2    0    0  0.63026527675E+02 -0.65348167171E+01  0.11496921821E+03  0.18132893797E+03  0.12508883079E+03 0.  0.
        -24    2    1    2    0    0 -0.48022656182E+02 -0.25651787154E+02  0.22873909610E+04  0.22886770560E+04  0.54046911049E+02 0.  0.
        -13    1    3    3    0    0 -0.28214320541E+02  0.31502348878E+02 -0.21303328742E+03  0.21719030231E+03  0.00000000000E+00 0.  1.
         14    1    3    3    0    0  0.13210449048E+02  0.68425499315E+00 -0.68622969027E+03  0.68635717522E+03  0.00000000000E+00 0. -1.
         13    1    5    5    0    0 -0.19087991159E+02  0.14153500485E+02  0.44977069964E+03  0.45039799648E+03  0.00000000000E+00 0. -1.
        -14    1    5    5    0    0 -0.28934665022E+02 -0.39805287639E+02  0.18376202614E+04  0.18382790595E+04  0.00000000000E+00 0.  1.
          5    1    4    4  501    0  0.60900204140E+02 -0.51113548139E+02  0.29664058703E+02  0.84963865534E+02  0.41800000000E+01 0.  1.
         -5    1    4    4    0  501  0.21263235349E+01  0.44578731422E+02  0.85305159509E+02  0.96365072438E+02  0.41800000000E+01 0.  1.
</event>
<event>
11    1  0.8328696E-009  0.1477365E+03  0.7561462E-02  0.1099214E+00
         22   -1    0    0    0    0  0.00000000000E+00  0.00000000000E+00  0.70660819844E+03  0.70660819844E+03  0.00000000000E+00 0. -1.
         22   -1    0    0    0    0 -0.00000000000E+00 -0.00000000000E+00 -0.14483346017E+03  0.14483346017E+03  0.00000000000E+00 0.  1.
        -24    2    1    2    0    0 -0.28650357121E+02 -0.51550842825E+01 -0.81042364653E+02  0.11808645775E+03  0.80803024564E+02 0.  0.
         25    2    1    2    0    0 -0.51874747465E+02  0.19967840065E+02  0.77797053994E+02  0.15744467739E+03  0.12508693283E+03 0.  0.
         24    2    1    2    0    0  0.80525104586E+02 -0.14812755783E+02  0.56502004893E+03  0.57591052347E+03  0.75641028191E+02 0.  0.
        -13    1    5    5    0    0 -0.10536731123E+02  0.55048911590E+01  0.15288438658E+03  0.15334589069E+03  0.00000000000E+00 0.  1.
         14    1    5    5    0    0  0.91061835709E+02 -0.20317646942E+02  0.41213566235E+03  0.42256463279E+03  0.00000000000E+00 0. -1.
         11    1    3    3    0    0 -0.50039388706E+02 -0.24046181680E+01 -0.21057315766E+02  0.54342737858E+02  0.00000000000E+00 0. -1.
        -12    1    3    3    0    0  0.21389031585E+02 -0.27504661144E+01 -0.59985048887E+02  0.63743719894E+02  0.00000000000E+00 0.  1.
          5    1    4    4  501    0 -0.15188429434E+02 -0.39567974175E+02  0.76289755033E+02  0.87372261570E+02  0.41800000000E+01 0. -1.
         -5    1    4    4    0  501 -0.36686318031E+02  0.59535814241E+02  0.15072989613E+01  0.70072415815E+02  0.41800000000E+01 0. -1.
</event>
<event>
11    1  0.8328696E-009  0.1322582E+03  0.7561462E-02  0.1116525E+00
         22   -1    0    0    0    0  0.00000000000E+00  0.00000000000E+00  0.92507746086E+03  0.92507746086E+03  0.00000000000E+00 0. -1.
         22   -1    0    0    0    0 -0.00000000000E+00 -0.00000000000E+00 -0.34362313166E+02  0.34362313166E+02  0.00000000000E+00 0. -1.
         24    2    1    2    0    0  0.40138582316E+02 -0.64965302560E+01  0.58939558208E+02  0.94255499489E+02  0.61293694345E+02 0.  0.
         25    2    1    2    0    0 -0.44754676090E+02  0.41150887596E+02  0.32488310659E+03  0.35340006422E+03  0.12508475472E+03 0.  0.
        -24    2    1    2    0    0  0.46160937746E+01 -0.34654357340E+02  0.50689248290E+03  0.51178421032E+03  0.61325817604E+02 0.  0.
        -11    1    3    3    0    0 -0.11748036609E+02 -0.14272094311E+02  0.27357774678E+02  0.33017523765E+02  0.00000000000E+00 0.  1.
         12    1    3    3    0    0  0.51886618925E+02  0.77755640555E+01  0.31581783530E+02  0.61237975724E+02  0.00000000000E+00 0. -1.
         11    1    5    5    0    0  0.16237640160E+02 -0.24864259787E+02  0.47982447430E+03  0.48074256989E+03  0.00000000000E+00 0. -1.
        -12    1    5    5    0    0 -0.11621546386E+02 -0.97900975525E+01  0.27068008602E+02  0.31041640423E+02  0.00000000000E+00 0.  1.
          5    1    4    4  501    0  0.36152945500E+02  0.23257599301E+02  0.49031990444E+02  0.65341869276E+02  0.41800000000E+01 0. -1.
         -5    1    4    4    0  501 -0.80907621591E+02  0.17893288295E+02  0.27585111614E+03  0.28805819495E+03  0.41800000000E+01 0. -1.
</event>
<event>
11    1  0.8328696E-009  0.1368731E+03  0.7561462E-02  0.1111101E+00
         22   -1    0    0    0    0  0.00000000000E+00  0.00000000000E+00  0.12451683464E+04  0.12451683464E+04  0.00000000000E+00 0.  1.
         22   -1    0    0    0    0 -0.00000000000E+00 -0.00000000000E+00 -0.25988493885E+03  0.25988493885E+03  0.00000000000E+00 0.  1.
        -24    2    1    2    0    0 -0.99566558644E+01  0.54682695931E+02 -0.23595043937E+03  0.25530678864E+03  0.80122495298E+02 0.  0.
         25    2    1    2    0    0  0.32252159396E+02 -0.49650330712E+02  0.38777730234E+03  0.41173257938E+03  0.12508846304E+03 0.  0.
         24    2    1    2    0    0 -0.22295503532E+02 -0.50323652198E+01  0.83345654461E+03  0.83801391726E+03  0.84232414142E+02 0.  0.
        -11    1    5    5    0    0 -0.21781882724E+02 -0.12117988880E+02  0.82951523813E+03  0.82988964709E+03  0.00000000000E+00 0.  1.
         12    1    5    5    0    0 -0.51362080781E+00  0.70856236601E+01  0.39413064880E+01  0.81242701715E+01  0.00000000000E+00 0. -1.
         11    1    3    3    0    0  0.63399733254E+01 -0.12083639278E+02 -0.11806186201E+03  0.11884785594E+03  0.00000000000E+00 0. -1.
        -12    1    3    3    0    0 -0.16296629190E+02  0.66766335209E+02 -0.11788857737E+03  0.13645893270E+03  0.00000000000E+00 0.  1.
          5    1    4    4  501    0 -0.49180030506E+01  0.23331013340E+02  0.25164676564E+03  0.25280840571E+03  0.41800000000E+01 0. -1.
         -5    1    4    4    0  501  0.37170162446E+02 -0.72981344052E+02  0.13613053670E+03  0.15892417367E+03  0.41800000000E+01 0. -1.
</event>
<event>
11    1  0.8328696E-009  0.2540334E+03  0.7561462E-02  0.1021772E+00
         22   -1    0    0    0    0  0.00000000000E+00  0.00000000000E+00  0.10977592105E+04  0.10977592105E+04  0.00000000000E+00 0. -1.
         22   -1    0    0    0    0 -0.00000000000E+00 -0.00000000000E+00 -0.89894502615E+03  0.89894502615E+03  0.00000000000E+00 0.  1.
        -24    2    1    2    0    0 -0.86531601640E+02 -0.10251121505E+03 -0.68512535977E+03  0.70265086495E+03  0.79531202224E+02 0.  0.
         25    2    1    2    0    0  0.27975570938E+03 -0.55342563871E+00 -0.68084436064E+02  0.31392028102E+03  0.12508752612E+03 0.  0.
         24    2    1    2    0    0 -0.19322410774E+03  0.10306464069E+03  0.95202398021E+03  0.98013309071E+03  0.79707845536E+02 0.  0.
        -13    1    5    5    0    0 -0.56183770839E+02  0.57595699067E+02  0.22611697399E+03  0.24000576365E+03  0.00000000000E+00 0.  1.
         14    1    5    5    0    0 -0.13704033690E+03  0.45468941619E+02  0.72590700621E+03  0.74012732706E+03  0.00000000000E+00 0. -1.
         11    1    3    3    0    0 -0.20579271949E+02  0.65480014434E+01 -0.44412180830E+02  0.49384456694E+02  0.00000000000E+00 0. -1.
        -12    1    3    3    0    0 -0.65952329691E+02 -0.10905921649E+03 -0.64071317894E+03  0.65326640826E+03  0.00000000000E+00 0.  1.
          5    1    4    4  501    0  0.17074031035E+03 -0.53998649635E+02 -0.10370370499E+02  0.17942442622E+03  0.41800000000E+01 0. -1.
         -5    1    4    4    0  501  0.10901539903E+03  0.53445223996E+02 -0.57714065565E+02  0.13449585480E+03  0.41800000000E+01 0. -1.
</event>
<event>
11    1  0.8328696E-009  0.2935272E+03  0.7561462E-02  0.1002968E+00
         22   -1    0    0    0    0  0.00000000000E+00  0.00000000000E+00  0.25578961553E+03  0.25578961553E+03  0.00000000000E+00 0. -1.
         22   -1    0    0    0    0 -0.00000000000E+00 -0.00000000000E+00 -0.95096064227E+03  0.95096064227E+03  0.00000000000E+00 0. -1.
        -24    2    1    2    0    0 -0.10489581906E+02  0.23975931470E+03 -0.36470965719E+03  0.44467724967E+03  0.84440286645E+02 0.  0.
         25    2    1    2    0    0  0.11386651716E+03 -0.28683779579E+03 -0.46281742595E+03  0.57016674695E+03  0.12509454320E+03 0.  0.
         24    2    1    2    0    0 -0.10337693525E+03  0.47078481087E+02  0.13235605640E+03  0.19190626118E+03  0.80041947070E+02 0.  0.
        -11    1    5    5    0    0 -0.35101829352E+02  0.15259880039E+02 -0.15074094088E+01  0.38305021156E+02  0.00000000000E+00 0.  1.
         12    1    5    5    0    0 -0.68275105898E+02  0.31818601048E+02  0.13386346581E+03  0.15360124002E+03  0.00000000000E+00 0. -1.
         11    1    3    3    0    0 -0.23715368072E+02  0.23974250351E+03 -0.34079336690E+03  0.41734758367E+03  0.00000000000E+00 0. -1.
        -12    1    3    3    0    0  0.13225786166E+02  0.16811193802E-01 -0.23916290296E+02  0.27329666003E+02  0.00000000000E+00 0.  1.
          5    1    4    4  501    0 -0.12494168560E+02 -0.19443340595E+02 -0.96646492196E+02  0.99459361527E+02  0.41800000000E+01 0.  1.
         -5    1    4    4    0  501  0.12636068572E+03 -0.26739445519E+03 -0.36617093376E+03  0.47070738542E+03  0.41800000000E+01 0.  1.
</event>
<event>
11    1  0.8328696E-009  0.1393042E+03  0.7561462E-02  0.1108338E+00
         22   -1    0    0    0    0  0.00000000000E+00  0.00000000000E+00  0.40731334765E+03  0.40731334765E+03  0.00000000000E+00 0. -1.
         22   -1    0    0    0    0 -0.00000000000E+00 -0.00000000000E+00 -0.80234028121E+03  0.80234028121E+03  0.00000000000E+00 0. -1.
        -24    2    1    2    0    0 -0.15320006987E+02 -0.58146335176E+02 -0.72261862994E+03  0.72966971479E+03  0.81391089489E+02 0.  0.
         25    2    1    2    0    0  0.45942053355E+02  0.79788842646E+02  0.16283796134E+02  0.15618634818E+03  0.12510827976E+03 0.  0.
         24    2    1    2    0    0 -0.30622046368E+02 -0.21642507470E+02  0.31130790024E+03  0.32379756589E+03  0.80784571996E+02 0.  0.
        -11    1    5    5    0    0  0.18315929643E+02 -0.17914862686E+02  0.36219302718E+02  0.44365002796E+02  0.00000000000E+00 0.  1.
         12    1    5    5    0    0 -0.48937976012E+02 -0.37276447841E+01  0.27508859752E+03  0.27943256309E+03  0.00000000000E+00 0. -1.
         11    1    3    3    0    0  0.16987767540E+02 -0.47644343975E+02 -0.60858274763E+03  0.61068120036E+03  0.00000000000E+00 0. -1.
        -12    1    3    3    0    0 -0.32307774527E+02 -0.10501991200E+02 -0.11403588230E+03  0.11898851443E+03  0.00000000000E+00 0.  1.
          5    1    4    4  501    0  0.44660413725E+02 -0.11918967092E+02 -0.28050932238E+02  0.54230448367E+02  0.41800000000E+01 0.  1.
         -5    1    4    4    0  501  0.12816396304E+01  0.91707809738E+02  0.44334728372E+02  0.10195589981E+03  0.41800000000E+01 0.  1.
</event>
<event>
11    1  0.8328696E-009  0.1536604E+03  0.7561462E-02  0.1093196E+00
         22   -1    0    0    0    0  0.00000000000E+00  0.00000000000E+00  0.32860403836E+03  0.32860403836E+03  0.00000000000E+00 0.  1.
         22   -1    0    0    0    0 -0.00000000000E+00 -0.00000000000E+00 -0.11418949562E+04  0.11418949562E+04  0.00000000000E+00 0.  1.
         24    2    1    2    0    0 -0.50707544773E+01 -0.45576412263E+02 -0.99469329368E+03  0.99903197320E+03  0.80914850738E+02 0.  0.
         25    2    1    2    0    0  0.70627264363E+02 -0.18568985380E+02 -0.92215755809E+02  0.17171439662E+03  0.12509624574E+03 0.  0.
        -24    2    1    2    0    0 -0.65556509886E+02  0.64145397643E+02  0.27361813169E+03  0.29975262471E+03  0.81070746883E+02 0.  0.
        -11    1    3    3    0    0  0.32719624414E+02 -0.16436308871E+02 -0.65258591420E+03  0.65361234802E+03  0.00000000000E+00 0.  1.
         12    1    3    3    0    0 -0.37790378891E+02 -0.29140103392E+02 -0.34210737948E+03  0.34541962518E+03  0.00000000000E+00 0. -1.
         13    1    5    5    0    0  0.89833204228E+01 -0.11945801246E+02  0.47613205880E+02  0.49904103914E+02  0.00000000000E+00 0. -1.
        -14    1    5    5    0    0 -0.74539830309E+02  0.76091198889E+02  0.22600492581E+03  0.24984852079E+03  0.00000000000E+00 0.  1.
          5    1    4    4  501    0  0.84357906362E+02 -0.50553838667E+02 -0.94669110403E+02  0.13657107979E+03  0.41800000000E+01 0.  1.
         -5    1    4    4    0  501 -0.13730641998E+02  0.31984853286E+02  0.24533545939E+01  0.35143316835E+02  0.41800000000E+01 0.  1.
</event>
<event>
11    1  0.8328696E-009  0.1329318E+03  0.7561462E-02  0.1115718E+00
         22   -1    0    0    0    0  0.00000000000E+00  0.00000000000E+00  0.11904448833E+04  0.11904448833E+04  0.00000000000E+00 0. -1.
         22   -1    0    0    0    0 -0.00000000000E+00 -0.00000000000E+00 -0.10417078409E+04  0.10417078409E+04  0.00000000000E+00 0. -1.
         24    2    1    2    0    0 -0.39841838645E+02 -0.14585724500E+02 -0.88029893401E+03  0.88474321876E+03  0.77744674797E+02 0.  0.
         25    2    1    2    0    0  0.61915448827E+02 -0.24515015905E+02 -0.12527245343E+03  0.18914145281E+03  0.12508714072E+03 0.  0.
        -24    2    1    2    0    0 -0.22073610182E+02  0.39100740405E+02  0.11543084299E+04  0.11582680526E+04  0.84503362092E+02 0.  0.
        -13    1    3    3    0    0 -0.39266625937E+02 -0.25784605859E+02 -0.25180858387E+03  0.25615283860E+03  0.00000000000E+00 0.  1.
         14    1    3    3    0    0 -0.57521270767E+00  0.11198881360E+02 -0.62849035014E+03  0.62859038016E+03  0.00000000000E+00 0. -1.
         11    1    5    5    0    0 -0.19743084435E+02  0.11605774894E+02  0.10535692234E+04  0.10538181019E+04  0.00000000000E+00 0. -1.
        -12    1    5    5    0    0 -0.23305257471E+01  0.27494965511E+02  0.10073920653E+03  0.10444995075E+03  0.00000000000E+00 0.  1.
          5    1    4    4  501    0  0.23954682008E+02  0.40508435440E+02 -0.54432378833E+01  0.47559030379E+02  0.41800000000E+01 0. -1.
         -5    1    4    4    0  501  0.37960766819E+02 -0.65023451345E+02 -0.11982921555E+03  0.14158242243E+03  0.41800000000E+01 0. -1.
</event>
<event>
11    1  0.8328696E-009  0.1715562E+03  0.7561462E-02  0.1076685E+00
         22   -1    0    0    0    0  0.00000000000E+00  0.00000000000E+00  0.22386073150E+04  0.22386073150E+04  0.00000000000E+00 0.  1.
         22   -1    0    0    0    0 -0.00000000000E+00 -0.00000000000E+00 -0.15854108198E+04  0.15854108198E+04  0.00000000000E+00 0. -1.
         24    2    1    2    0    0  0.34885918938E+02 -0.19272284654E+02 -0.13895256621E+04  0.13923659242E+04  0.79453464671E+02 0.  0.
         25    2    1    2    0    0 -0.17649503695E+01  0.13179882006E+03 -0.14914093742E+03  0.23508431226E+03  0.12509024998E+03 0.  0.
        -24    2    1    2    0    0 -0.33120968568E+02 -0.11252653541E+03  0.21918630946E+04  0.21965678983E+04  0.82990881677E+02 0.  0.
        -13    1    3    3    0    0  0.37134373829E+02 -0.26433570390E+02 -0.36793702885E+03  0.37074971688E+03  0.00000000000E+00 0.  1.
         14    1    3    3    0    0 -0.22484548914E+01  0.71612857358E+01 -0.10215886332E+04  0.10216162073E+04  0.00000000000E+00 0. -1.
         11    1    5    5    0    0 -0.27003246083E+02 -0.38989105801E+02  0.34658226184E+03  0.34981222091E+03  0.00000000000E+00 0. -1.
        -12    1    5    5    0    0 -0.61177224852E+01 -0.73537429610E+02  0.18452808328E+04  0.18467556774E+04  0.00000000000E+00 0.  1.
          5    1    4    4  501    0  0.27663940560E+01  0.15596956542E+03 -0.13541446487E+03  0.20661245841E+03  0.41800000000E+01 0. -1.
         -5    1    4    4    0  501 -0.45313444255E+01 -0.24170745356E+02 -0.13726472543E+02  0.28471853853E+02  0.41800000000E+01 0. -1.
</event>
<event>
11    1  0.8328696E-009  0.1286880E+03  0.7561462E-02  0.1120892E+00
         22   -1    0    0    0    0  0.00000000000E+00  0.00000000000E+00  0.22522581580E+03  0.22522581580E+03  0.00000000000E+00 0. -1.
         22   -1    0    0    0    0 -0.00000000000E+00 -0.00000000000E+00 -0.22125507581E+04  0.22125507581E+04  0.00000000000E+00 0. -1.
         24    2    1    2    0    0 -0.19494432994E+02 -0.24195761471E+02 -0.20888997777E+04  0.20914728298E+04  0.98948717572E+02 0.  0.
         25    2    1    2    0    0 -0.36704643193E+02  0.32001998723E+02 -0.67997987893E+02  0.15047301346E+03  0.12508813960E+03 0.  0.
        -24    2    1    2    0    0  0.56199076187E+02 -0.78062372527E+01  0.16957282327E+03  0.19583073066E+03  0.79846472524E+02 0.  0.
        -11    1    3    3    0    0 -0.26818409080E+02 -0.59159720517E+02 -0.15711758531E+04  0.15725179366E+04  0.00000000000E+00 0.  1.
         12    1    3    3    0    0  0.73239760867E+01  0.34963959047E+02 -0.51772392456E+03  0.51895489315E+03  0.00000000000E+00 0. -1.
         11    1    5    5    0    0  0.51436241653E+02 -0.13574443090E+02  0.17728041832E+03  0.18508997590E+03  0.00000000000E+00 0. -1.
        -12    1    5    5    0    0  0.47628345337E+01  0.57682058377E+01 -0.77075950464E+01  0.10740754758E+02  0.00000000000E+00 0.  1.
          5    1    4    4  501    0 -0.21474176008E+02 -0.42369154425E+02  0.11555264284E+01  0.47697936258E+02  0.41800000000E+01 0. -1.
         -5    1    4    4    0  501 -0.15230467185E+02  0.74371153149E+02 -0.69153514321E+02  0.10277507720E+03  0.41800000000E+01 0. -1.
</event>
<event>
11    1  0.8328696E-009  0.1398365E+03  0.7561462E-02  0.1107741E+00
         22   -1    0    0    0    0  0.00000000000E+00  0.00000000000E+00  0.62756759924E+03  0.62756759924E+03  0.00000000000E+00 0.  1.
         22   -1    0    0    0    0 -0.00000000000E+00 -0.00000000000E+00 -0.16136584567E+04  0.16136584567E+04  0.00000000000E+00 0. -1.
         24    2    1    2    0    0 -0.40914887318E+01 -0.39668736343E+02 -0.11807378949E+04  0.11840399358E+04  0.78855844949E+02 0.  0.
         25    2    1    2    0    0  0.33172014716E+02 -0.16015920060E+02 -0.41716005240E+03  0.43706672994E+03  0.12509166580E+03 0.  0.
        -24    2    1    2    0    0 -0.29080525984E+02  0.55684656403E+02  0.61180708977E+03  0.62011939023E+03  0.79332749169E+02 0.  0.
        -13    1    3    3    0    0  0.24340475672E+02 -0.14329234961E+00 -0.13551871097E+03  0.13768732807E+03  0.00000000000E+00 0.  1.
         14    1    3    3    0    0 -0.28431964404E+02 -0.39525443994E+02 -0.10452191839E+04  0.10463526077E+04  0.00000000000E+00 0. -1.
         11    1    5    5    0    0 -0.77928324542E+00  0.67867146603E+02  0.35129212421E+03  0.35778864348E+03  0.00000000000E+00 0. -1.
        -12    1    5    5    0    0 -0.28301242738E+02 -0.12182490200E+02  0.26051496557E+03  0.26233074675E+03  0.00000000000E+00 0.  1.
          5    1    4    4  501    0  0.78102567621E+02  0.45719788873E+01 -0.29486737419E+03  0.30509859852E+03  0.41800000000E+01 0. -1.
         -5    1    4    4    0  501 -0.44930552906E+02 -0.20587898947E+02 -0.12229267821E+03  0.13196813142E+03  0.41800000000E+01 0. -1.
</event>
<event>
11    1  0.8328696E-009  0.1465476E+03  0.7561462E-02  0.1100460E+00
         22   -1    0    0    0    0  0.00000000000E+00  0.00000000000E+00  0.11067034492E+03  0.11067034492E+03  0.00000000000E+00 0.  1.
         22   -1    0    0    0    0 -0.00000000000E+00 -0.00000000000E+00 -0.29480245747E+04  0.29480245747E+04  0.00000000000E+00 0.  1.
        -24    2    1    2    0    0 -0.21768639001E+02 -0.13368465790E+01 -0.18701225816E+04  0.18723330218E+04  0.88299567313E+02 0.  0.
         25    2    1    2    0    0  0.24667598262E+02  0.77538517328E+02 -0.10407978881E+04  0.10514429448E+04  0.12510519632E+03 0.  0.
         24    2    1    2    0    0 -0.28989592609E+01 -0.76201670749E+02  0.73566239926E+02  0.13491895304E+03  0.83522653469E+02 0.  0.
        -13    1    5    5    0    0  0.26792561898E+01 -0.66102043058E+02  0.91912916826E+02  0.11324593940E+03  0.00000000000E+00 0.  1.
         14    1    5    5    0    0 -0.55782154507E+01 -0.10099627690E+02 -0.18346676900E+02  0.21673013643E+02  0.00000000000E+00 0. -1.
         11    1    3    3    0    0  0.59755469559E+01 -0.72942810397E+01 -0.21313705698E+02  0.23306388564E+02  0.00000000000E+00 0. -1.
        -12    1    3    3    0    0 -0.27744185957E+02  0.59574344607E+01 -0.18488088759E+04  0.18490266333E+04  0.00000000000E+00 0.  1.
          5    1    4    4  501    0  0.39977225891E+02  0.29469193087E+02 -0.12980467239E+03  0.13904437171E+03  0.41800000000E+01 0.  1.
         -5    1    4    4    0  501 -0.15309627629E+02  0.48069324240E+02 -0.91099321575E+03  0.91239857309E+03  0.41800000000E+01 0.  1.
</event>
<event>
11    1  0.8967827E-009  0.2738701E+03  0.7561462E-02  0.1011899E+00
         22   -1    0    0    0    0  0.00000000000E+00  0.00000000000E+00  0.28728945567E+04  0.28728945567E+04  0.00000000000E+00 0.  1.
         22   -1    0    0    0    0 -0.00000000000E+00 -0.00000000000E+00 -0.12588838705E+04  0.12588838705E+04  0.00000000000E+00 0.  1.
        -24    2    1    2    0    0 -0.27639755252E+02 -0.91284579318E+02 -0.11122932910E+04  0.11194205203E+04  0.82517305662E+02 0.  0.
         25    2    1    2    0    0  0.26714099747E+03  0.12536760984E+03  0.50425920180E+02  0.32445711484E+03  0.12509314856E+03 0.  0.
         24    2    1    2    0    0 -0.23950124222E+03 -0.34083030526E+02  0.26758780570E+04  0.26879007920E+04  0.77232076040E+02 0.  0.
        -11    1    5    5    0    0 -0.22709283531E+03 -0.17506446361E+02  0.22447393869E+04  0.22562651765E+04  0.00000000000E+00 0.  1.
         12    1    5    5    0    0 -0.12408406910E+02 -0.16576584165E+02  0.43113867011E+03  0.43163561550E+03  0.00000000000E+00 0. -1.
         11    1    3    3    0    0 -0.87657776144E+01 -0.61346067252E+02 -0.29883070729E+03  0.30518841794E+03  0.00000000000E+00 0. -1.
        -12    1    3    3    0    0 -0.18873977637E+02 -0.29938512066E+02 -0.81346258367E+03  0.81423210240E+03  0.00000000000E+00 0.  1.
          5    1    4    4  501    0  0.64541071762E+02  0.95532670618E+02  0.11220620068E+02  0.11591124110E+03  0.41800000000E+01 0.  1.
         -5    1    4    4    0  501  0.20259992571E+03  0.29834939225E+02  0.39205300112E+02  0.20854587373E+03  0.41800000000E+01 0.  1.
</event>
<event>
11    1  0.8328696E-009  0.1471013E+03  0.7561462E-02  0.1099878E+00
         22   -1    0    0    0    0  0.00000000000E+00  0.00000000000E+00  0.65971348353E+03  0.65971348353E+03  0.00000000000E+00 0.  1.
         22   -1    0    0    0    0 -0.00000000000E+00 -0.00000000000E+00 -0.50444321097E+03  0.50444321097E+03  0.00000000000E+00 0. -1.
        -24    2    1    2    0    0  0.18241514964E+02  0.76028387640E+02 -0.43314445487E+03  0.44738325437E+03  0.80153533345E+02 0.  0.
         25    2    1    2    0    0  0.41819878858E+02 -0.18383189228E+02  0.17685849122E+02  0.13436637238E+03  0.12511869906E+03 0.  0.
         24    2    1    2    0    0 -0.60061393822E+02 -0.57645198412E+02  0.57072887830E+03  0.58240706776E+03  0.80846769368E+02 0.  0.
        -13    1    5    5    0    0 -0.46843884120E+02  0.84538702570E+01  0.27536931985E+03  0.27945317983E+03  0.00000000000E+00 0.  1.
         14    1    5    5    0    0 -0.13217509702E+02 -0.66099068669E+02  0.29535955845E+03  0.30295388793E+03  0.00000000000E+00 0. -1.
         13    1    3    3    0    0  0.42362497217E+02  0.75652731854E+02 -0.36280495210E+03  0.37302191662E+03  0.00000000000E+00 0. -1.
        -14    1    3    3    0    0 -0.24120982253E+02  0.37565578572E+00 -0.70339502770E+02  0.74361337750E+02  0.00000000000E+00 0.  1.
          5    1    4    4  501    0 -0.18821853133E+02  0.15692635708E+02 -0.37832434328E+02  0.45269045252E+02  0.41800000000E+01 0. -1.
         -5    1    4    4    0  501  0.60641731991E+02 -0.34075824936E+02  0.55518283451E+02  0.89097327127E+02  0.41800000000E+01 0. -1.
</event>
<event>
11    1  0.8328696E-009  0.1724879E+03  0.7561462E-02  0.1075887E+00
         22   -1    0    0    0    0  0.00000000000E+00  0.00000000000E+00  0.33402550915E+03  0.33402550915E+03  0.00000000000E+00 0.  1.
         22   -1    0    0    0    0 -0.00000000000E+00 -0.00000000000E+00 -0.19289490214E+04  0.19289490214E+04  0.00000000000E+00 0. -1.
        -24    2    1    2    0    0 -0.11955427718E+03  0.56708512091E+02 -0.13431023456E+04  0.13520001042E+04  0.80444331591E+02 0.  0.
         25    2    1    2    0    0  0.67054052055E+02 -0.60167582044E+02 -0.56339543975E+03  0.58410484103E+03  0.12509060695E+03 0.  0.
         24    2    1    2    0    0  0.52500225121E+02  0.34590699536E+01  0.31157427308E+03  0.32686958533E+03  0.83647829405E+02 0.  0.
        -11    1    5    5    0    0  0.52935851394E+02  0.55678818601E+01  0.31678801843E+03  0.32122866356E+03  0.00000000000E+00 0.  1.
         12    1    5    5    0    0 -0.43562627244E+00 -0.21088119065E+01 -0.52137453461E+01  0.56409217722E+01  0.00000000000E+00 0. -1.
         13    1    3    3    0    0 -0.80781240971E+02  0.62777298465E+02 -0.11719021459E+04  0.11763593149E+04  0.00000000000E+00 0. -1.
        -14    1    3    3    0    0 -0.38773036205E+02 -0.60687863743E+01 -0.17120019967E+03  0.17564078932E+03  0.00000000000E+00 0.  1.
          5    1    4    4  501    0  0.73758845394E+02  0.79067219337E+01 -0.40126104457E+03  0.40808183225E+03  0.41800000000E+01 0.  1.
         -5    1    4    4    0  501 -0.67047933391E+01 -0.68074303978E+02 -0.16213439519E+03  0.17602300877E+03  0.41800000000E+01 0.  1.
</event>
<event>
11    1  0.8328696E-009  0.1865228E+03  0.7561462E-02  0.1064485E+00
         22   -1    0    0    0    0  0.00000000000E+00  0.00000000000E+00  0.17728099661E+03  0.17728099661E+03  0.00000000000E+00 0. -1.
         22   -1    0    0    0    0 -0.00000000000E+00 -0.00000000000E+00 -0.79196136823E+03  0.79196136823E+03  0.00000000000E+00 0. -1.
         24    2    1    2    0    0 -0.52893013091E+02 -0.13091275570E+03 -0.58465257644E+03  0.60684057390E+03  0.80628943665E+02 0.  0.
         25    2    1    2    0    0  0.86521027674E+02  0.10008660836E+03 -0.13227168545E+03  0.22505012831E+03  0.12509414086E+03 0.  0.
        -24    2    1    2    0    0 -0.33628014583E+02  0.30826147338E+02  0.10224389027E+03  0.13735166263E+03  0.79564888029E+02 0.  0.
        -11    1    3    3    0    0 -0.26200445968E+02 -0.29263527155E+01 -0.51057855252E+02  0.57462435486E+02  0.00000000000E+00 0.  1.
         12    1    3    3    0    0 -0.26692567123E+02 -0.12798640299E+03 -0.53359472119E+03  0.54937813841E+03  0.00000000000E+00 0. -1.
         11    1    5    5    0    0 -0.48149051225E+02  0.17872910782E+02  0.10576617363E+03  0.11757659443E+03  0.00000000000E+00 0. -1.
        -12    1    5    5    0    0  0.14521036642E+02  0.12953236556E+02 -0.35222833616E+01  0.19775068205E+02  0.00000000000E+00 0.  1.
          5    1    4    4  501    0  0.75490620361E+02  0.12797690054E+03 -0.12422542806E+03  0.19371719131E+03  0.41800000000E+01 0. -1.
         -5    1    4    4    0  501  0.11030407313E+02 -0.27890292174E+02 -0.80462573922E+01  0.31332937001E+02  0.41800000000E+01 0. -1.
</event>
<event>
11    1  0.8328696E-009  0.1279313E+03  0.7561462E-02  0.1121837E+00
         22   -1    0    0    0    0  0.00000000000E+00  0.00000000000E+00  0.60011818755E+02  0.60011818755E+02  0.00000000000E+00 0. -1.
         22   -1    0    0    0    0 -0.00000000000E+00 -0.00000000000E+00 -0.10262244158E+04  0.10262244158E+04  0.00000000000E+00 0. -1.
         24    2    1    2    0    0  0.13764218346E+02  0.84028960604E+01 -0.49351179650E+03  0.50028167927E+03  0.80422651996E+02 0.  0.
         25    2    1    2    0    0 -0.38514118137E+02 -0.15602867034E+02 -0.48396174980E+03  0.50158862337E+03  0.12508151369E+03 0.  0.
        -24    2    1    2    0    0  0.24749899791E+02  0.71999709741E+01  0.11260949214E+02  0.84365931964E+02  0.79538697357E+02 0.  0.
        -11    1    3    3    0    0  0.22438654190E+02 -0.32897498215E+02 -0.23855448188E+03  0.24185528611E+03  0.00000000000E+00 0.  1.
         12    1    3    3    0    0 -0.86744358441E+01  0.41300394275E+02 -0.25495731462E+03  0.25842639316E+03  0.00000000000E+00 0. -1.
         13    1    5    5    0    0  0.33708910866E+02  0.88674923174E+01  0.40678494758E+02  0.53569235831E+02  0.00000000000E+00 0. -1.
        -14    1    5    5    0    0 -0.89590110754E+01 -0.16675213433E+01 -0.29417545544E+02  0.30796696133E+02  0.00000000000E+00 0.  1.
          5    1    4    4  501    0 -0.74425863794E+02  0.17847172075E+02 -0.21745622190E+03  0.23056975429E+03  0.41800000000E+01 0.  1.
         -5    1    4    4    0  501  0.35911745657E+02 -0.33450039109E+02 -0.26650552791E+03  0.27101886908E+03  0.41800000000E+01 0.  1.
</event>
<event>
11    1  0.8328696E-009  0.3250865E+03  0.7561462E-02  0.9900996E-01
         22   -1    0    0    0    0  0.00000000000E+00  0.00000000000E+00  0.10499952098E+04  0.10499952098E+04  0.00000000000E+00 0.  1.
         22   -1    0    0    0    0 -0.00000000000E+00 -0.00000000000E+00 -0.82026420995E+03  0.82026420995E+03  0.00000000000E+00 0.  1.
         24    2    1    2    0    0 -0.10744742281E+02 -0.44492795864E+01 -0.68916834308E+03  0.69393992664E+03  0.80401312804E+02 0.  0.
         25    2    1    2    0    0 -0.87991136114E+02 -0.28086781017E+03  0.16457599870E+03  0.35966871675E+03  0.12508860713E+03 0.  0.
        -24    2    1    2    0    0  0.98735878394E+02  0.28531708976E+03  0.75432334426E+03  0.81665077637E+03  0.82220237588E+02 0.  0.
        -13    1    3    3    0    0  0.18889613408E+02  0.30739626020E+01 -0.58658795919E+03  0.58690007719E+03  0.00000000000E+00 0.  1.
         14    1    3    3    0    0 -0.29634355689E+02 -0.75232421885E+01 -0.10258038390E+03  0.10703984945E+03  0.00000000000E+00 0. -1.
         11    1    5    5    0    0  0.56895913872E+02  0.56508788751E+02  0.20345917210E+03  0.21869161605E+03  0.00000000000E+00 0. -1.
        -12    1    5    5    0    0  0.41839964523E+02  0.22880830101E+03  0.55086417216E+03  0.59795916032E+03  0.00000000000E+00 0.  1.
          5    1    4    4  501    0 -0.11129916423E+03 -0.26518324705E+03  0.16434440169E+03  0.33126456684E+03  0.41800000000E+01 0. -1.
         -5    1    4    4    0  501  0.23308028119E+02 -0.15684563122E+02  0.23159701427E+00  0.28404149914E+02  0.41800000000E+01 0. -1.
</event>
<event>
11    1  0.8328696E-009  0.1296759E+03  0.7561462E-02  0.1119668E+00
         22   -1    0    0    0    0  0.00000000000E+00  0.00000000000E+00  0.47566226120E+03  0.47566226120E+03  0.00000000000E+00 0.  1.
         22   -1    0    0    0    0 -0.00000000000E+00 -0.00000000000E+00 -0.11149279748E+04  0.11149279748E+04  0.00000000000E+00 0.  1.
         24    2    1    2    0    0 -0.28222226090E+02  0.96223812962E+01 -0.94509440981E+03  0.94881927359E+03  0.78520610103E+02 0.  0.
         25    2    1    2    0    0 -0.29823681839E+01 -0.24817494348E+02 -0.13883072706E+03  0.18853885217E+03  0.12509246762E+03 0.  0.
        -24    2    1    2    0    0  0.31204594274E+02  0.15195113051E+02  0.44465942323E+03  0.45323211028E+03  0.80577446956E+02 0.  0.
        -11    1    3    3    0    0  0.17028906143E+02 -0.48598002987E+01 -0.62181467094E+03  0.62206678605E+03  0.00000000000E+00 0.  1.
         12    1    3    3    0    0 -0.45251132233E+02  0.14482181595E+02 -0.32327973887E+03  0.32675248754E+03  0.00000000000E+00 0. -1.
         11    1    5    5    0    0 -0.21386131512E+02  0.12678479218E+02  0.59421835490E+02  0.64413236134E+02  0.00000000000E+00 0. -1.
        -12    1    5    5    0    0  0.52590725787E+02  0.25166338334E+01  0.38523758774E+03  0.38881887415E+03  0.00000000000E+00 0.  1.
          5    1    4    4  501    0 -0.31907801764E+01 -0.73773977688E+02 -0.10671248564E+03  0.12983762110E+03  0.41800000000E+01 0.  1.
         -5    1    4    4    0  501  0.20841199254E+00  0.48956483340E+02 -0.32118241416E+02  0.58701231063E+02  0.41800000000E+01 0.  1.
</event>
<event>
11    1  0.8328696E-009  0.1387858E+03  0.7561462E-02  0.1108922E+00
         22   -1    0    0    0    0  0.00000000000E+00  0.00000000000E+00  0.57502070547E+03  0.57502070547E+03  0.00000000000E+00 0. -1.
         22   -1    0    0    0    0 -0.00000000000E+00 -0.00000000000E+00 -0.25943781246E+04  0.25943781246E+04  0.00000000000E+00 0. -1.
        -24    2    1    2    0    0  0.32697083604E+02 -0.56968282993E+02 -0.19458884637E+04  0.19487873485E+04  0.83520847942E+02 0.  0.
         25    2    1    2    0    0 -0.60432107470E+02 -0.32845368677E+01 -0.63463653958E+03  0.64967291282E+03  0.12509407853E+03 0.  0.
         24    2    1    2    0    0  0.27735023867E+02  0.60252819861E+02  0.56116758416E+03  0.57093856872E+03  0.81622042934E+02 0.  0.
        -13    1    5    5    0    0 -0.81972827405E+01  0.98369839705E+01  0.98480373037E+01  0.16153808737E+02  0.00000000000E+00 0.  1.
         14    1    5    5    0    0  0.35932306607E+02  0.50415835890E+02  0.55131954686E+03  0.55478475999E+03  0.00000000000E+00 0. -1.
         13    1    3    3    0    0 -0.18010789852E+02 -0.33821088311E+02 -0.12788502717E+04  0.12794241954E+04  0.00000000000E+00 0. -1.
        -14    1    3    3    0    0  0.50707873456E+02 -0.23147194682E+02 -0.66703819205E+03  0.66936315309E+03  0.00000000000E+00 0.  1.
          5    1    4    4  501    0  0.98248732148E+01 -0.49783312608E+02 -0.17076467747E+03  0.17819358524E+03  0.41800000000E+01 0. -1.
         -5    1    4    4    0  501 -0.70256980685E+02  0.46498775740E+02 -0.46387186210E+03  0.47147932758E+03  0.41800000000E+01 0. -1.
</event>
<event>
11    1  0.8328696E-009  0.1999127E+03  0.7561462E-02  0.1054585E+00
         22   -1    0    0    0    0  0.00000000000E+00  0.00000000000E+00  0.30846323433E+03  0.30846323433E+03  0.00000000000E+00 0. -1.
         22   -1    0    0    0    0 -0.00000000000E+00 -0.00000000000E+00 -0.27297743405E+03  0.27297743405E+03  0.00000000000E+00 0. -1.
         24    2    1    2    0    0 -0.11884446545E+03  0.84626028601E+02 -0.48283781838E+00  0.16601979544E+03  0.79226054189E+02 0.  0.
         25    2    1    2    0    0 -0.57944540107E+01 -0.18708062877E+03 -0.23644099698E+02  0.22635968257E+03  0.12508766960E+03 0.  0.
        -24    2    1    2    0    0  0.12463891946E+03  0.10245460017E+03  0.59612737796E+02  0.18906119037E+03  0.78477065793E+02 0.  0.
        -11    1    3    3    0    0 -0.76546281724E+02  0.65753768199E+02  0.35916231709E+02  0.10711146987E+03  0.00000000000E+00 0.  1.
         12    1    3    3    0    0 -0.42298183726E+02  0.18872260402E+02 -0.36399069528E+02  0.58908325572E+02  0.00000000000E+00 0. -1.
         11    1    5    5    0    0 -0.91624578503E+00  0.28971372628E+02  0.27764256462E+02  0.40137686470E+02  0.00000000000E+00 0. -1.
        -12    1    5    5    0    0  0.12555516525E+03  0.73483227542E+02  0.31848481334E+02  0.14892350390E+03  0.00000000000E+00 0.  1.
          5    1    4    4  501    0 -0.11102474666E+02 -0.20063086498E+03 -0.33113081052E+01  0.20100857217E+03  0.41800000000E+01 0.  1.
         -5    1    4    4    0  501  0.53080206557E+01  0.13550236207E+02 -0.20332791593E+02  0.25351110400E+02  0.41800000000E+01 0.  1.
</event>
<event>
11    1  0.8328696E-009  0.1288775E+03  0.7561462E-02  0.1120656E+00
         22   -1    0    0    0    0  0.00000000000E+00  0.00000000000E+00  0.73056728657E+02  0.73056728657E+02  0.00000000000E+00 0.  1.
         22   -1    0    0    0    0 -0.00000000000E+00 -0.00000000000E+00 -0.13322611004E+04  0.13322611004E+04  0.00000000000E+00 0.  1.
         24    2    1    2    0    0  0.19827449937E+02  0.23061987779E+02 -0.10337020169E+04  0.10361188539E+04  0.63854809795E+02 0.  0.
         25    2    1    2    0    0  0.95123561533E+01 -0.35506700492E+02 -0.24824140838E+03  0.28039756417E+03  0.12509111264E+03 0.  0.
        -24    2    1    2    0    0 -0.29339806090E+02  0.12444712713E+02  0.22739053500E+02  0.88801410962E+02  0.79705275477E+02 0.  0.
        -11    1    3    3    0    0 -0.61031879691E+01  0.17499316282E+02 -0.87646762198E+03  0.87666354285E+03  0.00000000000E+00 0.  1.
         12    1    3    3    0    0  0.25930637906E+02  0.55626714971E+01 -0.15723439487E+03  0.15945531106E+03  0.00000000000E+00 0. -1.
         11    1    5    5    0    0 -0.82593620637E+01 -0.38940576956E+01 -0.29102511366E+02  0.30501424800E+02  0.00000000000E+00 0. -1.
        -12    1    5    5    0    0 -0.21080444026E+02  0.16338770408E+02  0.51841564865E+02  0.58299986162E+02  0.00000000000E+00 0.  1.
          5    1    4    4  501    0 -0.41219883464E+01 -0.28082829410E+02  0.28143213183E+01  0.28827571873E+02  0.41800000000E+01 0. -1.
         -5    1    4    4    0  501  0.13634344500E+02 -0.74238710818E+01 -0.25105572970E+03  0.25156999230E+03  0.41800000000E+01 0. -1.
</event>
<event>
11    1  0.8328696E-009  0.2666157E+03  0.7561462E-02  0.1015402E+00
         22   -1    0    0    0    0  0.00000000000E+00  0.00000000000E+00  0.25125690227E+03  0.25125690227E+03  0.00000000000E+00 0.  1.
         22   -1    0    0    0    0 -0.00000000000E+00 -0.00000000000E+00 -0.28461246110E+04  0.28461246110E+04  0.00000000000E+00 0. -1.
         24    2    1    2    0    0  0.24430876916E+03  0.18673780406E+02 -0.20300687345E+04  0.20468836984E+04  0.92294763825E+02 0.  0.
         25    2    1    2    0    0 -0.21379981660E+03 -0.43324475268E+01 -0.78077372510E+03  0.81913713716E+03  0.12509559542E+03 0.  0.
        -24    2    1    2    0    0 -0.30508952564E+02 -0.14341332879E+02  0.21597475081E+03  0.23136067772E+03  0.75803695099E+02 0.  0.
        -13    1    3    3    0    0  0.15609234637E+02  0.13409713745E+02 -0.57057538039E+02  0.60655018554E+02  0.00000000000E+00 0.  1.
         14    1    3    3    0    0  0.22869953453E+03  0.52640666607E+01 -0.19730111964E+04  0.19862286799E+04  0.00000000000E+00 0. -1.
         11    1    5    5    0    0  0.25214584849E+01  0.21263079168E+02  0.19460914463E+02  0.28934468724E+02  0.00000000000E+00 0. -1.
        -12    1    5    5    0    0 -0.33030411049E+02 -0.35604412047E+02  0.19651383635E+03  0.20242620899E+03  0.00000000000E+00 0.  1.
          5    1    4    4  501    0 -0.14281041642E+02 -0.42089790010E+02 -0.14028397675E+03  0.14721604908E+03  0.41800000000E+01 0. -1.
         -5    1    4    4    0  501 -0.19951877496E+03  0.37757342484E+02 -0.64048974834E+03  0.67192108808E+03  0.41800000000E+01 0. -1.
</event>
<event>
11    1  0.8328696E-009  0.1539404E+03  0.7561462E-02  0.1092919E+00
         22   -1    0    0    0    0  0.00000000000E+00  0.00000000000E+00  0.40141524093E+03  0.40141524093E+03  0.00000000000E+00 0. -1.
         22   -1    0    0    0    0 -0.00000000000E+00 -0.00000000000E+00 -0.22898074406E+03  0.22898074406E+03  0.00000000000E+00 0. -1.
        -24    2    1    2    0    0 -0.53849339211E+02  0.69286668592E+02 -0.14392591241E+03  0.18624139293E+03  0.79188347636E+02 0.  0.
         25    2    1    2    0    0  0.64966413834E+02 -0.76224897553E+02  0.53292591607E+02  0.16887404053E+03  0.12508985296E+03 0.  0.
         24    2    1    2    0    0 -0.11117074623E+02  0.69382289604E+01  0.26306781767E+03  0.27528055152E+03  0.80018603964E+02 0.  0.
        -13    1    5    5    0    0  0.71703011364E+01 -0.33247666282E+02  0.79353917834E+02  0.86335767832E+02  0.00000000000E+00 0.  1.
         14    1    5    5    0    0 -0.18287375759E+02  0.40185895242E+02  0.18371389984E+03  0.18894478369E+03  0.00000000000E+00 0. -1.
         11    1    3    3    0    0 -0.73537241507E+02  0.48077342092E+02 -0.11980749731E+03  0.14856982575E+03  0.00000000000E+00 0. -1.
        -12    1    3    3    0    0  0.19687902295E+02  0.21209326500E+02 -0.24118415096E+02  0.37671567184E+02  0.00000000000E+00 0.  1.
          5    1    4    4  501    0  0.76027620209E+02 -0.96233482407E+02  0.14385313788E+02  0.12355359899E+03  0.41800000000E+01 0.  1.
         -5    1    4    4    0  501 -0.11061206375E+02  0.20008584854E+02  0.38907277819E+02  0.45320441543E+02  0.41800000000E+01 0.  1.
</event>
<event>
11    1  0.8328696E-009  0.2240432E+03  0.7561462E-02  0.1038714E+00
         22   -1    0    0    0    0  0.00000000000E+00  0.00000000000E+00  0.11329740364E+04  0.11329740364E+04  0.00000000000E+00 0.  1.
         22   -1    0    0    0    0 -0.00000000000E+00 -0.00000000000E+00 -0.74047237165E+03  0.74047237165E+03  0.00000000000E+00 0.  1.
         24    2    1    2    0    0  0.10991541801E+03 -0.14415709803E+03 -0.58257425356E+03  0.61502613267E+03  0.77470735945E+02 0.  0.
         25    2    1    2    0    0 -0.14675522326E+03  0.16195323348E+03 -0.25881684778E+02  0.25315891425E+03  0.12511446307E+03 0.  0.
        -24    2    1    2    0    0  0.36839805250E+02 -0.17796135455E+02  0.10009576031E+04  0.10052613611E+04  0.83429055380E+02 0.  0.
        -13    1    3    3    0    0  0.12209015517E+03 -0.13392486240E+03 -0.53751459839E+03  0.56724229236E+03  0.00000000000E+00 0.  1.
         14    1    3    3    0    0 -0.12174737159E+02 -0.10232235624E+02 -0.45059655174E+02  0.47783840314E+02  0.00000000000E+00 0. -1.
         11    1    5    5    0    0  0.63199978775E+02 -0.11609672241E+02  0.61254891262E+03  0.61591005201E+03  0.00000000000E+00 0. -1.
        -12    1    5    5    0    0 -0.26360173525E+02 -0.61864632142E+01  0.38840869048E+03  0.38935130912E+03  0.00000000000E+00 0.  1.
          5    1    4    4  501    0 -0.52922272780E+02  0.14127469878E+03 -0.39553033060E+02  0.15601673723E+03  0.41800000000E+01 0. -1.
         -5    1    4    4    0  501 -0.93832950481E+02  0.20678534706E+02  0.13671348282E+02  0.97142177026E+02  0.41800000000E+01 0. -1.
</event>
<event>
11    1  0.8328696E-009  0.2100418E+03  0.7561462E-02  0.1047641E+00
         22   -1    0    0    0    0  0.00000000000E+00  0.00000000000E+00  0.16489038079E+04  0.16489038079E+04  0.00000000000E+00 0. -1.
         22   -1    0    0    0    0 -0.00000000000E+00 -0.00000000000E+00 -0.84895097185E+03  0.84895097185E+03  0.00000000000E+00 0.  1.
         24    2    1    2    0    0 -0.15932332605E+03  0.55062718354E+02 -0.78695089826E+03  0.80875844816E+03  0.79891714379E+02 0.  0.
         25    2    1    2    0    0  0.15431464241E+03 -0.80231356644E+02  0.18034161788E+03  0.28003640824E+03  0.12508881384E+03 0.  0.
        -24    2    1    2    0    0  0.50086836400E+01  0.25168638290E+02  0.14065621165E+04  0.14090599234E+04  0.79839419636E+02 0.  0.
        -11    1    3    3    0    0 -0.84290977407E+02  0.65495195536E+01 -0.53034810261E+03  0.53704466762E+03  0.00000000000E+00 0.  1.
         12    1    3    3    0    0 -0.75032348642E+02  0.48513198800E+02 -0.25660279565E+03  0.27171378054E+03  0.00000000000E+00 0. -1.
         11    1    5    5    0    0  0.39083565953E+02  0.22764627718E+02  0.10161917621E+04  0.10171978425E+04  0.00000000000E+00 0. -1.
        -12    1    5    5    0    0 -0.34074882313E+02  0.24040105722E+01  0.39037035435E+03  0.39186208088E+03  0.00000000000E+00 0.  1.
          5    1    4    4  501    0  0.13050198788E+03 -0.49447501245E+02  0.19361440247E+03  0.23870448982E+03  0.41800000000E+01 0.  1.
         -5    1    4    4    0  501  0.23812654533E+02 -0.30783855399E+02 -0.13272784588E+02  0.41331918414E+02  0.41800000000E+01 0.  1.
</event>
<event>
11    1  0.8328696E-009  0.1476802E+03  0.7561462E-02  0.1099273E+00
         22   -1    0    0    0    0  0.00000000000E+00  0.00000000000E+00  0.14460407762E+04  0.14460407762E+04  0.00000000000E+00 0.  1.
         22   -1    0    0    0    0 -0.00000000000E+00 -0.00000000000E+00 -0.18808274258E+03  0.18808274258E+03  0.00000000000E+00 0. -1.
        -24    2    1    2    0    0  0.23179155145E+02  0.11749301795E+02 -0.16468377616E+03  0.18506667312E+03  0.80334351580E+02 0.  0.
         25    2    1    2    0    0 -0.95122295058E+02 -0.12020738877E+02  0.64309457693E+03  0.66212540812E+03  0.12508665805E+03 0.  0.
         24    2    1    2    0    0  0.71943139913E+02  0.27143708148E+00  0.77954723288E+03  0.78693143756E+03  0.79945669541E+02 0.  0.
        -13    1    5    5    0    0  0.50898859639E+02 -0.19595384752E+02  0.70273170030E+03  0.70484502951E+03  0.00000000000E+00 0.  1.
         14    1    5    5    0    0  0.21044280274E+02  0.19866821833E+02  0.76815532575E+02  0.82086408052E+02  0.00000000000E+00 0. -1.
         13    1    3    3    0    0  0.28665421003E+02 -0.26647493607E+02 -0.11828233048E+03  0.12458934537E+03  0.00000000000E+00 0. -1.
        -14    1    3    3    0    0 -0.54862658582E+01  0.38396795402E+02 -0.46401445675E+02  0.60477327743E+02  0.00000000000E+00 0.  1.
          5    1    4    4  501    0 -0.79117955563E+02 -0.63393681755E+02  0.46928100497E+03  0.48012555004E+03  0.41800000000E+01 0.  1.
         -5    1    4    4    0  501 -0.16004339495E+02  0.51372942878E+02  0.17381357196E+03  0.18199985808E+03  0.41800000000E+01 0.  1.
</event>
<event>
11    1  0.8328696E-009  0.1354964E+03  0.7561462E-02  0.1112694E+00
         22   -1    0    0    0    0  0.00000000000E+00  0.00000000000E+00  0.95001008742E+03  0.95001008742E+03  0.00000000000E+00 0.  1.
         22   -1    0    0    0    0 -0.00000000000E+00 -0.00000000000E+00 -0.35200157537E+03  0.35200157537E+03  0.00000000000E+00 0. -1.
        -24    2    1    2    0    0 -0.40358144138E+02 -0.24993168749E+02 -0.26757359048E+03  0.28582707219E+03  0.88589223881E+02 0.  0.
         25    2    1    2    0    0  0.89879846687E+02  0.35538455193E+02  0.13339714973E+02  0.15864247227E+03  0.12509243532E+03 0.  0.
         24    2    1    2    0    0 -0.49521702549E+02 -0.10545286444E+02  0.85224238757E+03  0.85754211833E+03  0.80608904302E+02 0.  0.
        -13    1    5    5    0    0 -0.35597013695E+02  0.10987876873E+02  0.77990045678E+03  0.78078973054E+03  0.00000000000E+00 0.  1.
         14    1    5    5    0    0 -0.13924688855E+02 -0.21533163318E+02  0.72341930783E+02  0.76752387790E+02  0.00000000000E+00 0. -1.
         13    1    3    3    0    0  0.12670927186E+02 -0.76239613185E+01 -0.18832030510E+03  0.18890001189E+03  0.00000000000E+00 0. -1.
        -14    1    3    3    0    0 -0.53029071324E+02 -0.17369207430E+02 -0.79253285389E+02  0.96927060294E+02  0.00000000000E+00 0.  1.
          5    1    4    4  501    0  0.90658606294E+02 -0.14819758896E+02  0.41389884908E+02  0.10084246686E+03  0.41800000000E+01 0.  1.
         -5    1    4    4    0  501 -0.77875960627E+00  0.50358214089E+02 -0.28050169935E+02  0.57800005417E+02  0.41800000000E+01 0.  1.
</event>
<event>
11    1  0.8328696E-009  0.1665116E+03  0.7561462E-02  0.1081108E+00
         22   -1    0    0    0    0  0.00000000000E+00  0.00000000000E+00  0.21583182424E+04  0.21583182424E+04  0.00000000000E+00 0. -1.
         22   -1    0    0    0    0 -0.00000000000E+00 -0.00000000000E+00 -0.49819990387E+02  0.49819990387E+02  0.00000000000E+00 0.  1.
         24    2    1    2    0    0  0.73354427720E+01 -0.56249942755E+02  0.54231854179E+02  0.11402535018E+03  0.82721349689E+02 0.  0.
         25    2    1    2    0    0  0.69613488230E+02  0.12750281288E+03  0.52347321055E+03  0.55747218148E+03  0.12509206978E+03 0.  0.
        -24    2    1    2    0    0 -0.76948931002E+02 -0.71252870121E+02  0.15307931873E+04  0.15366407012E+04  0.83299175627E+02 0.  0.
        -11    1    3    3    0    0  0.39638314390E+02 -0.12486399918E+02  0.73244496982E+01  0.42198977641E+02  0.00000000000E+00 0.  1.
         12    1    3    3    0    0 -0.32302871618E+02 -0.43763542836E+02  0.46907404480E+02  0.71826372534E+02  0.00000000000E+00 0. -1.
         11    1    5    5    0    0  0.13186482881E+02 -0.29410938080E+02  0.51162227772E+03  0.51263655905E+03  0.00000000000E+00 0. -1.
        -12    1    5    5    0    0 -0.90135413883E+02 -0.41841932041E+02  0.10191709096E+04  0.10240041421E+04  0.00000000000E+00 0.  1.
          5    1    4    4  501    0 -0.20975034152E+01  0.94240039528E+02  0.16238062333E+03  0.18780448292E+03  0.41800000000E+01 0. -1.
         -5    1    4    4    0  501  0.71710991645E+02  0.33262773347E+02  0.36109258722E+03  0.36966769856E+03  0.41800000000E+01 0. -1.
</event>
<event>
11    1  0.8328696E-009  0.2054510E+03  0.7561462E-02  0.1050734E+00
         22   -1    0    0    0    0  0.00000000000E+00  0.00000000000E+00  0.17197545374E+04  0.17197545374E+04  0.00000000000E+00 0.  1.
         22   -1    0    0    0    0 -0.00000000000E+00 -0.00000000000E+00 -0.61304886919E+03  0.61304886919E+03  0.00000000000E+00 0.  1.
        -24    2    1    2    0    0  0.15974025259E+03 -0.35870065738E+02 -0.57673486091E+03  0.60470114119E+03  0.78973162888E+02 0.  0.
         25    2    1    2    0    0 -0.12628877230E+03  0.72764796903E+02  0.42696485312E+03  0.46817773177E+03  0.12509129886E+03 0.  0.
         24    2    1    2    0    0 -0.33451480295E+02 -0.36894731165E+02  0.12564756760E+04  0.12599245336E+04  0.78730447481E+02 0.  0.
        -13    1    5    5    0    0 -0.11445282436E+01 -0.56470242428E+01  0.96384814360E+03  0.96386536547E+03  0.00000000000E+00 0.  1.
         14    1    5    5    0    0 -0.32306952052E+02 -0.31247706923E+02  0.29262753241E+03  0.29605916818E+03  0.00000000000E+00 0. -1.
         11    1    3    3    0    0  0.31249227907E+02  0.12735003386E+02 -0.49821317217E+02  0.60173567330E+02  0.00000000000E+00 0. -1.
        -12    1    3    3    0    0  0.12849102468E+03 -0.48605069123E+02 -0.52691354369E+03  0.54452757386E+03  0.00000000000E+00 0.  1.
          5    1    4    4  501    0 -0.20405568794E+02  0.58036345185E+02  0.60380434740E+02  0.86301065460E+02  0.41800000000E+01 0.  1.
         -5    1    4    4    0  501 -0.10588320350E+03  0.14728451718E+02  0.36658441838E+03  0.38187666631E+03  0.41800000000E+01 0.  1.
</event>
<event>
11    1  0.8328696E-009  0.1495336E+03  0.7561462E-02  0.1097356E+00
         22   -1    0    0    0    0  0.00000000000E+00  0.00000000000E+00  0.13071522087E+04  0.13071522087E+04  0.00000000000E+00 0.  1.
         22   -1    0    0    0    0 -0.00000000000E+00 -0.00000000000E+00 -0.55794255315E+02  0.55794255315E+02  0.00000000000E+00 0. -1.
         24    2    1    2    0    0  0.76871600607E+02  0.28398755504E+02  0.41416259933E+02  0.12403384865E+03  0.83386789897E+02 0.  0.
         25    2    1    2    0    0 -0.75471193326E+02 -0.31941307293E+02  0.43762833430E+03  0.46247282822E+03  0.12508560961E+03 0.  0.
        -24    2    1    2    0    0 -0.14004072809E+01  0.35425517892E+01  0.77231335916E+03  0.77643978715E+03  0.79851784685E+02 0.  0.
        -13    1    3    3    0    0  0.51094975736E+02  0.48135102789E+02  0.54663187247E+02  0.88970493457E+02  0.00000000000E+00 0.  1.
         14    1    3    3    0    0  0.25776624871E+02 -0.19736347285E+02 -0.13246927314E+02  0.35063355190E+02  0.00000000000E+00 0. -1.
         13    1    5    5    0    0 -0.19703697811E+02  0.90765848551E+01  0.58864927290E+02  0.62735155734E+02  0.00000000000E+00 0. -1.
        -14    1    5    5    0    0  0.18303290530E+02 -0.55340330659E+01  0.71344843187E+03  0.71370463142E+03  0.00000000000E+00 0.  1.
          5    1    4    4  501    0 -0.13078221092E+02 -0.20217412025E+02  0.36541200900E+03  0.36622833361E+03  0.41800000000E+01 0. -1.
         -5    1    4    4    0  501 -0.62392972234E+02 -0.11723895269E+02  0.72216325296E+02  0.96244494616E+02  0.41800000000E+01 0. -1.
</event>
<event>
11    1  0.8328696E-009  0.1414006E+03  0.7561462E-02  0.1106004E+00
         22   -1    0    0    0    0  0.00000000000E+00  0.00000000000E+00  0.33445117875E+03  0.33445117875E+03  0.00000000000E+00 0.  1.
         22   -1    0    0    0    0 -0.00000000000E+00 -0.00000000000E+00 -0.79686506984E+03  0.79686506984E+03  0.00000000000E+00 0.  1.
        -24    2    1    2    0    0 -0.18461509625E+02 -0.43268744866E+02 -0.40134644335E+03  0.41202166982E+03  0.80435546816E+02 0.  0.
         25    2    1    2    0    0  0.56971257611E+02  0.95560007222E+02 -0.36343267504E+03  0.40013558132E+03  0.12509090687E+03 0.  0.
         24    2    1    2    0    0 -0.38509747986E+02 -0.52291262356E+02  0.30236522729E+03  0.31915899744E+03  0.78869247283E+02 0.  0.
        -13    1    5    5    0    0 -0.29179838626E+02  0.16622479754E+01  0.20812384302E+03  0.21016602981E+03  0.00000000000E+00 0.  1.
         14    1    5    5    0    0 -0.93299093597E+01 -0.53953510332E+02  0.94241384269E+02  0.10899296764E+03  0.00000000000E+00 0. -1.
         11    1    3    3    0    0  0.10521259905E+02 -0.26058792331E+02 -0.38781552933E+02  0.47893281529E+02  0.00000000000E+00 0. -1.
        -12    1    3    3    0    0 -0.28982769530E+02 -0.17209952535E+02 -0.36256489042E+03  0.36412838829E+03  0.00000000000E+00 0.  1.
          5    1    4    4  501    0  0.98826894850E+00  0.10401402365E+03 -0.17800158420E+03  0.20620846289E+03  0.41800000000E+01 0. -1.
         -5    1    4    4    0  501  0.55982988662E+02 -0.84540164270E+01 -0.18543109084E+03  0.19392711843E+03  0.41800000000E+01 0. -1.
</event>
<event>
11    1  0.8328696E-009  0.1722299E+03  0.7561462E-02  0.1076107E+00
         22   -1    0    0    0    0  0.00000000000E+00  0.00000000000E+00  0.20854839545E+03  0.20854839545E+03  0.00000000000E+00 0.  1.
         22   -1    0    0    0    0 -0.00000000000E+00 -0.00000000000E+00 -0.75455130629E+03  0.75455130629E+03  0.00000000000E+00 0. -1.
        -24    2    1    2    0    0 -0.58836176930E+02  0.10400183573E+03 -0.61172911068E+03  0.62850809963E+03  0.80819854629E+02 0.  0.
         25    2    1    2    0    0  0.51412784288E+02 -0.98325452067E+02 -0.65672410163E+02  0.17964209593E+03  0.12508896138E+03 0.  0.
         24    2    1    2    0    0  0.74233926412E+01 -0.56763836631E+01  0.13139861000E+03  0.15494950618E+03  0.81586927058E+02 0.  0.
        -13    1    5    5    0    0 -0.35588835428E+02 -0.70864270519E+01  0.80466547745E+02  0.88270311892E+02  0.00000000000E+00 0.  1.
         14    1    5    5    0    0  0.43012228069E+02  0.14100433888E+01  0.50932062253E+02  0.66679194290E+02  0.00000000000E+00 0. -1.
         13    1    3    3    0    0 -0.16451288135E+02  0.99692901246E+02 -0.40280776980E+03  0.41528715229E+03  0.00000000000E+00 0. -1.
        -14    1    3    3    0    0 -0.42384888794E+02  0.43089344838E+01 -0.20892134087E+03  0.21322094735E+03  0.00000000000E+00 0.  1.
          5    1    4    4  501    0 -0.25942604784E+02  0.96397359947E+01  0.60545291202E+01  0.28636916313E+02  0.41800000000E+01 0.  1.
         -5    1    4    4    0  501  0.77355389073E+02 -0.10796518806E+03 -0.71726939283E+02  0.15100517962E+03  0.41800000000E+01 0.  1.
</event>
<event>
11    1  0.8954508E-009  0.1813463E+03  0.7561462E-02  0.1068559E+00
         22   -1    0    0    0    0  0.00000000000E+00  0.00000000000E+00  0.18385959342E+03  0.18385959342E+03  0.00000000000E+00 0.  1.
         22   -1    0    0    0    0 -0.00000000000E+00 -0.00000000000E+00 -0.22397777151E+04  0.22397777151E+04  0.00000000000E+00 0.  1.
         24    2    1    2    0    0 -0.79478752130E+02 -0.16072470819E+01 -0.17824161779E+04  0.17860687411E+04  0.81943037219E+02 0.  0.
         25    2    1    2    0    0  0.18513406408E+01 -0.10891195998E+03 -0.40160848788E+03  0.43451368407E+03  0.12509005402E+03 0.  0.
        -24    2    1    2    0    0  0.77627411489E+02  0.11051920706E+03  0.12810654416E+03  0.20305488332E+03  0.81114048358E+02 0.  0.
        -13    1    3    3    0    0 -0.13357322981E+02  0.22861612415E+02 -0.10340210659E+04  0.10343600129E+04  0.00000000000E+00 0.  1.
         14    1    3    3    0    0 -0.66121429149E+02 -0.24468859497E+02 -0.74839511198E+03  0.75170872824E+03  0.00000000000E+00 0. -1.
         13    1    5    5    0    0 -0.61251598589E+01  0.37291483781E+02  0.66929176311E+01  0.38379258621E+02  0.00000000000E+00 0. -1.
        -14    1    5    5    0    0  0.83752571348E+02  0.73227723279E+02  0.12141362653E+03  0.16467562470E+03  0.00000000000E+00 0.  1.
          5    1    4    4  501    0  0.10276378308E+02 -0.61434229119E+02 -0.51087949064E+02  0.80667337865E+02  0.41800000000E+01 0.  1.
         -5    1    4    4    0  501 -0.84250376675E+01 -0.47477730859E+02 -0.35052053882E+03  0.35384634620E+03  0.41800000000E+01 0.  1.
</event>
<event>
11    1  0.8328696E-009  0.1291861E+03  0.7561462E-02  0.1120273E+00
         22   -1    0    0    0    0  0.00000000000E+00  0.00000000000E+00  0.15724049585E+03  0.15724049585E+03  0.00000000000E+00 0. -1.
         22   -1    0    0    0    0 -0.00000000000E+00 -0.00000000000E+00 -0.42290013451E+03  0.42290013451E+03  0.00000000000E+00 0.  1.
         24    2    1    2    0    0  0.27770184472E+02  0.22078856159E+02 -0.28117613925E+03  0.29526557530E+03  0.82843706096E+02 0.  0.
         25    2    1    2    0    0  0.29062177481E+01 -0.27755797825E+02 -0.84000612019E+02  0.15324222239E+03  0.12509294740E+03 0.  0.
        -24    2    1    2    0    0 -0.30676402220E+02  0.56769416662E+01  0.99517112607E+02  0.13163283268E+03  0.80313620372E+02 0.  0.
        -11    1    3    3    0    0 -0.18897249508E+02  0.27977951097E+02 -0.18668739451E+03  0.18971572169E+03  0.00000000000E+00 0.  1.
         12    1    3    3    0    0  0.46667433980E+02 -0.58990949374E+01 -0.94488744739E+02  0.10554985361E+03  0.00000000000E+00 0. -1.
         13    1    5    5    0    0 -0.47939807154E+02  0.12664771220E+02  0.26386946199E+02  0.56168429475E+02  0.00000000000E+00 0. -1.
        -14    1    5    5    0    0  0.17263404934E+02 -0.69878295536E+01  0.73130166408E+02  0.75464403202E+02  0.00000000000E+00 0.  1.
          5    1    4    4  501    0 -0.40204400883E+02 -0.53217081679E+02 -0.77890806172E+02  0.10262992604E+03  0.41800000000E+01 0. -1.
         -5    1    4    4    0  501  0.43110618631E+02  0.25461283854E+02 -0.61098058470E+01  0.50612296349E+02  0.41800000000E+01 0. -1.
</event>
<event>
11    1  0.8328696E-009  0.6625998E+03  0.7561462E-02  0.9089310E-01
         22   -1    0    0    0    0  0.00000000000E+00  0.00000000000E+00  0.22138810401E+04  0.22138810401E+04  0.00000000000E+00 0.  1.
         22   -1    0    0    0    0 -0.00000000000E+00 -0.00000000000E+00 -0.78837264153E+03  0.78837264153E+03  0.00000000000E+00 0. -1.
         24    2    1    2    0    0 -0.19160561450E+03 -0.53587714065E+01 -0.53483983239E+03  0.57364946808E+03  0.79237856990E+02 0.  0.
         25    2    1    2    0    0  0.61286263062E+03 -0.43463877665E+03  0.73817865122E+03  0.10606912972E+04  0.12508731614E+03 0.  0.
        -24    2    1    2    0    0 -0.42125701611E+03  0.43999754806E+03  0.12221695798E+04  0.13679129164E+04  0.80199433657E+02 0.  0.
        -11    1    3    3    0    0  0.56799353652E+00 -0.12857932264E+02 -0.59531761978E+02  0.60907140164E+02  0.00000000000E+00 0.  1.
         12    1    3    3    0    0 -0.19217360804E+03  0.74991608575E+01 -0.47530807041E+03  0.51274232792E+03  0.00000000000E+00 0. -1.
         11    1    5    5    0    0 -0.18649793866E+03  0.23229955989E+03  0.52764557219E+03  0.60593268314E+03  0.00000000000E+00 0. -1.
        -12    1    5    5    0    0 -0.23475907746E+03  0.20769798817E+03  0.69452400760E+03  0.76198023326E+03  0.00000000000E+00 0.  1.
          5    1    4    4  501    0  0.43194572547E+03 -0.31374787054E+03  0.59885724421E+03  0.80228567690E+03  0.41800000000E+01 0.  1.
         -5    1    4    4    0  501  0.18091690515E+03 -0.12089090611E+03  0.13932140701E+03  0.25840562030E+03  0.41800000000E+01 0.  1.
</event>
<event>
11    1  0.8328696E-009  0.1917429E+03  0.7561462E-02  0.1060521E+00
         22   -1    0    0    0    0  0.00000000000E+00  0.00000000000E+00  0.77744427130E+03  0.77744427130E+03  0.00000000000E+00 0.  1.
         22   -1    0    0    0    0 -0.00000000000E+00 -0.00000000000E+00 -0.12826754223E+03  0.12826754223E+03  0.00000000000E+00 0. -1.
        -24    2    1    2    0    0 -0.11847098465E+03 -0.79303719114E+02 -0.13651011417E+02  0.16310000353E+03  0.78043622217E+02 0.  0.
         25    2    1    2    0    0  0.95457258033E+02  0.13579101237E+03  0.29236638771E+03  0.35872835586E+03  0.12512650192E+03 0.  0.
         24    2    1    2    0    0  0.23013726619E+02 -0.56487293258E+02  0.37046135278E+03  0.38388345414E+03  0.80027786118E+02 0.  0.
        -13    1    5    5    0    0 -0.11532685206E+02 -0.59564582299E+02  0.28978002759E+03  0.29606318022E+03  0.00000000000E+00 0.  1.
         14    1    5    5    0    0  0.34546411825E+02  0.30772890404E+01  0.80681325183E+02  0.87820273919E+02  0.00000000000E+00 0. -1.
         11    1    3    3    0    0 -0.13546707613E+02 -0.20300073478E+02 -0.33139313571E+02  0.41156049061E+02  0.00000000000E+00 0. -1.
        -12    1    3    3    0    0 -0.10492427704E+03 -0.59003645636E+02  0.19488302154E+02  0.12194395447E+03  0.00000000000E+00 0.  1.
          5    1    4    4  501    0  0.41987039011E+02 -0.13822001102E+02  0.98463532533E+02  0.10801156789E+03  0.41800000000E+01 0.  1.
         -5    1    4    4    0  501  0.53470219022E+02  0.14961301347E+03  0.19390285517E+03  0.25071678796E+03  0.41800000000E+01 0.  1.
</event>
<event>
11    1  0.8328696E-009  0.1339856E+03  0.7561462E-02  0.1114467E+00
         22   -1    0    0    0    0  0.00000000000E+00  0.00000000000E+00  0.12456865272E+04  0.12456865272E+04  0.00000000000E+00 0. -1.
         22   -1    0    0    0    0 -0.00000000000E+00 -0.00000000000E+00 -0.50204825694E+02  0.50204825694E+02  0.00000000000E+00 0. -1.
         24    2    1    2    0    0 -0.14502049984E+02 -0.34698646279E+02  0.64857401571E+02  0.11414328652E+03  0.86069168758E+02 0.  0.
         25    2    1    2    0    0  0.16793269699E+02  0.73129773685E+02  0.20372791634E+03  0.25056302641E+03  0.12508712405E+03 0.  0.
        -24    2    1    2    0    0 -0.22912197144E+01 -0.38431127407E+02  0.92689638362E+03  0.93118503999E+03  0.80538633505E+02 0.  0.
        -13    1    3    3    0    0 -0.20497908744E+02 -0.24244469554E+02  0.84963783959E+02  0.90701726287E+02  0.00000000000E+00 0.  1.
         14    1    3    3    0    0  0.59958587593E+01 -0.10454176725E+02 -0.20106382387E+02  0.23441560229E+02  0.00000000000E+00 0. -1.
         11    1    5    5    0    0  0.26518420824E+02 -0.29769568515E+02  0.79075804422E+03  0.79176242545E+03  0.00000000000E+00 0. -1.
        -12    1    5    5    0    0 -0.28809640538E+02 -0.86615588922E+01  0.13613833940E+03  0.13942261454E+03  0.00000000000E+00 0.  1.
          5    1    4    4  501    0 -0.33627339824E+01  0.23777815095E+02  0.19483718304E+03  0.19635603572E+03  0.41800000000E+01 0. -1.
         -5    1    4    4    0  501  0.20156003681E+02  0.49351958590E+02  0.88907332984E+01  0.54206990690E+02  0.41800000000E+01 0. -1.
</event>
<event>
11    1  0.8328696E-009  0.1660156E+03  0.7561462E-02  0.1081552E+00
         22   -1    0    0    0    0  0.00000000000E+00  0.00000000000E+00  0.69582172892E+02  0.69582172892E+02  0.00000000000E+00 0. -1.
         22   -1    0    0    0    0 -0.00000000000E+00 -0.00000000000E+00 -0.16039371783E+04  0.16039371783E+04  0.00000000000E+00 0. -1.
        -24    2    1    2    0    0  0.56632280407E+01 -0.99896945182E+02 -0.10493188483E+04  0.10574027288E+04  0.83779553900E+02 0.  0.
         25    2    1    2    0    0 -0.59382158161E+02  0.15509345334E+03 -0.45549316668E+03  0.50070186054E+03  0.12509239898E+03 0.  0.
         24    2    1    2    0    0  0.53718930120E+02 -0.55196508156E+02 -0.29542990380E+02  0.11541476181E+03  0.80718033901E+02 0.  0.
        -13    1    5    5    0    0  0.14672829378E+01 -0.19531588457E+02  0.25087679141E+02  0.31828093119E+02  0.00000000000E+00 0.  1.
         14    1    5    5    0    0  0.52251647182E+02 -0.35664919698E+02 -0.54630669521E+02  0.83586668690E+02  0.00000000000E+00 0. -1.
         11    1    3    3    0    0 -0.15213004840E+02 -0.10706407512E+03 -0.89635376873E+03  0.90285338257E+03  0.00000000000E+00 0. -1.
        -12    1    3    3    0    0  0.20876232881E+02  0.71671299342E+01 -0.15296507960E+03  0.15454934625E+03  0.00000000000E+00 0.  1.
          5    1    4    4  501    0  0.15153337861E+02  0.22506370125E+01 -0.15170253056E+03  0.15253137118E+03  0.41800000000E+01 0. -1.
         -5    1    4    4    0  501 -0.74535496022E+02  0.15284281633E+03 -0.30379063611E+03  0.34817048936E+03  0.41800000000E+01 0. -1.
</event>
<event>
11    1  0.8328696E-009  0.1504746E+03  0.7561462E-02  0.1096395E+00
         22   -1    0    0    0    0  0.00000000000E+00  0.00000000000E+00  0.10235826147E+04  0.10235826147E+04  0.00000000000E+00 0.  1.
         22   -1    0    0    0    0 -0.00000000000E+00 -0.00000000000E+00 -0.28880925656E+03  0.28880925656E+03  0.00000000000E+00 0. -1.
        -24    2    1    2    0    0 -0.18757748670E+01 -0.83417714809E+02 -0.25913924922E+03  0.28396673204E+03  0.80758409742E+02 0.  0.
         25    2    1    2    0    0  0.18816147295E+02  0.90046068680E+02  0.40634647086E+03  0.43500179615E+03  0.12508703526E+03 0.  0.
         24    2    1    2    0    0 -0.16940372428E+02 -0.66283538714E+01  0.58756613651E+03  0.59342334308E+03  0.81156564990E+02 0.  0.
        -11    1    5    5    0    0 -0.42483026970E+02 -0.22961308862E+01  0.50727335567E+03  0.50905435581E+03  0.00000000000E+00 0.  1.
         12    1    5    5    0    0  0.25542654542E+02 -0.43322229852E+01  0.80292780841E+02  0.84368987266E+02  0.00000000000E+00 0. -1.
         13    1    3    3    0    0  0.25346017576E+02  0.14197306798E+01 -0.79341296756E+02  0.83303527015E+02  0.00000000000E+00 0. -1.
        -14    1    3    3    0    0 -0.27221792443E+02 -0.84837445488E+02 -0.17979795246E+03  0.20066320503E+03  0.00000000000E+00 0.  1.
          5    1    4    4  501    0  0.44777856848E+02  0.37139160857E+02  0.60092315569E+02  0.83743253600E+02  0.41800000000E+01 0. -1.
         -5    1    4    4    0  501 -0.25961709553E+02  0.52906907823E+02  0.34625415529E+03  0.35125854255E+03  0.41800000000E+01 0. -1.
</event>
<event>
11    1  0.8328696E-009  0.1282960E+03  0.7561462E-02  0.1121381E+00
         22   -1    0    0    0    0  0.00000000000E+00  0.00000000000E+00  0.23825594415E+04  0.23825594415E+04  0.00000000000E+00 0. -1.
         22   -1    0    0    0    0 -0.00000000000E+00 -0.00000000000E+00 -0.96853843509E+02  0.96853843509E+02  0.00000000000E+00 0. -1.
        -24    2    1    2    0    0 -0.29094030686E+01 -0.27856200458E+02 -0.58696225943E+02  0.12078014155E+03  0.10177506140E+03 0.  0.
         25    2    1    2    0    0  0.85238451409E+01  0.38918302572E+02  0.69869565002E+03  0.71092241732E+03  0.12509109434E+03 0.  0.
         24    2    1    2    0    0 -0.56144420723E+01 -0.11062102114E+02  0.16457061739E+04  0.16477107262E+04  0.80299029189E+02 0.  0.
        -13    1    5    5    0    0  0.92897808897E+01 -0.19030746070E+02  0.11637291811E+03  0.11828408766E+03  0.00000000000E+00 0.  1.
         14    1    5    5    0    0 -0.14904222962E+02  0.79686439566E+01  0.15293332558E+04  0.15294266385E+04  0.00000000000E+00 0. -1.
         13    1    3    3    0    0  0.29549481614E+02 -0.41655315984E+02 -0.67291408642E+02  0.84477635445E+02  0.00000000000E+00 0. -1.
        -14    1    3    3    0    0 -0.32458884683E+02  0.13799115526E+02  0.85951826991E+01  0.36302506109E+02  0.00000000000E+00 0.  1.
          5    1    4    4  501    0  0.56219124304E+02  0.11000167300E+02  0.53551630207E+03  0.53858776054E+03  0.41800000000E+01 0.  1.
         -5    1    4    4    0  501 -0.47695279164E+02  0.27918135272E+02  0.16317934795E+03  0.17233465678E+03  0.41800000000E+01 0.  1.
</event>
<event>
11    1  0.8328696E-009  0.1290094E+03  0.7561462E-02  0.1120492E+00
         22   -1    0    0    0    0  0.00000000000E+00  0.00000000000E+00  0.16503073255E+03  0.16503073255E+03  0.00000000000E+00 0.  1.
         22   -1    0    0    0    0 -0.00000000000E+00 -0.00000000000E+00 -0.66953930482E+03  0.66953930482E+03  0.00000000000E+00 0. -1.
        -24    2    1    2    0    0  0.20060269010E+02  0.12913424087E+02 -0.40232032132E+03  0.41107737680E+03  0.80955530072E+02 0.  0.
         25    2    1    2    0    0 -0.55110871124E+01  0.16241343704E+02 -0.23373109238E+03  0.26565309286E+03  0.12508872400E+03 0.  0.
         24    2    1    2    0    0 -0.14549181898E+02 -0.29154767791E+02  0.13154284143E+03  0.15783956772E+03  0.80920521667E+02 0.  0.
        -11    1    5    5    0    0  0.31653288112E+02 -0.53305598466E+00  0.61638926281E+02  0.69293376524E+02  0.00000000000E+00 0.  1.
         12    1    5    5    0    0 -0.46202470010E+02 -0.28621711806E+02  0.69903915152E+02  0.88546191196E+02  0.00000000000E+00 0. -1.
         13    1    3    3    0    0  0.29566199715E+02  0.57508565291E+01 -0.39682712230E+03  0.39796858859E+03  0.00000000000E+00 0. -1.
        -14    1    3    3    0    0 -0.95059307048E+01  0.71625675580E+01 -0.54931990258E+01  0.13108788202E+02  0.00000000000E+00 0.  1.
          5    1    4    4  501    0  0.57262018197E+01  0.11616340944E+02  0.12862124106E+02  0.18725261032E+02  0.41800000000E+01 0.  1.
         -5    1    4    4    0  501 -0.11237288932E+02  0.46250027599E+01 -0.24659321648E+03  0.24692783182E+03  0.41800000000E+01 0.  1.
</event>
<event>
11    1  0.8328696E-009  0.1552587E+03  0.7561462E-02  0.1091623E+00
         22   -1    0    0    0    0  0.00000000000E+00  0.00000000000E+00  0.42359631737E+03  0.42359631737E+03  0.00000000000E+00 0. -1.
         22   -1    0    0    0    0 -0.00000000000E+00 -0.00000000000E+00 -0.32526817132E+03  0.32526817132E+03  0.00000000000E+00 0.  1.
         24    2    1    2    0    0 -0.59249335286E+01 -0.30011856521E+01 -0.24453024809E+03  0.25775532432E+03  0.81232093633E+02 0.  0.
         25    2    1    2    0    0  0.19880578876E+02 -0.88226839462E+02  0.33295146285E+02  0.15790996158E+03  0.12509107315E+03 0.  0.
        -24    2    1    2    0    0 -0.13955645348E+02  0.91228025114E+02  0.30956324785E+03  0.33319920279E+03  0.81700622526E+02 0.  0.
        -13    1    3    3    0    0 -0.14665239164E+02 -0.23534810178E+02 -0.22874677962E+03  0.23042145238E+03  0.00000000000E+00 0.  1.
         14    1    3    3    0    0  0.87403056357E+01  0.20533624525E+02 -0.15783468467E+02  0.27333871947E+02  0.00000000000E+00 0. -1.
         13    1    5    5    0    0  0.10073516542E+02  0.54668667820E+02  0.26493421265E+03  0.27070329885E+03  0.00000000000E+00 0. -1.
        -14    1    5    5    0    0 -0.24029161889E+02  0.36559357294E+02  0.44629035197E+02  0.62495903941E+02  0.00000000000E+00 0.  1.
          5    1    4    4  501    0  0.11207253003E+02 -0.57089625018E+02  0.81194371446E+02  0.99974127449E+02  0.41800000000E+01 0.  1.
         -5    1    4    4    0  501  0.86733258728E+01 -0.31137214444E+02 -0.47899225161E+02  0.57935834128E+02  0.41800000000E+01 0.  1.
</event>
<event>
11    1  0.8328696E-009  0.1471649E+03  0.7561462E-02  0.1099811E+00
         22   -1    0    0    0    0  0.00000000000E+00  0.00000000000E+00  0.40832173638E+03  0.40832173638E+03  0.00000000000E+00 0.  1.
         22   -1    0    0    0    0 -0.00000000000E+00 -0.00000000000E+00 -0.46122286849E+03  0.46122286849E+03  0.00000000000E+00 0.  1.
        -24    2    1    2    0    0 -0.62946240193E+01  0.43202612057E+02 -0.39898665157E+03  0.40927515647E+03  0.80060711894E+02 0.  0.
         25    2    1    2    0    0  0.18509825110E+02  0.41714108639E+02  0.51114755155E+02  0.14263152378E+03  0.12509337671E+03 0.  0.
         24    2    1    2    0    0 -0.12215201091E+02 -0.84916720696E+02  0.29497076431E+03  0.31763792463E+03  0.80783901690E+02 0.  0.
        -11    1    5    5    0    0 -0.28450022865E+02 -0.34814162705E+02  0.22824511316E+03  0.23263117033E+03  0.00000000000E+00 0.  1.
         12    1    5    5    0    0  0.16234821774E+02 -0.50102557991E+02  0.66725651147E+02  0.85006754298E+02  0.00000000000E+00 0. -1.
         13    1    3    3    0    0 -0.80887196145E+01 -0.38662242249E+01 -0.16002861707E+01  0.91069199287E+01  0.00000000000E+00 0. -1.
        -14    1    3    3    0    0  0.17940955952E+01  0.47068836282E+02 -0.39738636540E+03  0.40016823654E+03  0.00000000000E+00 0.  1.
          5    1    4    4  501    0 -0.48400269510E+02 -0.39327640100E+01  0.41641871901E+01  0.48916925254E+02  0.41800000000E+01 0.  1.
         -5    1    4    4    0  501  0.66910094620E+02  0.45646872649E+02  0.46950567965E+02  0.93714598526E+02  0.41800000000E+01 0.  1.
</event>
<event>
11    1  0.8328696E-009  0.1346884E+03  0.7561462E-02  0.1113639E+00
         22   -1    0    0    0    0  0.00000000000E+00  0.00000000000E+00  0.10711912637E+04  0.10711912637E+04  0.00000000000E+00 0.  1.
         22   -1    0    0    0    0 -0.00000000000E+00 -0.00000000000E+00 -0.66174703543E+03  0.66174703543E+03  0.00000000000E+00 0.  1.
        -24    2    1    2    0    0  0.49534810816E+02 -0.19284198769E+01 -0.62688258919E+03  0.63382550008E+03  0.79344613144E+02 0.  0.
         25    2    1    2    0    0 -0.69172762794E+02  0.39538572418E+02  0.15981112187E+03  0.21802063816E+03  0.12508091049E+03 0.  0.
         24    2    1    2    0    0  0.19637951978E+02 -0.37610152541E+02  0.87651569559E+03  0.88109216088E+03  0.79015559287E+02 0.  0.
        -11    1    5    5    0    0  0.31454080966E+02 -0.35358565490E+02  0.85602186414E+03  0.85732900292E+03  0.00000000000E+00 0.  1.
         12    1    5    5    0    0 -0.11816128988E+02 -0.22515870509E+01  0.20493831450E+02  0.23763157955E+02  0.00000000000E+00 0. -1.
         13    1    3    3    0    0  0.21796892909E+02  0.59314575454E+00 -0.34660536378E+02  0.40948860110E+02  0.00000000000E+00 0. -1.
        -14    1    3    3    0    0  0.27737917908E+02 -0.25215656315E+01 -0.59222205282E+03  0.59287663997E+03  0.00000000000E+00 0.  1.
          5    1    4    4  501    0 -0.47297897409E+02  0.85004019480E+02  0.98370274310E+02  0.13840866192E+03  0.41800000000E+01 0. -1.
         -5    1    4    4    0  501 -0.21874865385E+02 -0.45465447062E+02  0.61440847557E+02  0.79611976239E+02  0.41800000000E+01 0. -1.
</event>
<event>
11    1  0.8328696E-009  0.1456477E+03  0.7561462E-02  0.1101411E+00
         22   -1    0    0    0    0  0.00000000000E+00  0.00000000000E+00  0.47207636249E+03  0.47207636249E+03  0.00000000000E+00 0. -1.
         22   -1    0    0    0    0 -0.00000000000E+00 -0.00000000000E+00 -0.69340774975E+03  0.69340774975E+03  0.00000000000E+00 0.  1.
        -24    2    1    2    0    0 -0.44434433004E+02 -0.35373658573E+02 -0.44757419191E+03  0.45795293048E+03  0.78565353186E+02 0.  0.
         25    2    1    2    0    0  0.11403027189E+03  0.57913948863E+02 -0.19976173146E+03  0.26815027804E+03  0.12507155503E+03 0.  0.
         24    2    1    2    0    0 -0.69595838889E+02 -0.22540290291E+02  0.42600453611E+03  0.43938090372E+03  0.78892764493E+02 0.  0.
        -11    1    5    5    0    0 -0.13447259334E+01  0.21386271352E+02  0.45194046820E+02  0.50016824751E+02  0.00000000000E+00 0.  1.
         12    1    5    5    0    0 -0.68251112955E+02 -0.43926561642E+02  0.38081048929E+03  0.38936407897E+03  0.00000000000E+00 0. -1.
         13    1    3    3    0    0 -0.44651977948E+02 -0.20039184660E+02 -0.11444582774E+03  0.12447174596E+03  0.00000000000E+00 0. -1.
        -14    1    3    3    0    0  0.21754494436E+00 -0.15334473913E+02 -0.33312836417E+03  0.33348118452E+03  0.00000000000E+00 0.  1.
          5    1    4    4  501    0  0.82052751825E+02 -0.24755589468E+02 -0.12763532243E+03  0.15379772828E+03  0.41800000000E+01 0. -1.
         -5    1    4    4    0  501  0.31977520068E+02  0.82669538331E+02 -0.72126409031E+02  0.11435254976E+03  0.41800000000E+01 0. -1.
</event>
<event>
11    1  0.8328696E-009  0.1499564E+03  0.7561462E-02  0.1096923E+00
         22   -1    0    0    0    0  0.00000000000E+00  0.00000000000E+00  0.21575371104E+03  0.21575371104E+03  0.00000000000E+00 0. -1.
         22   -1    0    0    0    0 -0.00000000000E+00 -0.00000000000E+00 -0.11527974882E+04  0.11527974882E+04  0.00000000000E+00 0. -1.
         24    2    1    2    0    0 -0.39818887233E+02 -0.77128038868E+02 -0.99610808692E+03  0.10031702957E+04  0.81148278859E+02 0.  0.
         25    2    1    2    0    0 -0.21494377074E+01  0.51446400842E+02 -0.10884471148E+03  0.17362529964E+03  0.12508885329E+03 0.  0.
        -24    2    1    2    0    0  0.41968324940E+02  0.25681638026E+02  0.16790902126E+03  0.19175560388E+03  0.78459450483E+02 0.  0.
        -13    1    3    3    0    0  0.76424195215E+01  0.10735967937E+02 -0.46674104366E+02  0.48498861864E+02  0.00000000000E+00 0.  1.
         14    1    3    3    0    0 -0.47461306755E+02 -0.87864006805E+02 -0.94943398256E+03  0.95467143383E+03  0.00000000000E+00 0. -1.
         11    1    5    5    0    0 -0.27304968189E+01  0.43045491182E+02  0.96965358849E+02  0.10612563659E+03  0.00000000000E+00 0. -1.
        -12    1    5    5    0    0  0.44698821759E+02 -0.17363853155E+02  0.70943662409E+02  0.85629967295E+02  0.00000000000E+00 0.  1.
          5    1    4    4  501    0 -0.34290368269E+02 -0.30795659533E+02 -0.45284579698E+02  0.64748494658E+02  0.41800000000E+01 0.  1.
         -5    1    4    4    0  501  0.32140930562E+02  0.82242060375E+02 -0.63560131777E+02  0.10887680498E+03  0.41800000000E+01 0.  1.
</event>
<event>
11    1  0.8328696E-009  0.1657263E+03  0.7561462E-02  0.1081812E+00
         22   -1    0    0    0    0  0.00000000000E+00  0.00000000000E+00  0.58604687800E+02  0.58604687800E+02  0.00000000000E+00 0. -1.
         22   -1    0    0    0    0 -0.00000000000E+00 -0.00000000000E+00 -0.16974267814E+04  0.16974267814E+04  0.00000000000E+00 0. -1.
         24    2    1    2    0    0 -0.23805419772E+02 -0.92264931186E+02 -0.97605697121E+03  0.98409244966E+03  0.81677554316E+02 0.  0.
         25    2    1    2    0    0  0.79646443240E+02  0.15288520387E+03 -0.60826062615E+03  0.64447333081E+03  0.12508974105E+03 0.  0.
        -24    2    1    2    0    0 -0.55841023468E+02 -0.60620272681E+02 -0.54504496257E+02  0.12746568875E+03  0.80521576833E+02 0.  0.
        -13    1    3    3    0    0 -0.25094844543E+02  0.32776541800E+01 -0.11510347334E+03  0.11785289056E+03  0.00000000000E+00 0.  1.
         14    1    3    3    0    0  0.12894247705E+01 -0.95542585366E+02 -0.86095349787E+03  0.86623955909E+03  0.00000000000E+00 0. -1.
         11    1    5    5    0    0 -0.26638788706E+02 -0.49147729767E+02  0.90102001306E+01  0.56624271398E+02  0.00000000000E+00 0. -1.
        -12    1    5    5    0    0 -0.29202234762E+02 -0.11472542914E+02 -0.63514696387E+02  0.70841417357E+02  0.00000000000E+00 0.  1.
          5    1    4    4  501    0 -0.29054791681E+02  0.38900517070E+02 -0.22251977394E+03  0.22779366397E+03  0.41800000000E+01 0.  1.
         -5    1    4    4    0  501  0.10870123492E+03  0.11398468680E+03 -0.38574085221E+03  0.41667966684E+03  0.41800000000E+01 0.  1.
</event>
<event>
11    1  0.8328696E-009  0.1558770E+03  0.7561462E-02  0.1091020E+00
         22   -1    0    0    0    0  0.00000000000E+00  0.00000000000E+00  0.15133871279E+04  0.15133871279E+04  0.00000000000E+00 0. -1.
         22   -1    0    0    0    0 -0.00000000000E+00 -0.00000000000E+00 -0.57945534859E+02  0.57945534859E+02  0.00000000000E+00 0.  1.
        -24    2    1    2    0    0  0.44340137315E+02 -0.80461720971E+02  0.61059575371E+02  0.13632492107E+03  0.80100412248E+02 0.  0.
         25    2    1    2    0    0 -0.55433689575E+02  0.80031057079E+02  0.31656278715E+03  0.35402405959E+03  0.12507266897E+03 0.  0.
         24    2    1    2    0    0  0.11093552261E+02  0.43066389204E+00  0.10778192306E+04  0.10809836821E+04  0.81903448698E+02 0.  0.
        -13    1    5    5    0    0  0.88572519721E+01  0.39209915850E+02  0.38936327311E+03  0.39143278716E+03  0.00000000000E+00 0.  1.
         14    1    5    5    0    0  0.22363002884E+01 -0.38779251958E+02  0.68845595744E+03  0.68955089497E+03  0.00000000000E+00 0. -1.
         13    1    3    3    0    0 -0.49093638513E+01  0.13875310360E+01  0.37623889024E+02  0.37968198812E+02  0.00000000000E+00 0. -1.
        -14    1    3    3    0    0  0.49249501166E+02 -0.81849252007E+02  0.23435686347E+02  0.98356722260E+02  0.00000000000E+00 0.  1.
          5    1    4    4  501    0 -0.37528454822E+02  0.93232536035E-01  0.23617610368E+03  0.23917570521E+03  0.41800000000E+01 0.  1.
         -5    1    4    4    0  501 -0.17905234754E+02  0.79937824543E+02  0.80386683472E+02  0.11484835438E+03  0.41800000000E+01 0.  1.
</event>
<event>
11    1  0.8328696E-009  0.1667042E+03  0.7561462E-02  0.1080936E+00
         22   -1    0    0    0    0  0.00000000000E+00  0.00000000000E+00  0.32757174140E+03  0.32757174140E+03  0.00000000000E+00 0. -1.
         22   -1    0    0    0    0 -0.00000000000E+00 -0.00000000000E+00 -0.23875651288E+03  0.23875651288E+03  0.00000000000E+00 0. -1.
        -24    2    1    2    0    0  0.58970058270E+02  0.33610967238E+02 -0.12953945566E+03  0.17087112514E+03  0.88370277489E+02 0.  0.
         25    2    1    2    0    0 -0.14637358072E+03 -0.59891737054E+02  0.97160334669E+02  0.22383156487E+03  0.12509273961E+03 0.  0.
         24    2    1    2    0    0  0.87403522447E+02  0.26280769816E+02  0.12119434951E+03  0.17162556427E+03  0.80232221463E+02 0.  0.
        -11    1    5    5    0    0  0.26679812189E+02 -0.13022931238E+02  0.86400128578E+02  0.91358586541E+02  0.00000000000E+00 0.  1.
         12    1    5    5    0    0  0.60723710257E+02  0.39303701054E+02  0.34794220928E+02  0.80266977730E+02  0.00000000000E+00 0. -1.
         13    1    3    3    0    0  0.33680689005E+02  0.68742568367E+01 -0.12958710226E+03  0.13406886772E+03  0.00000000000E+00 0. -1.
        -14    1    3    3    0    0  0.25289369265E+02  0.26736710402E+02  0.47646606451E-01  0.36802257419E+02  0.00000000000E+00 0.  1.
          5    1    4    4  501    0 -0.77350846718E+02 -0.37141245502E+02 -0.17827925949E+02  0.87737864968E+02  0.41800000000E+01 0. -1.
         -5    1    4    4    0  501 -0.69022733999E+02 -0.22750491552E+02  0.11498826062E+03  0.13609369991E+03  0.41800000000E+01 0. -1.
</event>
<event>
11    1  0.8328696E-009  0.4319954E+03  0.7561462E-02  0.9559802E-01
         22   -1    0    0    0    0  0.00000000000E+00  0.00000000000E+00  0.27277189876E+03  0.27277189876E+03  0.00000000000E+00 0.  1.
         22   -1    0    0    0    0 -0.00000000000E+00 -0.00000000000E+00 -0.21009043539E+04  0.21009043539E+04  0.00000000000E+00 0. -1.
         24    2    1    2    0    0 -0.29036178316E+02  0.14531782486E+03 -0.12921032674E+04  0.13047852879E+04  0.10475411205E+03 0.  0.
         25    2    1    2    0    0  0.12134871206E+03  0.30156588751E+03 -0.49284183671E+03  0.60349617391E+03  0.12508821479E+03 0.  0.
        -24    2    1    2    0    0 -0.92312533748E+02 -0.44688371237E+03 -0.43187350989E+02  0.46539479082E+03  0.80625726487E+02 0.  0.
        -13    1    3    3    0    0 -0.17496436422E+02  0.39632874684E+02 -0.80732348508E+03  0.80848506455E+03  0.00000000000E+00 0.  1.
         14    1    3    3    0    0 -0.11539741894E+02  0.10568495018E+03 -0.48477978233E+03  0.49630022335E+03  0.00000000000E+00 0. -1.
         11    1    5    5    0    0 -0.73394256250E+02 -0.31046643318E+03 -0.66044062276E+02  0.32578818447E+03  0.00000000000E+00 0. -1.
        -12    1    5    5    0    0 -0.18918277499E+02 -0.13641727919E+03  0.22856711287E+02  0.13960660635E+03  0.00000000000E+00 0.  1.
          5    1    4    4  501    0  0.46437633705E+02  0.25043985707E+03 -0.39499234253E+03  0.47001382840E+03  0.41800000000E+01 0. -1.
         -5    1    4    4    0  501  0.74911078359E+02  0.51126030438E+02 -0.97849494183E+02  0.13348234550E+03  0.41800000000E+01 0. -1.
</event>
<event>
11    1  0.8328696E-009  0.1560013E+03  0.7561462E-02  0.1090900E+00
         22   -1    0    0    0    0  0.00000000000E+00  0.00000000000E+00  0.23605868227E+04  0.23605868227E+04  0.00000000000E+00 0.  1.
         22   -1    0    0    0    0 -0.00000000000E+00 -0.00000000000E+00 -0.72355910139E+02  0.72355910139E+02  0.00000000000E+00 0. -1.
        -24    2    1    2    0    0 -0.83615075407E+02  0.39194265300E+02 -0.47425105121E+01  0.12125349722E+03  0.78436266570E+02 0.  0.
         25    2    1    2    0    0  0.85083315149E+02 -0.66887624242E+02  0.82630451871E+03  0.84269809357E+03  0.12509114465E+03 0.  0.
         24    2    1    2    0    0 -0.14682397420E+01  0.27693358942E+02  0.14666689044E+04  0.14689911421E+04  0.77770319227E+02 0.  0.
        -13    1    5    5    0    0  0.18716171599E+02 -0.11957477726E+01  0.11820392548E+04  0.11821880243E+04  0.00000000000E+00 0.  1.
         14    1    5    5    0    0 -0.20184411341E+02  0.28889106715E+02  0.28462964958E+03  0.28680311778E+03  0.00000000000E+00 0. -1.
         11    1    3    3    0    0 -0.25174717762E+02  0.75480692459E+01 -0.38576124163E+02  0.46678229606E+02  0.00000000000E+00 0. -1.
        -12    1    3    3    0    0 -0.58440357645E+02  0.31646196054E+02  0.33833613651E+02  0.74575267609E+02  0.00000000000E+00 0.  1.
          5    1    4    4  501    0 -0.24836694348E+02 -0.20376393376E+02  0.71412816016E+02  0.78417609531E+02  0.41800000000E+01 0. -1.
         -5    1    4    4    0  501  0.10992000950E+03 -0.46511230866E+02  0.75489170270E+03  0.76428048404E+03  0.41800000000E+01 0. -1.
</event>
<event>
11    1  0.8328696E-009  0.1374306E+03  0.7561462E-02  0.1110462E+00
         22   -1    0    0    0    0  0.00000000000E+00  0.00000000000E+00  0.19342171760E+03  0.19342171760E+03  0.00000000000E+00 0. -1.
         22   -1    0    0    0    0 -0.00000000000E+00 -0.00000000000E+00 -0.16861161399E+04  0.16861161399E+04  0.00000000000E+00 0.  1.
         24    2    1    2    0    0  0.46909752895E+02 -0.28150920816E+02 -0.14638576664E+04  0.14670759367E+04  0.80246726495E+02 0.  0.
         25    2    1    2    0    0 -0.10232421339E+03  0.26579959205E+02 -0.17330457700E+03  0.23844912519E+03  0.12508704977E+03 0.  0.
        -24    2    1    2    0    0  0.55414460496E+02  0.15709616109E+01  0.14446782112E+03  0.17401279565E+03  0.79600699469E+02 0.  0.
        -13    1    3    3    0    0  0.11594988419E+02 -0.14202203641E+02 -0.12314930638E+04  0.12316295354E+04  0.00000000000E+00 0.  1.
         14    1    3    3    0    0  0.35314764475E+02 -0.13948717175E+02 -0.23236460263E+03  0.23544640123E+03  0.00000000000E+00 0. -1.
         11    1    5    5    0    0  0.51799318202E+02 -0.25595624791E+02  0.52567482950E+02  0.78113031168E+02  0.00000000000E+00 0. -1.
        -12    1    5    5    0    0  0.36151422944E+01  0.27166586402E+02  0.91900338173E+02  0.95899764477E+02  0.00000000000E+00 0.  1.
          5    1    4    4  501    0  0.18502429103E+02  0.37283665409E+02 -0.53445478278E+02  0.67869751270E+02  0.41800000000E+01 0.  1.
         -5    1    4    4    0  501 -0.12082664249E+03 -0.10703706204E+02 -0.11985909872E+03  0.17057937392E+03  0.41800000000E+01 0.  1.
</event>
<event>
11    1  0.8328696E-009  0.1476255E+03  0.7561462E-02  0.1099330E+00
         22   -1    0    0    0    0  0.00000000000E+00  0.00000000000E+00  0.12441532882E+04  0.12441532882E+04  0.00000000000E+00 0. -1.
         22   -1    0    0    0    0 -0.00000000000E+00 -0.00000000000E+00 -0.58137349733E+03  0.58137349733E+03  0.00000000000E+00 0. -1.
        -24    2    1    2    0    0  0.63024087367E+02  0.49884600579E+02 -0.54308352162E+03  0.55506487621E+03  0.81833956173E+02 0.  0.
         25    2    1    2    0    0 -0.25601340264E+02 -0.20438571755E+02  0.10765332882E+03  0.16825524787E+03  0.12508966941E+03 0.  0.
         24    2    1    2    0    0 -0.37422747103E+02 -0.29446028824E+02  0.10982099836E+04  0.11022066614E+04  0.80788772037E+02 0.  0.
        -13    1    5    5    0    0  0.11262141002E+02 -0.22455893112E+01  0.24591594772E+02  0.27140836847E+02  0.00000000000E+00 0.  1.
         14    1    5    5    0    0 -0.48684888105E+02 -0.27200439513E+02  0.10736183889E+04  0.10750658246E+04  0.00000000000E+00 0. -1.
         13    1    3    3    0    0  0.77948835676E+02  0.48729823335E+02 -0.51595568137E+03  0.52408098783E+03  0.00000000000E+00 0. -1.
        -14    1    3    3    0    0 -0.14924748309E+02  0.11547772443E+01 -0.27127840253E+02  0.30983888384E+02  0.00000000000E+00 0.  1.
          5    1    4    4  501    0 -0.48017214084E+02  0.41013405281E+02  0.45685108325E+02  0.78053531527E+02  0.41800000000E+01 0. -1.
         -5    1    4    4    0  501  0.22415873820E+02 -0.61451977036E+02  0.61968220492E+02  0.90201716346E+02  0.41800000000E+01 0. -1.
</event>
<event>
11    1  0.8328696E-009  0.2326559E+03  0.7561462E-02  0.1033567E+00
         22   -1    0    0    0    0  0.00000000000E+00  0.00000000000E+00  0.59033159710E+03  0.59033159710E+03  0.00000000000E+00 0. -1.
         22   -1    0    0    0    0 -0.00000000000E+00 -0.00000000000E+00 -0.40736276531E+03  0.40736276531E+03  0.00000000000E+00 0. -1.
         24    2    1    2    0    0 -0.20490144306E+03  0.59024030976E+02 -0.28108497980E+03  0.36133014332E+03  0.77988903055E+02 0.  0.
         25    2    1    2    0    0  0.95526360587E+02 -0.13136460718E+03  0.75583771562E+02  0.21850129596E+03  0.12509182319E+03 0.  0.
        -24    2    1    2    0    0  0.10937508248E+03  0.72340576201E+02  0.38847004003E+03  0.41786292312E+03  0.80649754431E+02 0.  0.
        -13    1    3    3    0    0 -0.15822152123E+02 -0.16201879103E+02 -0.38801711513E+02  0.44926764858E+02  0.00000000000E+00 0.  1.
         14    1    3    3    0    0 -0.18907929094E+03  0.75225910079E+02 -0.24228326829E+03  0.31640337846E+03  0.00000000000E+00 0. -1.
         11    1    5    5    0    0  0.82021921311E+02  0.89648083715E+02  0.30144397421E+03  0.32501206759E+03  0.00000000000E+00 0. -1.
        -12    1    5    5    0    0  0.27353161167E+02 -0.17307507515E+02  0.87026065813E+02  0.92850855532E+02  0.00000000000E+00 0.  1.
          5    1    4    4  501    0  0.42295248697E+02 -0.92447132112E+02 -0.18617770209E+02  0.10343816542E+03  0.41800000000E+01 0. -1.
         -5    1    4    4    0  501  0.53231111890E+02 -0.38917475064E+02  0.94201541771E+02  0.11506313054E+03  0.41800000000E+01 0. -1.
</event>
<event>
11    1  0.8328696E-009  0.1771946E+03  0.7561462E-02  0.1071935E+00
         22   -1    0    0    0    0  0.00000000000E+00  0.00000000000E+00  0.35091530959E+03  0.35091530959E+03  0.00000000000E+00 0.  1.
         22   -1    0    0    0    0 -0.00000000000E+00 -0.00000000000E+00 -0.49446494993E+03  0.49446494993E+03  0.00000000000E+00 0. -1.
        -24    2    1    2    0    0 -0.80523601335E+02 -0.95094092922E+02 -0.40212839207E+03  0.42982672191E+03  0.86699655572E+02 0.  0.
         25    2    1    2    0    0  0.43147321132E+02  0.13810146615E+03  0.71249057211E+02  0.20409936949E+03  0.12508564345E+03 0.  0.
         24    2    1    2    0    0  0.37376280204E+02 -0.43007373233E+02  0.18732969452E+03  0.21145416813E+03  0.79836271801E+02 0.  0.
        -11    1    5    5    0    0  0.20770076654E+02 -0.65997610312E+02  0.14246504056E+03  0.15837729772E+03  0.00000000000E+00 0.  1.
         12    1    5    5    0    0  0.16606203550E+02  0.22990237079E+02  0.44864653956E+02  0.53076870404E+02  0.00000000000E+00 0. -1.
         11    1    3    3    0    0 -0.63873390650E+02 -0.27762266488E+02 -0.28777318382E+03  0.29608100040E+03  0.00000000000E+00 0. -1.
        -12    1    3    3    0    0 -0.16650210685E+02 -0.67331826434E+02 -0.11435520825E+03  0.13374572150E+03  0.00000000000E+00 0.  1.
          5    1    4    4  501    0  0.62734715481E+02  0.15048435754E+03  0.76236632397E+02  0.18002967230E+03  0.41800000000E+01 0.  1.
         -5    1    4    4    0  501 -0.19587394350E+02 -0.12382891382E+02 -0.49875751860E+01  0.24069697186E+02  0.41800000000E+01 0.  1.
</event>
<event>
11    1  0.8328696E-009  0.1401179E+03  0.7561462E-02  0.1107427E+00
         22   -1    0    0    0    0  0.00000000000E+00  0.00000000000E+00  0.11774452706E+04  0.11774452706E+04  0.00000000000E+00 0.  1.
         22   -1    0    0    0    0 -0.00000000000E+00 -0.00000000000E+00 -0.26380084393E+03  0.26380084393E+03  0.00000000000E+00 0. -1.
        -24    2    1    2    0    0 -0.14970929523E+02  0.65588400585E+02 -0.20934914110E+03  0.23524023052E+03  0.83575930481E+02 0.  0.
         25    2    1    2    0    0  0.44771682477E+02 -0.15962987251E+02  0.74354038077E+02  0.15308180367E+03  0.12508475176E+03 0.  0.
         24    2    1    2    0    0 -0.29800752954E+02 -0.49625413333E+02  0.10486395297E+04  0.10529240803E+04  0.75189688031E+02 0.  0.
        -11    1    5    5    0    0 -0.10517024551E+02 -0.22738096232E+02  0.91169124590E+03  0.91203539223E+03  0.00000000000E+00 0.  1.
         12    1    5    5    0    0 -0.19283728403E+02 -0.26887317101E+02  0.13694828376E+03  0.14088868807E+03  0.00000000000E+00 0. -1.
         11    1    3    3    0    0  0.28337794944E+02  0.54383658322E+02 -0.13822205742E+03  0.15121491352E+03  0.00000000000E+00 0. -1.
        -12    1    3    3    0    0 -0.43308724467E+02  0.11204742262E+02 -0.71127083683E+02  0.84025317003E+02  0.00000000000E+00 0.  1.
          5    1    4    4  501    0  0.57547620188E+02 -0.15737503219E+02 -0.15857873214E+02  0.61873598083E+02  0.41800000000E+01 0.  1.
         -5    1    4    4    0  501 -0.12775937710E+02 -0.22548403270E+00  0.90211911291E+02  0.91208205586E+02  0.41800000000E+01 0.  1.
</event>
<event>
11    1  0.8328696E-009  0.1412901E+03  0.7561462E-02  0.1106126E+00
         22   -1    0    0    0    0  0.00000000000E+00  0.00000000000E+00  0.81315540368E+03  0.81315540368E+03  0.00000000000E+00 0.  1.
         22   -1    0    0    0    0 -0.00000000000E+00 -0.00000000000E+00 -0.18680113663E+03  0.18680113663E+03  0.00000000000E+00 0.  1.
         24    2    1    2    0    0 -0.30916193276E+02 -0.51452368266E+02 -0.11520394084E+03  0.15364676594E+03  0.82050127914E+02 0.  0.
         25    2    1    2    0    0  0.48929553085E+02  0.94404393832E+02  0.88070166052E+02  0.18630503213E+03  0.12508764971E+03 0.  0.
        -24    2    1    2    0    0 -0.18013359809E+02 -0.42952025566E+02  0.65348804184E+03  0.66000474223E+03  0.79939235097E+02 0.  0.
        -13    1    3    3    0    0 -0.28287260641E+02 -0.43600505730E+02 -0.12814494930E+03  0.13828340915E+03  0.00000000000E+00 0.  1.
         14    1    3    3    0    0 -0.26289326350E+01 -0.78518625361E+01  0.12941008455E+02  0.15363356792E+02  0.00000000000E+00 0. -1.
         13    1    5    5    0    0 -0.42070125822E+02 -0.34501675030E+02  0.25692158665E+03  0.26261942570E+03  0.00000000000E+00 0. -1.
        -14    1    5    5    0    0  0.24056766013E+02 -0.84503505365E+01  0.39656645519E+03  0.39738531654E+03  0.00000000000E+00 0.  1.
          5    1    4    4  501    0  0.45087601019E+01 -0.11090426778E+02  0.69037819324E+02  0.70192730256E+02  0.41800000000E+01 0.  1.
         -5    1    4    4    0  501  0.44420792983E+02  0.10549482061E+03  0.19032346728E+02  0.11611230188E+03  0.41800000000E+01 0.  1.
</event>
<event>
11    1  0.8328696E-009  0.1510797E+03  0.7561462E-02  0.1095781E+00
         22   -1    0    0    0    0  0.00000000000E+00  0.00000000000E+00  0.27046298375E+03  0.27046298375E+03  0.00000000000E+00 0. -1.
         22   -1    0    0    0    0 -0.00000000000E+00 -0.00000000000E+00 -0.57071243882E+03  0.57071243882E+03  0.00000000000E+00 0.  1.
        -24    2    1    2    0    0  0.21963918532E+02 -0.81057157080E+02 -0.46015841575E+03  0.47641817075E+03  0.90420293084E+02 0.  0.
         25    2    1    2    0    0 -0.36016319249E+02  0.83858078408E+02 -0.31153897998E+02  0.15794903704E+03  0.12509188773E+03 0.  0.
         24    2    1    2    0    0  0.14052400717E+02 -0.28009213283E+01  0.19106285868E+03  0.20680821479E+03  0.77841548085E+02 0.  0.
        -11    1    5    5    0    0  0.10035403413E+02  0.36441350862E+02  0.71048445190E+02  0.80477095737E+02  0.00000000000E+00 0.  1.
         12    1    5    5    0    0  0.40169973043E+01 -0.39242272190E+02  0.12001441349E+03  0.12633111905E+03  0.00000000000E+00 0. -1.
         13    1    3    3    0    0 -0.30700392065E+02 -0.52782111354E+02 -0.28076876720E+03  0.28733180469E+03  0.00000000000E+00 0. -1.
        -14    1    3    3    0    0  0.52664310597E+02 -0.28275045726E+02 -0.17938964855E+03  0.18908636605E+03  0.00000000000E+00 0.  1.
          5    1    4    4  501    0 -0.28460565371E+02 -0.29472516952E+02 -0.78319849354E+01  0.41921896722E+02  0.41800000000E+01 0.  1.
         -5    1    4    4    0  501 -0.75557538779E+01  0.11333059536E+03 -0.23321913063E+02  0.11602714032E+03  0.41800000000E+01 0.  1.
</event>
<event>
11    1  0.8328696E-009  0.1502654E+03  0.7561462E-02  0.1096608E+00
         22   -1    0    0    0    0  0.00000000000E+00  0.00000000000E+00  0.47895909875E+03  0.47895909875E+03  0.00000000000E+00 0. -1.
         22   -1    0    0    0    0 -0.00000000000E+00 -0.00000000000E+00 -0.16449389622E+04  0.16449389622E+04  0.00000000000E+00 0.  1.
         24    2    1    2    0    0  0.54886096940E+01  0.11011684898E+02 -0.12015047555E+04  0.12042373141E+04  0.80140184097E+02 0.  0.
         25    2    1    2    0    0 -0.87717342953E+02 -0.23330961138E+02 -0.42121660260E+03  0.44867528042E+03  0.12508962769E+03 0.  0.
        -24    2    1    2    0    0  0.82228733259E+02  0.12319276240E+02  0.45674149472E+03  0.47098546638E+03  0.79380018891E+02 0.  0.
        -11    1    3    3    0    0  0.21514532440E+01 -0.30630085777E+02 -0.79475102013E+03  0.79534396013E+03  0.00000000000E+00 0.  1.
         12    1    3    3    0    0  0.33371564500E+01  0.41641770674E+02 -0.40675373541E+03  0.40889335401E+03  0.00000000000E+00 0. -1.
         11    1    5    5    0    0  0.79605170744E+01 -0.22915365641E+02  0.19848893416E+03  0.19996584909E+03  0.00000000000E+00 0. -1.
        -12    1    5    5    0    0  0.74268216184E+02  0.35234641881E+02  0.25825256055E+03  0.27101961729E+03  0.00000000000E+00 0.  1.
          5    1    4    4  501    0 -0.71370700120E+02  0.26847907699E+02 -0.35877283377E+03  0.36681058550E+03  0.41800000000E+01 0.  1.
         -5    1    4    4    0  501 -0.16346642832E+02 -0.50178868836E+02 -0.62443768831E+02  0.81864694926E+02  0.41800000000E+01 0.  1.
</event>
<event>
11    1  0.8328696E-009  0.1627264E+03  0.7561462E-02  0.1084541E+00
         22   -1    0    0    0    0  0.00000000000E+00  0.00000000000E+00  0.36208227224E+03  0.36208227224E+03  0.00000000000E+00 0.  1.
         22   -1    0    0    0    0 -0.00000000000E+00 -0.00000000000E+00 -0.11778097633E+03  0.11778097633E+03  0.00000000000E+00 0. -1.
        -24    2    1    2    0    0 -0.80532961086E+02 -0.73678671901E+02  0.23895776852E+02  0.13753563405E+03  0.80193129188E+02 0.  0.
         25    2    1    2    0    0  0.10087861476E+03  0.23045923601E+02  0.11333502412E+03  0.19798934081E+03  0.12508933556E+03 0.  0.
         24    2    1    2    0    0 -0.20345653677E+02  0.50632748300E+02  0.10707049494E+03  0.14433827371E+03  0.79948893351E+02 0.  0.
        -13    1    5    5    0    0 -0.11513752328E+02  0.73044665928E+01  0.98320666765E+02  0.99261650389E+02  0.00000000000E+00 0.  1.
         14    1    5    5    0    0 -0.88319013497E+01  0.43328281707E+02  0.87498281723E+01  0.45076623323E+02  0.00000000000E+00 0. -1.
         11    1    3    3    0    0 -0.10897414015E+02 -0.13609699294E+02 -0.27216646381E+02  0.32322181042E+02  0.00000000000E+00 0. -1.
        -12    1    3    3    0    0 -0.69635547071E+02 -0.60068972607E+02  0.51112423233E+02  0.10521345301E+03  0.00000000000E+00 0.  1.
          5    1    4    4  501    0  0.53168791683E+02  0.18131737162E+02 -0.17168196427E+02  0.58888875605E+02  0.41800000000E+01 0. -1.
         -5    1    4    4    0  501  0.47709823081E+02  0.49141864389E+01  0.13050322055E+03  0.13910046521E+03  0.41800000000E+01 0. -1.
</event>
<event>
11    1  0.8328696E-009  0.1428102E+03  0.7561462E-02  0.1104460E+00
         22   -1    0    0    0    0  0.00000000000E+00  0.00000000000E+00  0.20007726424E+03  0.20007726424E+03  0.00000000000E+00 0.  1.
         22   -1    0    0    0    0 -0.00000000000E+00 -0.00000000000E+00 -0.17482229027E+03  0.17482229027E+03  0.00000000000E+00 0. -1.
         24    2    1    2    0    0 -0.18511632398E+02  0.31867057347E+02 -0.13890739592E+02  0.89205553993E+02  0.80040541845E+02 0.  0.
         25    2    1    2    0    0 -0.32903371551E+02 -0.75042098766E+02 -0.39638715650E+02  0.15469908916E+03  0.12508649791E+03 0.  0.
        -24    2    1    2    0    0  0.51415003949E+02  0.43175041418E+02  0.78784429213E+02  0.13099491137E+03  0.80281340825E+02 0.  0.
        -11    1    3    3    0    0  0.30626609047E+01  0.26546904190E+02  0.29898929671E+02  0.40100673428E+02  0.00000000000E+00 0.  1.
         12    1    3    3    0    0 -0.21574293303E+02  0.53201531568E+01 -0.43789669263E+02  0.49104880565E+02  0.00000000000E+00 0. -1.
         13    1    5    5    0    0  0.74145986139E+01  0.53814582732E+01 -0.16830187680E+02  0.19162243686E+02  0.00000000000E+00 0. -1.
        -14    1    5    5    0    0  0.44000405335E+02  0.37793583145E+02  0.95614616893E+02  0.11183266768E+03  0.00000000000E+00 0.  1.
          5    1    4    4  501    0  0.40747730199E+02 -0.45319403730E+02  0.85862547636E+01  0.61688102918E+02  0.41800000000E+01 0.  1.
         -5    1    4    4    0  501 -0.73651101751E+02 -0.29722695036E+02 -0.48224970414E+02  0.93010986237E+02  0.41800000000E+01 0.  1.
</event>
<event>
11    1  0.8328696E-009  0.2616579E+03  0.7561462E-02  0.1017866E+00
         22   -1    0    0    0    0  0.00000000000E+00  0.00000000000E+00  0.57387114904E+03  0.57387114904E+03  0.00000000000E+00 0. -1.
         22   -1    0    0    0    0 -0.00000000000E+00 -0.00000000000E+00 -0.59053963938E+03  0.59053963938E+03  0.00000000000E+00 0. -1.
         24    2    1    2    0    0  0.18714626604E+03 -0.96255939962E+02 -0.35485884115E+03  0.42059540747E+03  0.81772665216E+02 0.  0.
         25    2    1    2    0    0 -0.31091140396E+03  0.25659715262E+03  0.12279082420E+03  0.43958323822E+03  0.12509131455E+03 0.  0.
        -24    2    1    2    0    0  0.12376513793E+03 -0.16034121266E+03  0.21539952661E+03  0.30423214273E+03  0.71645842606E+02 0.  0.
        -13    1    3    3    0    0  0.16943256350E+03 -0.60095838018E+02 -0.24723812631E+03  0.30568872145E+03  0.00000000000E+00 0.  1.
         14    1    3    3    0    0  0.17713702537E+02 -0.36160101944E+02 -0.10762071484E+03  0.11490668602E+03  0.00000000000E+00 0. -1.
         11    1    5    5    0    0  0.12196490522E+03 -0.11549785447E+03  0.15187600583E+03  0.22645421974E+03  0.00000000000E+00 0. -1.
        -12    1    5    5    0    0  0.18002327024E+01 -0.44843358183E+02  0.63523520781E+02  0.77777922981E+02  0.00000000000E+00 0.  1.
          5    1    4    4  501    0 -0.19027255018E+03  0.22060283912E+03  0.11549069921E+03  0.31340840765E+03  0.41800000000E+01 0.  1.
         -5    1    4    4    0  501 -0.12063885378E+03  0.35994313494E+02  0.73001249908E+01  0.12617483057E+03  0.41800000000E+01 0.  1.
</event>
<event>
11    1  0.8328696E-009  0.1370497E+03  0.7561462E-02  0.1110898E+00
         22   -1    0    0    0    0  0.00000000000E+00  0.00000000000E+00  0.42224962180E+03  0.42224962180E+03  0.00000000000E+00 0. -1.
         22   -1    0    0    0    0 -0.00000000000E+00 -0.00000000000E+00 -0.38030087921E+03  0.38030087921E+03  0.00000000000E+00 0.  1.
         24    2    1    2    0    0  0.43818989488E+02  0.36603472755E+02 -0.33288807716E+03  0.34760790207E+03  0.82200143610E+02 0.  0.
         25    2    1    2    0    0 -0.37627582207E+02 -0.12467931168E+02  0.93030639056E+02  0.16085209222E+03  0.12508961395E+03 0.  0.
        -24    2    1    2    0    0 -0.61914072814E+01 -0.24135541588E+02  0.28180618070E+03  0.29409050671E+03  0.80334580155E+02 0.  0.
        -11    1    3    3    0    0  0.36340270022E+02 -0.59112257149E+01 -0.26226582825E+03  0.26483753979E+03  0.00000000000E+00 0.  1.
         12    1    3    3    0    0  0.74787194663E+01  0.42514698470E+02 -0.70622248908E+02  0.82770362279E+02  0.00000000000E+00 0. -1.
         11    1    5    5    0    0  0.75141690177E+01 -0.48244310531E+02  0.23201791075E+03  0.23709974092E+03  0.00000000000E+00 0. -1.
        -12    1    5    5    0    0 -0.13705576299E+02  0.24108768943E+02  0.49788269942E+02  0.56990765791E+02  0.00000000000E+00 0.  1.
          5    1    4    4  501    0 -0.57225228654E+01  0.25805667253E+02 -0.22501258470E+02  0.34963677767E+02  0.41800000000E+01 0. -1.
         -5    1    4    4    0  501 -0.31905059341E+02 -0.38273598420E+02  0.11553189753E+03  0.12588841445E+03  0.41800000000E+01 0. -1.
</event>
<event>
11    1  0.8328696E-009  0.1367905E+03  0.7561462E-02  0.1111196E+00
         22   -1    0    0    0    0  0.00000000000E+00  0.00000000000E+00  0.53715603978E+03  0.53715603978E+03  0.00000000000E+00 0. -1.
         22   -1    0    0    0    0 -0.00000000000E+00 -0.00000000000E+00 -0.26145281054E+03  0.26145281054E+03  0.00000000000E+00 0. -1.
         24    2    1    2    0    0 -0.79593749079E+01  0.25939550997E+02 -0.17298607963E+03  0.19227012297E+03  0.79419169526E+02 0.  0.
         25    2    1    2    0    0 -0.47904359167E+02 -0.25733758104E+02 -0.10611890770E+02  0.13680576788E+03  0.12508457925E+03 0.  0.
        -24    2    1    2    0    0  0.55863734074E+02 -0.20579289325E+00  0.45930119964E+03  0.46953295946E+03  0.79892483335E+02 0.  0.
        -11    1    3    3    0    0  0.15040035154E+02  0.36543922805E+01  0.85749955083E+00  0.15501372387E+02  0.00000000000E+00 0.  1.
         12    1    3    3    0    0 -0.22999410062E+02  0.22285158717E+02 -0.17384357918E+03  0.17676875059E+03  0.00000000000E+00 0. -1.
         11    1    5    5    0    0 -0.13734941758E+02  0.72276042070E+01  0.21056185080E+03  0.21113308576E+03  0.00000000000E+00 0. -1.
        -12    1    5    5    0    0  0.69598675833E+02 -0.74333971002E+01  0.24873934884E+03  0.25839987370E+03  0.00000000000E+00 0.  1.
          5    1    4    4  501    0 -0.14779669556E+01 -0.70771694978E+02 -0.12285115835E+02  0.71966753904E+02  0.41800000000E+01 0.  1.
         -5    1    4    4    0  501 -0.46426392211E+02  0.45037936874E+02  0.16732250651E+01  0.64839013979E+02  0.41800000000E+01 0.  1.
</event>
<event>
11    1  0.8328696E-009  0.1402712E+03  0.7561462E-02  0.1107256E+00
         22   -1    0    0    0    0  0.00000000000E+00  0.00000000000E+00  0.15085532443E+03  0.15085532443E+03  0.00000000000E+00 0. -1.
         22   -1    0    0    0    0 -0.00000000000E+00 -0.00000000000E+00 -0.55096472340E+03  0.55096472340E+03  0.00000000000E+00 0.  1.
         24    2    1    2    0    0  0.64668376514E+02  0.12055185261E+02 -0.42747502869E+03  0.43979310581E+03  0.79722953734E+02 0.  0.
         25    2    1    2    0    0 -0.27660188727E+02 -0.63772071438E+02 -0.27788869735E+02  0.14577838008E+03  0.12508857534E+03 0.  0.
        -24    2    1    2    0    0 -0.37008187787E+02  0.51716886177E+02  0.55154499449E+02  0.11624856195E+03  0.80171485379E+02 0.  0.
        -11    1    3    3    0    0  0.74410506718E+02  0.48443513830E+01 -0.41746811568E+03  0.42407548722E+03  0.00000000000E+00 0.  1.
         12    1    3    3    0    0 -0.97421302040E+01  0.72108338783E+01 -0.10006913004E+02  0.15717618585E+02  0.00000000000E+00 0. -1.
         13    1    5    5    0    0  0.98095836903E+01  0.19775724648E+02  0.55331535580E+02  0.59572527622E+02  0.00000000000E+00 0. -1.
        -14    1    5    5    0    0 -0.46817771477E+02  0.31941161529E+02 -0.17703613112E+00  0.56676034333E+02  0.00000000000E+00 0.  1.
          5    1    4    4  501    0 -0.72607013207E+02 -0.47669317511E+02  0.59594461306E+01  0.87161514426E+02  0.41800000000E+01 0. -1.
         -5    1    4    4    0  501  0.44946824480E+02 -0.16102753927E+02 -0.33748315865E+02  0.58616865650E+02  0.41800000000E+01 0. -1.
</event>
<event>
11    1  0.8328696E-009  0.1767103E+03  0.7561462E-02  0.1072335E+00
         22   -1    0    0    0    0  0.00000000000E+00  0.00000000000E+00  0.14739890752E+04  0.14739890752E+04  0.00000000000E+00 0. -1.
         22   -1    0    0    0    0 -0.00000000000E+00 -0.00000000000E+00 -0.42298086478E+03  0.42298086478E+03  0.00000000000E+00 0.  1.
         24    2    1    2    0    0  0.10030064101E+03  0.71592122947E+02 -0.30751611919E+03  0.34099785431E+03  0.80794321756E+02 0.  0.
         25    2    1    2    0    0 -0.97226266985E+02 -0.92314014426E+02 -0.11037020016E+02  0.18369592019E+03  0.12509017161E+03 0.  0.
        -24    2    1    2    0    0 -0.30743740267E+01  0.20721891479E+02  0.13695613496E+04  0.13722761655E+04  0.83694297312E+02 0.  0.
        -11    1    3    3    0    0  0.10650990005E+03  0.73644643191E+02 -0.30832030914E+03  0.33440888939E+03  0.00000000000E+00 0.  1.
         12    1    3    3    0    0 -0.62092590398E+01 -0.20525202445E+01  0.80418994906E+00  0.65889649151E+01  0.00000000000E+00 0. -1.
         13    1    5    5    0    0  0.11756394930E+02  0.46743360660E+02  0.11000979879E+04  0.11011533669E+04  0.00000000000E+00 0. -1.
        -14    1    5    5    0    0 -0.14830768956E+02 -0.26021469180E+02  0.26946336174E+03  0.27112279854E+03  0.00000000000E+00 0.  1.
          5    1    4    4  501    0 -0.18128200793E+02 -0.85735985995E+02  0.31909514405E+02  0.93354059730E+02  0.41800000000E+01 0. -1.
         -5    1    4    4    0  501 -0.79098066193E+02 -0.65780284312E+01 -0.42946534421E+02  0.90341860465E+02  0.41800000000E+01 0. -1.
</event>
<event>
11    1  0.8328696E-009  0.7976741E+03  0.7561462E-02  0.8899579E-01
         22   -1    0    0    0    0  0.00000000000E+00  0.00000000000E+00  0.67066846880E+03  0.67066846880E+03  0.00000000000E+00 0.  1.
         22   -1    0    0    0    0 -0.00000000000E+00 -0.00000000000E+00 -0.29682554359E+04  0.29682554359E+04  0.00000000000E+00 0. -1.
         24    2    1    2    0    0 -0.25522198463E+03  0.18940031106E+03 -0.16217901224E+03  0.36474967060E+03  0.75693797073E+02 0.  0.
         25    2    1    2    0    0 -0.30725217803E+03 -0.73432847300E+03 -0.23282514792E+04  0.24637461471E+04  0.12509164555E+03 0.  0.
        -24    2    1    2    0    0  0.56247416267E+03  0.54492816193E+03  0.19284352429E+03  0.81042808706E+03  0.79253858611E+02 0.  0.
        -13    1    3    3    0    0 -0.25017467507E+03  0.16018547110E+03 -0.14755910560E+03  0.33169329635E+03  0.00000000000E+00 0.  1.
         14    1    3    3    0    0 -0.50473095642E+01  0.29214839966E+02 -0.14619906646E+02  0.33056374248E+02  0.00000000000E+00 0. -1.
         11    1    5    5    0    0  0.21603278220E+03  0.18067284581E+03  0.36500611659E+02  0.28398087057E+03  0.00000000000E+00 0. -1.
        -12    1    5    5    0    0  0.34644138046E+03  0.36425531612E+03  0.15634291263E+03  0.52644721649E+03  0.00000000000E+00 0.  1.
          5    1    4    4  501    0 -0.83503162167E+02 -0.33919533871E+03 -0.11060959924E+04  0.11599534786E+04  0.41800000000E+01 0.  1.
         -5    1    4    4    0  501 -0.22374901586E+03 -0.39513313429E+03 -0.12221554868E+04  0.13037926684E+04  0.41800000000E+01 0.  1.
</event>
<event>
11    1  0.8328696E-009  0.1360454E+03  0.7561462E-02  0.1112057E+00
         22   -1    0    0    0    0  0.00000000000E+00  0.00000000000E+00  0.81954335387E+02  0.81954335387E+02  0.00000000000E+00 0.  1.
         22   -1    0    0    0    0 -0.00000000000E+00 -0.00000000000E+00 -0.12660256821E+04  0.12660256821E+04  0.00000000000E+00 0.  1.
        -24    2    1    2    0    0 -0.30796546451E+02 -0.61140735373E+01 -0.64232438811E+03  0.64798339809E+03  0.79473614963E+02 0.  0.
         25    2    1    2    0    0  0.82633365104E+02  0.67207660073E+01 -0.57852541031E+03  0.59767410900E+03  0.12509695629E+03 0.  0.
         24    2    1    2    0    0 -0.51836818653E+02 -0.60669247004E+00  0.36778451705E+02  0.10232251039E+03  0.80186144561E+02 0.  0.
        -11    1    5    5    0    0 -0.24353546103E+02 -0.48125814105E+01  0.60740963255E+02  0.65617991167E+02  0.00000000000E+00 0.  1.
         12    1    5    5    0    0 -0.27483272550E+02  0.42058889405E+01 -0.23962511550E+02  0.36704519227E+02  0.00000000000E+00 0. -1.
         13    1    3    3    0    0 -0.10803535243E+02 -0.35270995698E+02 -0.15302205168E+03  0.15740555204E+03  0.00000000000E+00 0. -1.
        -14    1    3    3    0    0 -0.19993011207E+02  0.29156922160E+02 -0.48930233643E+03  0.49057784606E+03  0.00000000000E+00 0.  1.
          5    1    4    4  501    0  0.49604883502E+02  0.28009616531E+02 -0.84049625900E+02  0.10162182393E+03  0.41800000000E+01 0.  1.
         -5    1    4    4    0  501  0.33028481602E+02 -0.21288850524E+02 -0.49447578441E+03  0.49605228507E+03  0.41800000000E+01 0.  1.
</event>
<event>
11    1  0.8328696E-009  0.1424904E+03  0.7561462E-02  0.1104809E+00
         22   -1    0    0    0    0  0.00000000000E+00  0.00000000000E+00  0.61627476294E+03  0.61627476294E+03  0.00000000000E+00 0.  1.
         22   -1    0    0    0    0 -0.00000000000E+00 -0.00000000000E+00 -0.20411719084E+03  0.20411719084E+03  0.00000000000E+00 0. -1.
         24    2    1    2    0    0  0.72253586554E+02  0.10890480409E+02 -0.15711284334E+03  0.19110470067E+03  0.80606313300E+02 0.  0.
         25    2    1    2    0    0 -0.10578492294E+02 -0.35660378637E+02  0.15837983547E+03  0.20522090130E+03  0.12509148229E+03 0.  0.
        -24    2    1    2    0    0 -0.61675094260E+02  0.24769898228E+02  0.41089057996E+03  0.42406635181E+03  0.81140846209E+02 0.  0.
        -11    1    3    3    0    0  0.20110230355E+02 -0.26313602686E+02 -0.99801926854E+02  0.10515346716E+03  0.00000000000E+00 0.  1.
         12    1    3    3    0    0  0.52143356199E+02  0.37204083095E+02 -0.57310916482E+02  0.85951233515E+02  0.00000000000E+00 0. -1.
         11    1    5    5    0    0  0.12852451292E+02  0.13053288879E+02  0.25719511083E+02  0.31576369410E+02  0.00000000000E+00 0. -1.
        -12    1    5    5    0    0 -0.74527545552E+02  0.11716609349E+02  0.38517106888E+03  0.39248998240E+03  0.00000000000E+00 0.  1.
          5    1    4    4  501    0 -0.40953029443E+02 -0.35893784725E+02  0.12335271958E+02  0.55992372129E+02  0.41800000000E+01 0. -1.
         -5    1    4    4    0  501  0.30374537149E+02  0.23340608722E+00  0.14604456351E+03  0.14922852917E+03  0.41800000000E+01 0. -1.
</event>
<event>
11    1  0.8328696E-009  0.1279806E+03  0.7561462E-02  0.1121775E+00
         22   -1    0    0    0    0  0.00000000000E+00  0.00000000000E+00  0.55905227439E+03  0.55905227439E+03  0.00000000000E+00 0. -1.
         22   -1    0    0    0    0 -0.00000000000E+00 -0.00000000000E+00 -0.77294511796E+03  0.77294511796E+03  0.00000000000E+00 0.  1.
         24    2    1    2    0    0 -0.25391507990E+02  0.45049581430E+01 -0.65389685783E+03  0.65865879950E+03  0.74734798722E+02 0.  0.
         25    2    1    2    0    0  0.43441174082E+02 -0.28130308545E+02 -0.74031880461E+02  0.15429568490E+03  0.12509192296E+03 0.  0.
        -24    2    1    2    0    0 -0.18049666092E+02  0.23625350402E+02  0.51403589472E+03  0.51904290795E+03  0.65488102735E+02 0.  0.
        -13    1    3    3    0    0  0.37559597997E-02  0.11761687412E+02 -0.58109542265E+03  0.58121444195E+03  0.00000000000E+00 0.  1.
         14    1    3    3    0    0 -0.25395263950E+02 -0.72567292695E+01 -0.72801435184E+02  0.77444357545E+02  0.00000000000E+00 0. -1.
         11    1    5    5    0    0 -0.11484143097E+02  0.43487034074E+02  0.43377899817E+03  0.43610460549E+03  0.00000000000E+00 0. -1.
        -12    1    5    5    0    0 -0.65655229946E+01 -0.19861683672E+02  0.80256896555E+02  0.82938302461E+02  0.00000000000E+00 0.  1.
          5    1    4    4  501    0  0.34413298685E+02  0.42977626248E+02 -0.62737415848E+01  0.55571428970E+02  0.41800000000E+01 0.  1.
         -5    1    4    4    0  501  0.90278753965E+01 -0.71107934793E+02 -0.67758138876E+02  0.98724255929E+02  0.41800000000E+01 0.  1.
</event>
<event>
11    1  0.8328696E-009  0.1504197E+03  0.7561462E-02  0.1096451E+00
         22   -1    0    0    0    0  0.00000000000E+00  0.00000000000E+00  0.46493833437E+03  0.46493833437E+03  0.00000000000E+00 0. -1.
         22   -1    0    0    0    0 -0.00000000000E+00 -0.00000000000E+00 -0.44777159277E+03  0.44777159277E+03  0.00000000000E+00 0.  1.
         24    2    1    2    0    0  0.78209179954E+02  0.38803376417E+02 -0.37537888876E+03  0.39368451454E+03  0.80348049166E+02 0.  0.
         25    2    1    2    0    0 -0.59719297869E+02  0.12919175549E+02  0.27672615373E+02  0.14193973058E+03  0.12509122208E+03 0.  0.
        -24    2    1    2    0    0 -0.18489882085E+02 -0.51722551966E+02  0.36487301500E+03  0.37708568202E+03  0.77744429953E+02 0.  0.
        -13    1    3    3    0    0  0.74869884316E+02  0.42156634173E+02 -0.37842476303E+03  0.38805667454E+03  0.00000000000E+00 0.  1.
         14    1    3    3    0    0  0.33392956376E+01 -0.33532577561E+01  0.30458742666E+01  0.56278399926E+01  0.00000000000E+00 0. -1.
         13    1    5    5    0    0  0.10920987670E+02 -0.62636960019E+02  0.23147231544E+03  0.24004601548E+03  0.00000000000E+00 0. -1.
        -14    1    5    5    0    0 -0.29410869755E+02  0.10914408053E+02  0.13340069955E+03  0.13703966654E+03  0.00000000000E+00 0.  1.
          5    1    4    4  501    0 -0.62867360410E+02 -0.17767574451E+02  0.65733002752E+02  0.92770101636E+02  0.41800000000E+01 0. -1.
         -5    1    4    4    0  501  0.31480625409E+01  0.30686750000E+02 -0.38060387380E+02  0.49169628947E+02  0.41800000000E+01 0. -1.
</event>
<event>
11    1  0.8328696E-009  0.1357499E+03  0.7561462E-02  0.1112399E+00
         22   -1    0    0    0    0  0.00000000000E+00  0.00000000000E+00  0.15136627578E+04  0.15136627578E+04  0.00000000000E+00 0.  1.
         22   -1    0    0    0    0 -0.00000000000E+00 -0.00000000000E+00 -0.35931197024E+03  0.35931197024E+03  0.00000000000E+00 0.  1.
        -24    2    1    2    0    0  0.22361334172E+02  0.47519454829E+02 -0.34078677469E+03  0.35402462440E+03  0.80247623176E+02 0.  0.
         25    2    1    2    0    0 -0.29575401684E+02 -0.61364252161E+02  0.47635946691E+03  0.49719865019E+03  0.12509148733E+03 0.  0.
         24    2    1    2    0    0  0.72140675123E+01  0.13844797332E+02  0.10187780954E+04  0.10217514535E+04  0.76311885674E+02 0.  0.
        -11    1    5    5    0    0  0.21614611655E+02  0.17658362251E+02  0.97697028338E+03  0.97736888829E+03  0.00000000000E+00 0.  1.
         12    1    5    5    0    0 -0.14400544143E+02 -0.38135649189E+01  0.41807811980E+02  0.44382565175E+02  0.00000000000E+00 0. -1.
         13    1    3    3    0    0  0.66007553338E+01 -0.22294359840E+02 -0.62595057645E+02  0.66773869838E+02  0.00000000000E+00 0. -1.
        -14    1    3    3    0    0  0.15760578838E+02  0.69813814669E+02 -0.27819171705E+03  0.28725075456E+03  0.00000000000E+00 0.  1.
          5    1    4    4  501    0  0.41996048439E+02 -0.48776114153E+02  0.29092661757E+03  0.29799084987E+03  0.41800000000E+01 0. -1.
         -5    1    4    4    0  501 -0.71571450123E+02 -0.12588138009E+02  0.18543284935E+03  0.19920780032E+03  0.41800000000E+01 0. -1.
</event>
<event>
11    1  0.8328696E-009  0.2793582E+03  0.7561462E-02  0.1009327E+00
         22   -1    0    0    0    0  0.00000000000E+00  0.00000000000E+00  0.11067026817E+04  0.11067026817E+04  0.00000000000E+00 0. -1.
         22   -1    0    0    0    0 -0.00000000000E+00 -0.00000000000E+00 -0.31442435151E+03  0.31442435151E+03  0.00000000000E+00 0.  1.
        -24    2    1    2    0    0 -0.28672772307E+02 -0.70938302494E+02 -0.18001217883E+03  0.21130027248E+03  0.79931533158E+02 0.  0.
         25    2    1    2    0    0  0.23125231760E+03 -0.80153124167E+02  0.91827744730E+02  0.28979585073E+03  0.12508853939E+03 0.  0.
         24    2    1    2    0    0 -0.20257954530E+03  0.15109142666E+03  0.88046276432E+03  0.92003091004E+03  0.85878429661E+02 0.  0.
        -13    1    5    5    0    0 -0.34927593715E+02 -0.79253960756E+01  0.12263641305E+03  0.12775929912E+03  0.00000000000E+00 0.  1.
         14    1    5    5    0    0 -0.16765195158E+03  0.15901682274E+03  0.75782635128E+03  0.79227161092E+03  0.00000000000E+00 0. -1.
         13    1    3    3    0    0 -0.10382709126E+01  0.37488069768E+01 -0.94009021642E+02  0.94089466521E+02  0.00000000000E+00 0. -1.
        -14    1    3    3    0    0 -0.27634501394E+02 -0.74687109471E+02 -0.86003157184E+02  0.11721080596E+03  0.00000000000E+00 0.  1.
          5    1    4    4  501    0  0.13595387737E+03 -0.96053597516E+02  0.97435508783E+02  0.19292719129E+03  0.41800000000E+01 0.  1.
         -5    1    4    4    0  501  0.95298440231E+02  0.15900473349E+02 -0.56077640530E+01  0.96868659435E+02  0.41800000000E+01 0.  1.
</event>
<event>
11    1  0.8328696E-009  0.3952967E+03  0.7561462E-02  0.9663738E-01
         22   -1    0    0    0    0  0.00000000000E+00  0.00000000000E+00  0.13832033601E+04  0.13832033601E+04  0.00000000000E+00 0. -1.
         22   -1    0    0    0    0 -0.00000000000E+00 -0.00000000000E+00 -0.26067084549E+03  0.26067084549E+03  0.00000000000E+00 0. -1.
         24    2    1    2    0    0 -0.38162464973E+03  0.67048376196E+02 -0.14411930118E+02  0.39566251066E+03  0.78792515984E+02 0.  0.
         25    2    1    2    0    0  0.33531236896E+03 -0.15962510263E+02  0.58156331572E+03  0.68304574126E+03  0.12508560249E+03 0.  0.
        -24    2    1    2    0    0  0.46312280768E+02 -0.51085865933E+02  0.55538112901E+03  0.56516595368E+03  0.78802053866E+02 0.  0.
        -11    1    3    3    0    0 -0.47241175839E+02 -0.17149746814E+02 -0.71589774062E+01  0.50765081187E+02  0.00000000000E+00 0.  1.
         12    1    3    3    0    0 -0.33438347389E+03  0.84198123010E+02 -0.72529527115E+01  0.34489742947E+03  0.00000000000E+00 0. -1.
         13    1    5    5    0    0  0.41601803249E+02 -0.68859383639E+02  0.35789937196E+03  0.36683004947E+03  0.00000000000E+00 0. -1.
        -14    1    5    5    0    0  0.47104775189E+01  0.17773517706E+02  0.19748175705E+03  0.19833590421E+03  0.00000000000E+00 0.  1.
          5    1    4    4  501    0  0.17064581927E+03 -0.12272274210E+02  0.17693438444E+03  0.24615818724E+03  0.41800000000E+01 0. -1.
         -5    1    4    4    0  501  0.16466654970E+03 -0.36902360527E+01  0.40462893128E+03  0.43688755402E+03  0.41800000000E+01 0. -1.
</event>
<event>
11    1  0.8328696E-009  0.2301194E+03  0.7561462E-02  0.1035057E+00
         22   -1    0    0    0    0  0.00000000000E+00  0.00000000000E+00  0.19386982803E+04  0.19386982803E+04  0.00000000000E+00 0.  1.
         22   -1    0    0    0    0 -0.00000000000E+00 -0.00000000000E+00 -0.24289059887E+04  0.24289059887E+04  0.00000000000E+00 0.  1.
        -24    2    1    2    0    0 -0.14070610507E+03 -0.12617056936E+03 -0.20249557759E+04  0.20353277375E+04  0.79974273110E+02 0.  0.
         25    2    1    2    0    0  0.19170650252E+03  0.12679925540E+03 -0.35456142491E+03  0.44067100964E+03  0.12509076878E+03 0.  0.
         24    2    1    2    0    0 -0.51000397446E+02 -0.62868603516E+00  0.18893094924E+04  0.18916055218E+04  0.77972149926E+02 0.  0.
        -11    1    5    5    0    0  0.13972006525E+00  0.30140762869E+02  0.89420352298E+03  0.89471136442E+03  0.00000000000E+00 0.  1.
         12    1    5    5    0    0 -0.51140117511E+02 -0.30769448904E+02  0.99510596942E+03  0.99689415736E+03  0.00000000000E+00 0. -1.
         11    1    3    3    0    0 -0.16336922212E+02 -0.64048302309E+02 -0.62397715832E+03  0.62746838499E+03  0.00000000000E+00 0. -1.
        -12    1    3    3    0    0 -0.12436918286E+03 -0.62122267053E+02 -0.14009786176E+04  0.14078593526E+04  0.00000000000E+00 0.  1.
          5    1    4    4  501    0  0.12187900809E+03  0.13838647692E+03 -0.20897144137E+03  0.27873256953E+03  0.41800000000E+01 0.  1.
         -5    1    4    4    0  501  0.69827494429E+02 -0.11587221527E+02 -0.14558998354E+03  0.16193844011E+03  0.41800000000E+01 0.  1.
</event>
<event>
11    1  0.8328696E-009  0.2085584E+03  0.7561462E-02  0.1048631E+00
         22   -1    0    0    0    0  0.00000000000E+00  0.00000000000E+00  0.11928168877E+04  0.11928168877E+04  0.00000000000E+00 0. -1.
         22   -1    0    0    0    0 -0.00000000000E+00 -0.00000000000E+00 -0.45401939322E+03  0.45401939322E+03  0.00000000000E+00 0. -1.
        -24    2    1    2    0    0  0.16217429574E+03 -0.47198137983E+02 -0.34699097885E+03  0.39524957674E+03  0.85389238668E+02 0.  0.
         25    2    1    2    0    0 -0.16139747490E+03  0.10348027568E+01  0.46949333817E+02  0.20952191430E+03  0.12507988210E+03 0.  0.
         24    2    1    2    0    0 -0.77682083919E+00  0.46163335226E+02  0.10388391395E+04  0.10420647899E+04  0.67680215384E+02 0.  0.
        -13    1    5    5    0    0 -0.17024442853E+02  0.44970589500E+01  0.69546928650E+02  0.71741413969E+02  0.00000000000E+00 0.  1.
         14    1    5    5    0    0  0.16247622014E+02  0.41666276276E+02  0.96929221090E+03  0.97032337595E+03  0.00000000000E+00 0. -1.
         11    1    3    3    0    0  0.15810191357E+03 -0.62811664991E+02 -0.29203097099E+03  0.33796983350E+03  0.00000000000E+00 0. -1.
        -12    1    3    3    0    0  0.40723821665E+01  0.15613527008E+02 -0.54960007858E+02  0.57279743242E+02  0.00000000000E+00 0.  1.
          5    1    4    4  501    0 -0.47494260301E+02 -0.22169607924E+02 -0.38519012579E+02  0.65179621103E+02  0.41800000000E+01 0.  1.
         -5    1    4    4    0  501 -0.11390321460E+03  0.23204410680E+02  0.85468346396E+02  0.14434229320E+03  0.41800000000E+01 0.  1.
</event>
<event>
11    1  0.8328696E-009  0.1424331E+03  0.7561462E-02  0.1104871E+00
         22   -1    0    0    0    0  0.00000000000E+00  0.00000000000E+00  0.74576256856E+03  0.74576256856E+03  0.00000000000E+00 0. -1.
         22   -1    0    0    0    0 -0.00000000000E+00 -0.00000000000E+00 -0.51588362176E+03  0.51588362176E+03  0.00000000000E+00 0. -1.
        -24    2    1    2    0    0 -0.67134686625E+02 -0.13062781531E+02 -0.47726850017E+03  0.48881964761E+03  0.80509156154E+02 0.  0.
         25    2    1    2    0    0 -0.10550543817E+01  0.47966509070E+02  0.13602647356E+03  0.19092286238E+03  0.12508572556E+03 0.  0.
         24    2    1    2    0    0  0.68189741006E+02 -0.34903727539E+02  0.57112097341E+03  0.58190368032E+03  0.81022317524E+02 0.  0.
        -11    1    5    5    0    0 -0.36001935473E+01 -0.35843958002E+02  0.12674312126E+03  0.13176330864E+03  0.00000000000E+00 0.  1.
         12    1    5    5    0    0  0.71789934554E+02  0.94023046329E+00  0.44437785215E+03  0.45014037168E+03  0.00000000000E+00 0. -1.
         11    1    3    3    0    0 -0.68152975507E+00 -0.58849631427E+01 -0.28860953476E+03  0.28867033244E+03  0.00000000000E+00 0. -1.
        -12    1    3    3    0    0 -0.66453156870E+02 -0.71778183881E+01 -0.18865896540E+03  0.20014931517E+03  0.00000000000E+00 0.  1.
          5    1    4    4  501    0 -0.43248453236E+02 -0.94362013722E+01  0.10320040995E+03  0.11237111558E+03  0.41800000000E+01 0. -1.
         -5    1    4    4    0  501  0.42193398854E+02  0.57402710442E+02  0.32826063613E+02  0.78551746799E+02  0.41800000000E+01 0. -1.
</event>
<event>
11    1  0.8328696E-009  0.1470128E+03  0.7561462E-02  0.1099971E+00
         22   -1    0    0    0    0  0.00000000000E+00  0.00000000000E+00  0.97106964120E+03  0.97106964120E+03  0.00000000000E+00 0. -1.
         22   -1    0    0    0    0 -0.00000000000E+00 -0.00000000000E+00 -0.50103023265E+03  0.50103023265E+03  0.00000000000E+00 0.  1.
         24    2    1    2    0    0  0.41770613070E+02 -0.19214291648E+02 -0.46944425245E+03  0.47747410622E+03  0.74092123993E+02 0.  0.
         25    2    1    2    0    0  0.17153077732E+02  0.72993261105E+02  0.20397947110E+03  0.25072737736E+03  0.12503738994E+03 0.  0.
        -24    2    1    2    0    0 -0.58923690802E+02 -0.53778969457E+02  0.73550418990E+03  0.74389839027E+03  0.77808886332E+02 0.  0.
        -13    1    3    3    0    0  0.12825347562E+02  0.10652918706E+02 -0.36011520277E+03  0.36050094796E+03  0.00000000000E+00 0.  1.
         14    1    3    3    0    0  0.28945265508E+02 -0.29867210354E+02 -0.10932904968E+03  0.11697315826E+03  0.00000000000E+00 0. -1.
         13    1    5    5    0    0 -0.90497378005E+01 -0.32150807303E+02  0.53840163587E+03  0.53943664473E+03  0.00000000000E+00 0. -1.
        -14    1    5    5    0    0 -0.49873953002E+02 -0.21628162155E+02  0.19710255403E+03  0.20446174554E+03  0.00000000000E+00 0.  1.
          5    1    4    4  501    0  0.25211020683E+02  0.10606446724E+03  0.17290962464E+03  0.20445165069E+03  0.41800000000E+01 0. -1.
         -5    1    4    4    0  501 -0.80579429506E+01 -0.33071206136E+02  0.31069846452E+02  0.46275726666E+02  0.41800000000E+01 0. -1.
</event>
<event>
11    1  0.8328696E-009  0.1356726E+03  0.7561462E-02  0.1112489E+00
         22   -1    0    0    0    0  0.00000000000E+00  0.00000000000E+00  0.81340964933E+02  0.81340964933E+02  0.00000000000E+00 0.  1.
         22   -1    0    0    0    0 -0.00000000000E+00 -0.00000000000E+00 -0.14296316862E+04  0.14296316862E+04  0.00000000000E+00 0.  1.
         24    2    1    2    0    0  0.34124133863E+02  0.38533502523E+02 -0.11460014049E+04  0.11500320113E+04  0.81271888047E+02 0.  0.
         25    2    1    2    0    0 -0.78823488945E+02 -0.13801832369E+02 -0.21865113215E+03  0.26430985136E+03  0.12509095471E+03 0.  0.
        -24    2    1    2    0    0  0.44699355082E+02 -0.24731670154E+02  0.16361815750E+02  0.96630788445E+02  0.80374824463E+02 0.  0.
        -11    1    3    3    0    0 -0.19557437013E+02  0.99704396171E-01 -0.55676515839E+03  0.55710855754E+03  0.00000000000E+00 0.  1.
         12    1    3    3    0    0  0.53681570876E+02  0.38433798127E+02 -0.58923624650E+03  0.59292345381E+03  0.00000000000E+00 0. -1.
         13    1    5    5    0    0 -0.34974873874E+01 -0.33016426865E+02 -0.17128161682E+02  0.37358945162E+02  0.00000000000E+00 0. -1.
        -14    1    5    5    0    0  0.48196842469E+02  0.82847567113E+01  0.33489977432E+02  0.59271843283E+02  0.00000000000E+00 0.  1.
          5    1    4    4  501    0  0.32889171784E+02 -0.15704579061E+02 -0.54942415253E+02  0.66064156832E+02  0.41800000000E+01 0.  1.
         -5    1    4    4    0  501 -0.11171266073E+03  0.19027466917E+01 -0.16370871690E+03  0.19824569453E+03  0.41800000000E+01 0.  1.
</event>
<event>
11    1  0.8328696E-009  0.1385613E+03  0.7561462E-02  0.1109176E+00
         22   -1    0    0    0    0  0.00000000000E+00  0.00000000000E+00  0.71877403097E+03  0.71877403097E+03  0.00000000000E+00 0. -1.
         22   -1    0    0    0    0 -0.00000000000E+00 -0.00000000000E+00 -0.24774082677E+03  0.24774082677E+03  0.00000000000E+00 0.  1.
        -24    2    1    2    0    0  0.38958555939E+02 -0.41005214730E+02 -0.11611595742E+03  0.15195318676E+03  0.80047852447E+02 0.  0.
         25    2    1    2    0    0 -0.57838075016E+02  0.37407618247E+02 -0.65187403309E+02  0.15695408533E+03  0.12506244251E+03 0.  0.
         24    2    1    2    0    0  0.18879519078E+02  0.35975964827E+01  0.65233656494E+03  0.65760758565E+03  0.80841597003E+02 0.  0.
        -13    1    5    5    0    0  0.25123109427E+02 -0.20377735628E+02  0.10881051583E+03  0.11351718413E+03  0.00000000000E+00 0.  1.
         14    1    5    5    0    0 -0.62435903496E+01  0.23975332111E+02  0.54352604910E+03  0.54409040152E+03  0.00000000000E+00 0. -1.
         13    1    3    3    0    0  0.14809702099E+02 -0.87327828099E+01  0.97678597049E+01  0.19773716269E+02  0.00000000000E+00 0. -1.
        -14    1    3    3    0    0  0.24148853840E+02 -0.32272431920E+02 -0.12588381713E+03  0.13217947049E+03  0.00000000000E+00 0.  1.
          5    1    4    4  501    0 -0.96632154602E+02  0.27971271555E+02 -0.57924551689E+02  0.11615890592E+03  0.41800000000E+01 0.  1.
         -5    1    4    4    0  501  0.38794079585E+02  0.94363466924E+01 -0.72628516199E+01  0.40795179414E+02  0.41800000000E+01 0.  1.
</event>
<event>
11    1  0.8328696E-009  0.1382328E+03  0.7561462E-02  0.1109548E+00
         22   -1    0    0    0    0  0.00000000000E+00  0.00000000000E+00  0.25222624611E+03  0.25222624611E+03  0.00000000000E+00 0. -1.
         22   -1    0    0    0    0 -0.00000000000E+00 -0.00000000000E+00 -0.30914435629E+03  0.30914435629E+03  0.00000000000E+00 0.  1.
        -24    2    1    2    0    0  0.64162248029E+02  0.91120739808E+01 -0.20008652177E+03  0.22524208470E+03  0.80619827333E+02 0.  0.
         25    2    1    2    0    0 -0.27808550127E+02 -0.35571349688E+02 -0.33138010657E+02  0.13705360486E+03  0.12508767516E+03 0.  0.
         24    2    1    2    0    0 -0.36353697902E+02  0.26459275707E+02  0.17630642225E+03  0.19907491284E+03  0.80778597254E+02 0.  0.
        -13    1    5    5    0    0 -0.43304871469E+02 -0.12721680300E+02  0.53571553286E+02  0.70050441569E+02  0.00000000000E+00 0.  1.
         14    1    5    5    0    0  0.69511735665E+01  0.39180956007E+02  0.12273486896E+03  0.12902447127E+03  0.00000000000E+00 0. -1.
         13    1    3    3    0    0  0.39004186407E+02 -0.95836089335E+01 -0.24862720001E+02  0.47236923729E+02  0.00000000000E+00 0. -1.
        -14    1    3    3    0    0  0.25158061622E+02  0.18695682914E+02 -0.17522380177E+03  0.17800516097E+03  0.00000000000E+00 0.  1.
          5    1    4    4  501    0 -0.11934464237E+02  0.45239723893E+02 -0.27427004592E+02  0.54394641606E+02  0.41800000000E+01 0. -1.
         -5    1    4    4    0  501 -0.15874085890E+02 -0.80811073581E+02 -0.57110060648E+01  0.82658963255E+02  0.41800000000E+01 0. -1.
</event>
<event>
11    1  0.8328696E-009  0.1288575E+03  0.7561462E-02  0.1120681E+00
         22   -1    0    0    0    0  0.00000000000E+00  0.00000000000E+00  0.35209692416E+03  0.35209692416E+03  0.00000000000E+00 0. -1.
         22   -1    0    0    0    0 -0.00000000000E+00 -0.00000000000E+00 -0.94463186621E+03  0.94463186621E+03  0.00000000000E+00 0. -1.
         24    2    1    2    0    0  0.25745046089E+02  0.27155107470E+02 -0.83450523941E+03  0.83922659485E+03  0.80635449025E+02 0.  0.
         25    2    1    2    0    0  0.30475206146E+01 -0.40785058979E+02 -0.53413247926E+02  0.14202881512E+03  0.12508597384E+03 0.  0.
        -24    2    1    2    0    0 -0.28792566704E+02  0.13629951509E+02  0.29538354529E+03  0.31547338041E+03  0.10610008220E+03 0.  0.
        -13    1    3    3    0    0  0.25760491091E+02 -0.25257569695E+02 -0.30159149362E+03  0.30374162829E+03  0.00000000000E+00 0.  1.
         14    1    3    3    0    0 -0.15445002277E-01  0.52412677165E+02 -0.53291374579E+03  0.53548496657E+03  0.00000000000E+00 0. -1.
         13    1    5    5    0    0 -0.83344220562E+01  0.55465841600E+02  0.21851136118E+03  0.22559507339E+03  0.00000000000E+00 0. -1.
        -14    1    5    5    0    0 -0.20458144648E+02 -0.41835890091E+02  0.76872184112E+02  0.89878307017E+02  0.00000000000E+00 0.  1.
          5    1    4    4  501    0 -0.45715529518E+02 -0.11858851185E+02  0.18030436154E+02  0.50725841722E+02  0.41800000000E+01 0. -1.
         -5    1    4    4    0  501  0.48763050133E+02 -0.28926207795E+02 -0.71443684080E+02  0.91302973394E+02  0.41800000000E+01 0. -1.
</event>
<event>
11    1  0.8328696E-009  0.1499100E+03  0.7561462E-02  0.1096971E+00
         22   -1    0    0    0    0  0.00000000000E+00  0.00000000000E+00  0.85618007091E+03  0.85618007091E+03  0.00000000000E+00 0. -1.
         22   -1    0    0    0    0 -0.00000000000E+00 -0.00000000000E+00 -0.61042032711E+03  0.61042032711E+03  0.00000000000E+00 0. -1.
         24    2    1    2    0    0 -0.78940432184E+02  0.57328794372E+01 -0.49821554729E+03  0.51113100733E+03  0.82290445101E+02 0.  0.
         25    2    1    2    0    0  0.12591754914E+03  0.22118571160E+02 -0.24882044258E+02  0.18058513322E+03  0.12508962323E+03 0.  0.
        -24    2    1    2    0    0 -0.46977116954E+02 -0.27851450597E+02  0.76885733535E+03  0.77488425748E+03  0.79507594263E+02 0.  0.
        -13    1    3    3    0    0 -0.63332042351E+02 -0.63781457997E+01 -0.15796335155E+03  0.17030575083E+03  0.00000000000E+00 0.  1.
         14    1    3    3    0    0 -0.15608389833E+02  0.12111025237E+02 -0.34025219573E+03  0.34082525650E+03  0.00000000000E+00 0. -1.
         13    1    5    5    0    0 -0.40550212773E+02  0.20698736837E+02  0.29339223228E+03  0.29690361976E+03  0.00000000000E+00 0. -1.
        -14    1    5    5    0    0 -0.64269041813E+01 -0.48550187434E+02  0.47546510306E+03  0.47798063771E+03  0.00000000000E+00 0.  1.
          5    1    4    4  501    0  0.10660972310E+03 -0.21718075394E+02  0.24563147998E+02  0.11161598675E+03  0.41800000000E+01 0.  1.
         -5    1    4    4    0  501  0.19307826041E+02  0.43836646554E+02 -0.49445192256E+02  0.68969146470E+02  0.41800000000E+01 0.  1.
</event>
<event>
11    1  0.8328696E-009  0.1727676E+03  0.7561462E-02  0.1075648E+00
         22   -1    0    0    0    0  0.00000000000E+00  0.00000000000E+00  0.23646837690E+03  0.23646837690E+03  0.00000000000E+00 0.  1.
         22   -1    0    0    0    0 -0.00000000000E+00 -0.00000000000E+00 -0.25454153045E+04  0.25454153045E+04  0.00000000000E+00 0. -1.
         24    2    1    2    0    0 -0.38118128575E+01 -0.53676759513E+02 -0.21877396730E+04  0.21898960260E+04  0.80895015533E+02 0.  0.
         25    2    1    2    0    0  0.12257060664E+03  0.55220858639E+02 -0.30447471965E+03  0.35556211784E+03  0.12508664157E+03 0.  0.
        -24    2    1    2    0    0 -0.11875879378E+03 -0.15440991261E+01  0.18326746504E+03  0.23642553755E+03  0.90576132184E+02 0.  0.
        -11    1    3    3    0    0 -0.17522582442E+02 -0.12636423160E+02 -0.13641728350E+03  0.13811732449E+03  0.00000000000E+00 0.  1.
         12    1    3    3    0    0  0.13710769584E+02 -0.41040336353E+02 -0.20513223895E+04  0.20517787015E+04  0.00000000000E+00 0. -1.
         11    1    5    5    0    0 -0.32384937911E+02  0.41493778569E+02  0.70997672386E+02  0.88380921853E+02  0.00000000000E+00 0. -1.
        -12    1    5    5    0    0 -0.86373855872E+02 -0.43037877695E+02  0.11226979265E+03  0.14804461570E+03  0.00000000000E+00 0.  1.
          5    1    4    4  501    0 -0.21947242721E+02  0.14256613701E+02 -0.89012316681E+02  0.92874094441E+02  0.41800000000E+01 0.  1.
         -5    1    4    4    0  501  0.14451784936E+03  0.40964244938E+02 -0.21546240297E+03  0.26268802340E+03  0.41800000000E+01 0.  1.
</event>
<event>
11    1  0.8328696E-009  0.1648947E+03  0.7561462E-02  0.1082562E+00
         22   -1    0    0    0    0  0.00000000000E+00  0.00000000000E+00  0.35279951506E+03  0.35279951506E+03  0.00000000000E+00 0.  1.
         22   -1    0    0    0    0 -0.00000000000E+00 -0.00000000000E+00 -0.19612248543E+04  0.19612248543E+04  0.00000000000E+00 0. -1.
         24    2    1    2    0    0  0.23060042826E+01 -0.22535976163E+02 -0.15691994316E+04  0.15714408123E+04  0.80784791453E+02 0.  0.
         25    2    1    2    0    0 -0.71923545917E+02  0.10352194728E+03 -0.35655147943E+03  0.39832935164E+03  0.12509006704E+03 0.  0.
        -24    2    1    2    0    0  0.69617541635E+02 -0.80985971118E+02  0.31732557182E+03  0.34425420540E+03  0.80063161208E+02 0.  0.
        -13    1    3    3    0    0 -0.67950937616E+00  0.29134059395E+02 -0.38007754665E+03  0.38119312247E+03  0.00000000000E+00 0.  1.
         14    1    3    3    0    0  0.29855136587E+01 -0.51670035558E+02 -0.11891218850E+04  0.11902476898E+04  0.00000000000E+00 0. -1.
         11    1    5    5    0    0 -0.73543865413E+01 -0.32010155828E+02  0.15119673454E+03  0.15472294469E+03  0.00000000000E+00 0. -1.
        -12    1    5    5    0    0  0.76971928176E+02 -0.48975815290E+02  0.16612883728E+03  0.18953126071E+03  0.00000000000E+00 0.  1.
          5    1    4    4  501    0 -0.66525160494E+02  0.16436453028E+02 -0.25641539572E+03  0.26544694673E+03  0.41800000000E+01 0.  1.
         -5    1    4    4    0  501 -0.53983854237E+01  0.87085494254E+02 -0.10013608371E+03  0.13288240491E+03  0.41800000000E+01 0.  1.
</event>
<event>
11    1  0.8328696E-009  0.1416273E+03  0.7561462E-02  0.1105755E+00
         22   -1    0    0    0    0  0.00000000000E+00  0.00000000000E+00  0.30626041752E+03  0.30626041752E+03  0.00000000000E+00 0. -1.
         22   -1    0    0    0    0 -0.00000000000E+00 -0.00000000000E+00 -0.36572603821E+03  0.36572603821E+03  0.00000000000E+00 0. -1.
         24    2    1    2    0    0 -0.24610083371E+01  0.63321492065E+02 -0.21951915897E+03  0.24345877518E+03  0.84070483170E+02 0.  0.
         25    2    1    2    0    0 -0.17673874014E+02 -0.77431429521E+02 -0.84364616389E+02  0.17050618698E+03  0.12508788590E+03 0.  0.
        -24    2    1    2    0    0  0.20134882351E+02  0.14109937456E+02  0.24441815467E+03  0.25802149357E+03  0.78932585119E+02 0.  0.
        -11    1    3    3    0    0 -0.82453166433E+01  0.10024796389E+02  0.40143032747E+01  0.13586626512E+02  0.00000000000E+00 0.  1.
         12    1    3    3    0    0  0.57843083062E+01  0.53296695675E+02 -0.22353346224E+03  0.22987214867E+03  0.00000000000E+00 0. -1.
         13    1    5    5    0    0 -0.11704036977E+02 -0.56951647590E+01  0.19764957105E+03  0.19807769263E+03  0.00000000000E+00 0. -1.
        -14    1    5    5    0    0  0.31838919328E+02  0.19805102215E+02  0.46768583619E+02  0.59943800943E+02  0.00000000000E+00 0.  1.
          5    1    4    4  501    0  0.45122299344E+02 -0.59435462528E+02 -0.17145554550E+02  0.76681409382E+02  0.41800000000E+01 0.  1.
         -5    1    4    4    0  501 -0.62796173358E+02 -0.17995966993E+02 -0.67219061839E+02  0.93824777596E+02  0.41800000000E+01 0.  1.
</event>
<event>
11    1  0.8328696E-009  0.1722742E+03  0.7561462E-02  0.1076069E+00
         22   -1    0    0    0    0  0.00000000000E+00  0.00000000000E+00  0.30353910215E+03  0.30353910215E+03  0.00000000000E+00 0. -1.
         22   -1    0    0    0    0 -0.00000000000E+00 -0.00000000000E+00 -0.45549005452E+03  0.45549005452E+03  0.00000000000E+00 0. -1.
        -24    2    1    2    0    0 -0.23183503526E+02 -0.10806624508E+03 -0.18478100349E+03  0.23092995100E+03  0.83479547544E+02 0.  0.
         25    2    1    2    0    0  0.11970979674E+03  0.95737457473E+02 -0.18818397293E+03  0.27305533701E+03  0.12509961312E+03 0.  0.
         24    2    1    2    0    0 -0.96526293209E+02  0.12328787609E+02  0.22101402404E+03  0.25504386866E+03  0.82041768818E+02 0.  0.
        -13    1    5    5    0    0  0.61456428058E+01  0.12048786668E+02  0.27011101230E+01  0.13792685799E+02  0.00000000000E+00 0.  1.
         14    1    5    5    0    0 -0.10267193602E+03  0.28000094081E+00  0.21831291392E+03  0.24125118286E+03  0.00000000000E+00 0. -1.
         11    1    3    3    0    0 -0.27162627471E+02 -0.12131113512E+03 -0.17093944614E+03  0.21136341709E+03  0.00000000000E+00 0. -1.
        -12    1    3    3    0    0  0.39791239453E+01  0.13244890042E+02 -0.13841557343E+02  0.19566533911E+02  0.00000000000E+00 0.  1.
          5    1    4    4  501    0 -0.65798903865E+01  0.60727811319E+02 -0.91707102981E+02  0.11026707198E+03  0.41800000000E+01 0. -1.
         -5    1    4    4    0  501  0.12628968712E+03  0.35009646154E+02 -0.96476869947E+02  0.16278826503E+03  0.41800000000E+01 0. -1.
</event>
<event>
11    1  0.8328696E-009  0.1539818E+03  0.7561462E-02  0.1092878E+00
         22   -1    0    0    0    0  0.00000000000E+00  0.00000000000E+00  0.32350278681E+03  0.32350278681E+03  0.00000000000E+00 0.  1.
         22   -1    0    0    0    0 -0.00000000000E+00 -0.00000000000E+00 -0.77342587072E+03  0.77342587072E+03  0.00000000000E+00 0.  1.
        -24    2    1    2    0    0  0.69827239362E+02 -0.86453687686E+01 -0.67882606692E+03  0.68651847958E+03  0.74513139145E+02 0.  0.
         25    2    1    2    0    0 -0.14092317343E+03  0.41131628241E+02  0.48652840440E+02  0.19891169995E+03  0.12509042265E+03 0.  0.
         24    2    1    2    0    0  0.71095934073E+02 -0.32486259473E+02  0.18025014257E+03  0.21149847802E+03  0.78303916952E+02 0.  0.
        -11    1    5    5    0    0  0.56019231988E+02 -0.54441634787E+02  0.99688689635E+02  0.12664865097E+03  0.00000000000E+00 0.  1.
         12    1    5    5    0    0  0.15076702085E+02  0.21955375314E+02  0.80561452938E+02  0.84849827050E+02  0.00000000000E+00 0. -1.
         11    1    3    3    0    0  0.24071066793E+02  0.29491865463E+02 -0.16956638911E+03  0.17378707288E+03  0.00000000000E+00 0. -1.
        -12    1    3    3    0    0  0.45756172569E+02 -0.38137234231E+02 -0.50925967782E+03  0.51273140670E+03  0.00000000000E+00 0.  1.
          5    1    4    4  501    0 -0.24681347374E+02  0.44120696949E+02 -0.29560690807E+02  0.58712108193E+02  0.41800000000E+01 0.  1.
         -5    1    4    4    0  501 -0.11624182606E+03 -0.29890687078E+01  0.78213531247E+02  0.14019959175E+03  0.41800000000E+01 0.  1.
</event>
<event>
11    1  0.8328696E-009  0.1674902E+03  0.7561462E-02  0.1080237E+00
         22   -1    0    0    0    0  0.00000000000E+00  0.00000000000E+00  0.54613176643E+03  0.54613176643E+03  0.00000000000E+00 0. -1.
         22   -1    0    0    0    0 -0.00000000000E+00 -0.00000000000E+00 -0.38744543461E+03  0.38744543461E+03  0.00000000000E+00 0.  1.
        -24    2    1    2    0    0  0.63439012352E+02 -0.65277351827E+02 -0.27918004907E+03  0.30694615395E+03  0.89380091072E+02 0.  0.
         25    2    1    2    0    0 -0.10804918553E+03 -0.40918846221E+02  0.41805900305E+01  0.17033919046E+03  0.12509589923E+03 0.  0.
         24    2    1    2    0    0  0.44610173175E+02  0.10619619805E+03  0.43368579085E+03  0.45629185662E+03  0.82771934897E+02 0.  0.
        -13    1    5    5    0    0 -0.14373247026E+02  0.15054150264E+01  0.15534024848E+02  0.21217031660E+02  0.00000000000E+00 0.  1.
         14    1    5    5    0    0  0.58983420201E+02  0.10469078302E+03  0.41815176600E+03  0.43507482496E+03  0.00000000000E+00 0. -1.
         13    1    3    3    0    0  0.65867277627E+02 -0.12801832963E+02 -0.10158912555E+03  0.12174865756E+03  0.00000000000E+00 0. -1.
        -14    1    3    3    0    0 -0.24282652743E+01 -0.52475518864E+02 -0.17759092352E+03  0.18519749639E+03  0.00000000000E+00 0.  1.
          5    1    4    4  501    0 -0.67001580475E+02 -0.16447056173E+02 -0.59094014121E+02  0.90935649488E+02  0.41800000000E+01 0. -1.
         -5    1    4    4    0  501 -0.41047605053E+02 -0.24471790048E+02  0.63274604152E+02  0.79403540975E+02  0.41800000000E+01 0. -1.
</event>
<event>
11    1  0.8328696E-009  0.1546565E+03  0.7561462E-02  0.1092214E+00
         22   -1    0    0    0    0  0.00000000000E+00  0.00000000000E+00  0.33910313091E+03  0.33910313091E+03  0.00000000000E+00 0.  1.
         22   -1    0    0    0    0 -0.00000000000E+00 -0.00000000000E+00 -0.44967213575E+03  0.44967213575E+03  0.00000000000E+00 0. -1.
        -24    2    1    2    0    0  0.71185723566E+01 -0.26562734789E+02 -0.30017713327E+03  0.31265047335E+03  0.82992494825E+02 0.  0.
         25    2    1    2    0    0 -0.56042164179E+01 -0.66778842489E+02 -0.91690220660E+02  0.16895318135E+03  0.12508900781E+03 0.  0.
         24    2    1    2    0    0 -0.15143559387E+01  0.93341577278E+02  0.28129834908E+03  0.30717161196E+03  0.80688875797E+02 0.  0.
        -13    1    5    5    0    0 -0.58301996591E+01  0.89590164325E+02  0.28600504031E+03  0.29976536133E+03  0.00000000000E+00 0.  1.
         14    1    5    5    0    0  0.43158437203E+01  0.37514129531E+01 -0.47066912254E+01  0.74062506340E+01  0.00000000000E+00 0. -1.
         11    1    3    3    0    0  0.46197423453E+01  0.25925905064E+02 -0.17380070445E+03  0.17578446871E+03  0.00000000000E+00 0. -1.
        -12    1    3    3    0    0  0.24988300113E+01 -0.52488639853E+02 -0.12637642881E+03  0.13686600463E+03  0.00000000000E+00 0.  1.
          5    1    4    4  501    0 -0.16375712639E+02 -0.66181670446E+02 -0.12016271819E+03  0.13821985642E+03  0.41800000000E+01 0.  1.
         -5    1    4    4    0  501  0.10771496221E+02 -0.59717204280E+00  0.28472497527E+02  0.30733324922E+02  0.41800000000E+01 0.  1.
</event>
<event>
11    1  0.8328696E-009  0.1317207E+03  0.7561462E-02  0.1117173E+00
         22   -1    0    0    0    0  0.00000000000E+00  0.00000000000E+00  0.72020113739E+02  0.72020113739E+02  0.00000000000E+00 0. -1.
         22   -1    0    0    0    0 -0.00000000000E+00 -0.00000000000E+00 -0.13685882532E+04  0.13685882532E+04  0.00000000000E+00 0.  1.
         24    2    1    2    0    0 -0.48883534986E+02 -0.11142873631E+01 -0.71892954601E+03  0.72513516238E+03  0.81058435503E+02 0.  0.
         25    2    1    2    0    0  0.23612849810E+02 -0.19540701473E+02 -0.60765454236E+03  0.62115209101E+03  0.12508585700E+03 0.  0.
        -24    2    1    2    0    0  0.25270685176E+02  0.20654988836E+02  0.30015948896E+02  0.94321113563E+02  0.83248298377E+02 0.  0.
        -13    1    3    3    0    0  0.86480669767E+01  0.18502160929E+02 -0.39653315481E+03  0.39705876377E+03  0.00000000000E+00 0.  1.
         14    1    3    3    0    0 -0.57531601963E+02 -0.19616448292E+02 -0.32239639120E+03  0.32807639861E+03  0.00000000000E+00 0. -1.
         13    1    5    5    0    0  0.35974447275E+00 -0.25707226743E+02 -0.10631591566E+02  0.27821244798E+02  0.00000000000E+00 0. -1.
        -14    1    5    5    0    0  0.24910940703E+02  0.46362215580E+02  0.40647540462E+02  0.66499868765E+02  0.00000000000E+00 0.  1.
          5    1    4    4  501    0  0.15076735943E+01 -0.25217473232E+02 -0.18618736069E+02  0.31659497290E+02  0.41800000000E+01 0.  1.
         -5    1    4    4    0  501  0.22105176216E+02  0.56767717591E+01 -0.58903580630E+03  0.58949259372E+03  0.41800000000E+01 0.  1.
</event>
<event>
11    1  0.8328696E-009  0.3455160E+03  0.7561462E-02  0.9825784E-01
         22   -1    0    0    0    0  0.00000000000E+00  0.00000000000E+00  0.75335885431E+03  0.75335885431E+03  0.00000000000E+00 0. -1.
         22   -1    0    0    0    0 -0.00000000000E+00 -0.00000000000E+00 -0.49208887023E+03  0.49208887023E+03  0.00000000000E+00 0.  1.
         24    2    1    2    0    0  0.29699665121E+03  0.13033333634E+03 -0.36112662686E+03  0.49176381023E+03  0.78901299313E+02 0.  0.
         25    2    1    2    0    0 -0.26698129446E+03 -0.15048077756E+03  0.43463759627E+03  0.54633399325E+03  0.12509003191E+03 0.  0.
        -24    2    1    2    0    0 -0.30015356746E+02  0.20147441226E+02  0.18775901466E+03  0.20734992106E+03  0.80210355625E+02 0.  0.
        -13    1    3    3    0    0  0.20627389223E+03  0.54657450560E+02 -0.25912156333E+03  0.33567892412E+03  0.00000000000E+00 0.  1.
         14    1    3    3    0    0  0.90722758977E+02  0.75675885778E+02 -0.10200506353E+03  0.15608488610E+03  0.00000000000E+00 0. -1.
         11    1    5    5    0    0 -0.52932977727E+02  0.18361938287E+02  0.83282561809E+02  0.10037452869E+03  0.00000000000E+00 0. -1.
        -12    1    5    5    0    0  0.22917620982E+02  0.17855029397E+01  0.10447645285E+03  0.10697539237E+03  0.00000000000E+00 0.  1.
          5    1    4    4  501    0 -0.22658254088E+03 -0.64262952655E+02  0.31689175084E+03  0.39485089473E+03  0.41800000000E+01 0. -1.
         -5    1    4    4    0  501 -0.40398753583E+02 -0.86217824909E+02  0.11774584543E+03  0.15148309852E+03  0.41800000000E+01 0. -1.
</event>
<event>
11    1  0.8328696E-009  0.4600125E+03  0.7561462E-02  0.9487600E-01
         22   -1    0    0    0    0  0.00000000000E+00  0.00000000000E+00  0.14134618577E+04  0.14134618577E+04  0.00000000000E+00 0.  1.
         22   -1    0    0    0    0 -0.00000000000E+00 -0.00000000000E+00 -0.58463960917E+03  0.58463960917E+03  0.00000000000E+00 0.  1.
         24    2    1    2    0    0 -0.42921440180E+02  0.41807929025E+03 -0.22670334240E+03  0.48402610370E+03  0.79084262911E+02 0.  0.
         25    2    1    2    0    0 -0.30704574621E+03 -0.59789459729E+03  0.66919135747E+03  0.95667176681E+03  0.12509499098E+03 0.  0.
        -24    2    1    2    0    0  0.34996718639E+03  0.17981530704E+03  0.38633423350E+03  0.55740359639E+03  0.81449696779E+02 0.  0.
        -13    1    3    3    0    0 -0.57144526161E+02  0.36067613871E+03 -0.17275278769E+03  0.40397561753E+03  0.00000000000E+00 0.  1.
         14    1    3    3    0    0  0.14223085980E+02  0.57403151540E+02 -0.53950554712E+02  0.80050486166E+02  0.00000000000E+00 0. -1.
         13    1    5    5    0    0  0.15793698829E+03  0.12431882963E+03  0.21252108406E+03  0.29251405922E+03  0.00000000000E+00 0. -1.
        -14    1    5    5    0    0  0.19203019810E+03  0.55496477408E+02  0.17381314944E+03  0.26488953718E+03  0.00000000000E+00 0.  1.
          5    1    4    4  501    0 -0.13192915139E+03 -0.13820825217E+03  0.20589034644E+03  0.28091836735E+03  0.41800000000E+01 0.  1.
         -5    1    4    4    0  501 -0.17511659482E+03 -0.45968634512E+03  0.46330101103E+03  0.67575339947E+03  0.41800000000E+01 0.  1.
</event>
<event>
11    1  0.8328696E-009  0.1306901E+03  0.7561462E-02  0.1118424E+00
         22   -1    0    0    0    0  0.00000000000E+00  0.00000000000E+00  0.15399934951E+03  0.15399934951E+03  0.00000000000E+00 0.  1.
         22   -1    0    0    0    0 -0.00000000000E+00 -0.00000000000E+00 -0.38794803852E+03  0.38794803852E+03  0.00000000000E+00 0.  1.
         24    2    1    2    0    0 -0.18852957559E+02 -0.47023437985E+01 -0.23964129731E+03  0.25337333794E+03  0.79953429907E+02 0.  0.
         25    2    1    2    0    0  0.32937384133E+02  0.38279227725E+02 -0.86499964873E+02  0.16022524168E+03  0.12505884054E+03 0.  0.
        -24    2    1    2    0    0 -0.14084426574E+02 -0.33576883927E+02  0.92192573175E+02  0.12834880842E+03  0.81536297862E+02 0.  0.
        -13    1    3    3    0    0 -0.46715034149E+02 -0.66039432014E+01 -0.19571374041E+03  0.20132008014E+03  0.00000000000E+00 0.  1.
         14    1    3    3    0    0  0.27862076589E+02  0.19015994029E+01 -0.43927556905E+02  0.52053257802E+02  0.00000000000E+00 0. -1.
         13    1    5    5    0    0  0.19721576192E+02  0.18609568713E+02  0.28390140647E+02  0.39258842330E+02  0.00000000000E+00 0. -1.
        -14    1    5    5    0    0 -0.33806002765E+02 -0.52186452639E+02  0.63802432527E+02  0.89089966093E+02  0.00000000000E+00 0.  1.
          5    1    4    4  501    0 -0.20533846167E+02  0.28765451181E+02  0.19840262749E+02  0.40745532835E+02  0.41800000000E+01 0. -1.
         -5    1    4    4    0  501  0.53471230300E+02  0.95137765444E+01 -0.10634022762E+03  0.11947970884E+03  0.41800000000E+01 0. -1.
</event>
<event>
11    1  0.8328696E-009  0.1297986E+03  0.7561462E-02  0.1119517E+00
         22   -1    0    0    0    0  0.00000000000E+00  0.00000000000E+00  0.17798820985E+04  0.17798820985E+04  0.00000000000E+00 0.  1.
         22   -1    0    0    0    0 -0.00000000000E+00 -0.00000000000E+00 -0.12177401497E+03  0.12177401497E+03  0.00000000000E+00 0.  1.
        -24    2    1    2    0    0 -0.17106007946E+02  0.29529734083E+02 -0.85421693981E+02  0.12194442833E+03  0.80055962267E+02 0.  0.
         25    2    1    2    0    0  0.16473696130E+02 -0.37413143408E+02  0.23700284578E+03  0.27109864715E+03  0.12511195632E+03 0.  0.
         24    2    1    2    0    0  0.63231181571E+00  0.78834093246E+01  0.15065269318E+04  0.15086130380E+04  0.78913588088E+02 0.  0.
        -11    1    5    5    0    0  0.17764680353E+02  0.35542484933E+02  0.11249602398E+04  0.11256617579E+04  0.00000000000E+00 0.  1.
         12    1    5    5    0    0 -0.17132368537E+02 -0.27659075608E+02  0.38156669203E+03  0.38295128016E+03  0.00000000000E+00 0. -1.
         11    1    3    3    0    0 -0.28072531668E+02  0.30476808939E+02 -0.61230770915E+01  0.41885498570E+02  0.00000000000E+00 0. -1.
        -12    1    3    3    0    0  0.10966523721E+02 -0.94707485586E+00 -0.79298616890E+02  0.80058929757E+02  0.00000000000E+00 0.  1.
          5    1    4    4  501    0 -0.10263730893E+02 -0.30503928268E+02 -0.10438540029E-02  0.32454679366E+02  0.41800000000E+01 0.  1.
         -5    1    4    4    0  501  0.26737427024E+02 -0.69092151398E+01  0.23700388964E+03  0.23864396779E+03  0.41800000000E+01 0.  1.
</event>
<event>
11    1  0.8328696E-009  0.1346754E+03  0.7561462E-02  0.1113654E+00
         22   -1    0    0    0    0  0.00000000000E+00  0.00000000000E+00  0.19204369211E+03  0.19204369211E+03  0.00000000000E+00 0. -1.
         22   -1    0    0    0    0 -0.00000000000E+00 -0.00000000000E+00 -0.12050209790E+04  0.12050209790E+04  0.00000000000E+00 0.  1.
         24    2    1    2    0    0  0.48884041244E+02 -0.76427880829E+01 -0.72191257825E+03  0.72817994407E+03  0.81487413850E+02 0.  0.
         25    2    1    2    0    0 -0.53199772869E+02 -0.25528503041E+02 -0.45900770723E+03  0.47939286826E+03  0.12509007370E+03 0.  0.
        -24    2    1    2    0    0  0.43157316247E+01  0.33171291124E+02  0.16794299861E+03  0.18949185875E+03  0.81137868203E+02 0.  0.
        -11    1    3    3    0    0  0.18034660122E+02  0.45294461110E+00 -0.64033779429E+03  0.64059187078E+03  0.00000000000E+00 0.  1.
         12    1    3    3    0    0  0.30849381122E+02 -0.80957326940E+01 -0.81574783963E+02  0.87588073287E+02  0.00000000000E+00 0. -1.
         11    1    5    5    0    0 -0.27373354629E+02  0.15003822808E+02  0.14017357571E+03  0.14360726503E+03  0.00000000000E+00 0. -1.
        -12    1    5    5    0    0  0.31689086253E+02  0.18167468316E+02  0.27769422900E+02  0.45884593719E+02  0.00000000000E+00 0.  1.
          5    1    4    4  501    0 -0.27609695934E+02  0.18378399225E+02 -0.40004534328E+03  0.40143967162E+03  0.41800000000E+01 0. -1.
         -5    1    4    4    0  501 -0.25590076935E+02 -0.43906902267E+02 -0.58962363954E+02  0.77953196645E+02  0.41800000000E+01 0. -1.
</event>
<event>
11    1  0.8328696E-009  0.8126463E+03  0.7561462E-02  0.8881005E-01
         22   -1    0    0    0    0  0.00000000000E+00  0.00000000000E+00  0.20237844714E+04  0.20237844714E+04  0.00000000000E+00 0. -1.
         22   -1    0    0    0    0 -0.00000000000E+00 -0.00000000000E+00 -0.83132337452E+03  0.83132337452E+03  0.00000000000E+00 0. -1.
         24    2    1    2    0    0  0.49113398946E+03 -0.17342713030E+03  0.44926484160E+02  0.52894909178E+03  0.80493400925E+02 0.  0.
         25    2    1    2    0    0 -0.18828679241E+03  0.91429362201E+03  0.21649469963E+02  0.94207297922E+03  0.12509218672E+03 0.  0.
        -24    2    1    2    0    0 -0.30284719705E+03 -0.74086649171E+03  0.11258851428E+04  0.13840857749E+04  0.86466724078E+02 0.  0.
        -13    1    3    3    0    0  0.31548137074E+03 -0.91952610616E+02  0.62590876661E+02  0.33451665986E+03  0.00000000000E+00 0.  1.
         14    1    3    3    0    0  0.17565261872E+03 -0.81474519686E+02 -0.17664392500E+02  0.19443243192E+03  0.00000000000E+00 0. -1.
         11    1    5    5    0    0 -0.13505969613E+03 -0.26546926998E+03  0.47734252683E+03  0.56264637451E+03  0.00000000000E+00 0. -1.
        -12    1    5    5    0    0 -0.16778750092E+03 -0.47539722173E+03  0.64854261595E+03  0.82143940044E+03  0.00000000000E+00 0.  1.
          5    1    4    4  501    0  0.11587240855E+02  0.61136835759E+02  0.20999162208E+02  0.65805881581E+02  0.41800000000E+01 0.  1.
         -5    1    4    4    0  501 -0.19987403326E+03  0.85315678625E+03  0.65030775468E+00  0.87626709764E+03  0.41800000000E+01 0.  1.
</event>
<event>
11    1  0.8328696E-009  0.1428483E+03  0.7561462E-02  0.1104419E+00
         22   -1    0    0    0    0  0.00000000000E+00  0.00000000000E+00  0.25685891628E+03  0.25685891628E+03  0.00000000000E+00 0. -1.
         22   -1    0    0    0    0 -0.00000000000E+00 -0.00000000000E+00 -0.22659578681E+03  0.22659578681E+03  0.00000000000E+00 0. -1.
        -24    2    1    2    0    0  0.24814602138E+02 -0.67065755474E+02 -0.13233393428E+03  0.17039402882E+03  0.80051701176E+02 0.  0.
         25    2    1    2    0    0 -0.11822020794E+01  0.61753300225E+02  0.11154371637E+02  0.13995336279E+03  0.12509059141E+03 0.  0.
         24    2    1    2    0    0 -0.23632400059E+02  0.53124552490E+01  0.15144269211E+03  0.17310731147E+03  0.80277890967E+02 0.  0.
        -13    1    5    5    0    0  0.93379532101E+01  0.75876926815E+01 -0.51334190632E+01  0.13081377667E+02  0.00000000000E+00 0.  1.
         14    1    5    5    0    0 -0.32970353269E+02 -0.22752374325E+01  0.15657611117E+03  0.16002593380E+03  0.00000000000E+00 0. -1.
         11    1    3    3    0    0  0.24711836028E+02 -0.62272752681E+02 -0.14343041876E+03  0.15830620832E+03  0.00000000000E+00 0. -1.
        -12    1    3    3    0    0  0.10276610977E+00 -0.47930027933E+01  0.11096484485E+02  0.12087820505E+02  0.00000000000E+00 0.  1.
          5    1    4    4  501    0 -0.20580768326E+02  0.92122003087E+02 -0.14403826689E+02  0.95577058444E+02  0.41800000000E+01 0.  1.
         -5    1    4    4    0  501  0.19398566247E+02 -0.30368702861E+02  0.25558198326E+02  0.44376304348E+02  0.41800000000E+01 0.  1.
</event>
<event>
11    1  0.8328696E-009  0.2547165E+03  0.7561462E-02  0.1021416E+00
         22   -1    0    0    0    0  0.00000000000E+00  0.00000000000E+00  0.88332562272E+03  0.88332562272E+03  0.00000000000E+00 0. -1.
         22   -1    0    0    0    0 -0.00000000000E+00 -0.00000000000E+00 -0.42447639006E+03  0.42447639006E+03  0.00000000000E+00 0. -1.
         24    2    1    2    0    0  0.30431417385E+02  0.22469401701E+03 -0.30280059277E+03  0.38671996148E+03  0.80315983362E+02 0.  0.
         25    2    1    2    0    0 -0.25455066361E+02 -0.19917942120E+03  0.10518643302E+03  0.25890607663E+03  0.12509104122E+03 0.  0.
        -24    2    1    2    0    0 -0.49763510240E+01 -0.25514595815E+02  0.65646339242E+03  0.66217597466E+03  0.82807470487E+02 0.  0.
        -11    1    3    3    0    0  0.37203481152E+02  0.94659832023E+02 -0.83135897637E+02  0.13136270507E+03  0.00000000000E+00 0.  1.
         12    1    3    3    0    0 -0.67720637671E+01  0.13003418499E+03 -0.21966469513E+03  0.25535725641E+03  0.00000000000E+00 0. -1.
         13    1    5    5    0    0  0.32440724100E+02  0.59453963477E+01  0.37958720327E+03  0.38101731353E+03  0.00000000000E+00 0. -1.
        -14    1    5    5    0    0 -0.37417075124E+02 -0.31459992163E+02  0.27687618914E+03  0.28115866114E+03  0.00000000000E+00 0.  1.
          5    1    4    4  501    0 -0.95379476190E+01 -0.21060044001E+03  0.77320428501E+02  0.22458726331E+03  0.41800000000E+01 0. -1.
         -5    1    4    4    0  501 -0.15917118742E+02  0.11421018816E+02  0.27866004517E+02  0.34318813318E+02  0.41800000000E+01 0. -1.
</event>
<event>
11    1  0.8328696E-009  0.1828349E+03  0.7561462E-02  0.1067373E+00
         22   -1    0    0    0    0  0.00000000000E+00  0.00000000000E+00  0.14407975534E+03  0.14407975534E+03  0.00000000000E+00 0.  1.
         22   -1    0    0    0    0 -0.00000000000E+00 -0.00000000000E+00 -0.28055787654E+04  0.28055787654E+04  0.00000000000E+00 0.  1.
        -24    2    1    2    0    0  0.12858127618E+03 -0.30230808636E+02 -0.23790115501E+04  0.23840264902E+04  0.80245275252E+02 0.  0.
         25    2    1    2    0    0 -0.14729311902E+03  0.48883526644E+01 -0.38529653469E+03  0.43106913646E+03  0.12509205356E+03 0.  0.
         24    2    1    2    0    0  0.18711842839E+02  0.25342455972E+02  0.10280907468E+03  0.13456289410E+03  0.80901752103E+02 0.  0.
        -11    1    5    5    0    0 -0.11135896775E+01  0.33681539846E+02  0.10740639671E+03  0.11256917990E+03  0.00000000000E+00 0.  1.
         12    1    5    5    0    0  0.19825432516E+02 -0.83390838738E+01 -0.45973220301E+01  0.21993714197E+02  0.00000000000E+00 0. -1.
         11    1    3    3    0    0 -0.58240267389E+01  0.13432091809E+01 -0.17695529350E+02  0.18677667342E+02  0.00000000000E+00 0. -1.
        -12    1    3    3    0    0  0.13440530292E+03 -0.31574017817E+02 -0.23613160207E+04  0.23653488229E+04  0.00000000000E+00 0.  1.
          5    1    4    4  501    0  0.13948509706E+02 -0.35835565961E+01 -0.11662159428E+03  0.11758176497E+03  0.41800000000E+01 0. -1.
         -5    1    4    4    0  501 -0.16124162872E+03  0.84719092605E+01 -0.26867494041E+03  0.31348737149E+03  0.41800000000E+01 0. -1.
</event>
<event>
11    1  0.8328696E-009  0.2693648E+03  0.7561462E-02  0.1014061E+00
         22   -1    0    0    0    0  0.00000000000E+00  0.00000000000E+00  0.13597608954E+04  0.13597608954E+04  0.00000000000E+00 0. -1.
         22   -1    0    0    0    0 -0.00000000000E+00 -0.00000000000E+00 -0.18393304883E+03  0.18393304883E+03  0.00000000000E+00 0.  1.
        -24    2    1    2    0    0 -0.16573386144E+03 -0.19297972891E+03  0.17142170000E+02  0.26775175038E+03  0.81781765971E+02 0.  0.
         25    2    1    2    0    0  0.30715992792E+02  0.22618884370E+03  0.28521390245E+03  0.38613368850E+03  0.12508952800E+03 0.  0.
         24    2    1    2    0    0  0.13501786865E+03 -0.33209114795E+02  0.87347177414E+03  0.88980850537E+03  0.97332244649E+02 0.  0.
        -11    1    5    5    0    0  0.13732748358E+03 -0.21331770294E+02  0.59266109633E+03  0.60873726456E+03  0.00000000000E+00 0.  1.
         12    1    5    5    0    0 -0.23096149327E+01 -0.11877344500E+02  0.28081067782E+03  0.28107124081E+03  0.00000000000E+00 0. -1.
         11    1    3    3    0    0 -0.19337058647E+02 -0.14456697349E+02 -0.23080277523E+02  0.33400855466E+02  0.00000000000E+00 0. -1.
        -12    1    3    3    0    0 -0.14639680279E+03 -0.17852303156E+03  0.40222447523E+02  0.23435089492E+03  0.00000000000E+00 0.  1.
          5    1    4    4  501    0 -0.20943365156E+02  0.49857568227E+02  0.14546217227E+03  0.15524534652E+03  0.41800000000E+01 0. -1.
         -5    1    4    4    0  501  0.51659357948E+02  0.17633127548E+03  0.13975173017E+03  0.23088834198E+03  0.41800000000E+01 0. -1.
</event>
<event>
11    1  0.8328696E-009  0.1615161E+03  0.7561462E-02  0.1085660E+00
         22   -1    0    0    0    0  0.00000000000E+00  0.00000000000E+00  0.25177171856E+03  0.25177171856E+03  0.00000000000E+00 0. -1.
         22   -1    0    0    0    0 -0.00000000000E+00 -0.00000000000E+00 -0.19546457841E+04  0.19546457841E+04  0.00000000000E+00 0. -1.
         24    2    1    2    0    0 -0.18529593091E+02  0.16068731100E+02 -0.12754260141E+04  0.12781625047E+04  0.79914459774E+02 0.  0.
         25    2    1    2    0    0  0.73500080083E+02 -0.10138104509E+03 -0.64618672259E+03  0.66998903519E+03  0.12509056217E+03 0.  0.
        -24    2    1    2    0    0 -0.54970486992E+02  0.85312313994E+02  0.21873867115E+03  0.25826596284E+03  0.92491923700E+02 0.  0.
        -11    1    3    3    0    0 -0.33559452140E+02  0.41310489839E+02 -0.72339289326E+03  0.72534824148E+03  0.00000000000E+00 0.  1.
         12    1    3    3    0    0  0.15029859049E+02 -0.25241758739E+02 -0.55203312085E+03  0.55281426317E+03  0.00000000000E+00 0. -1.
         11    1    5    5    0    0 -0.52419634473E+02  0.46886019497E+00  0.82088043229E+02  0.97398586999E+02  0.00000000000E+00 0. -1.
        -12    1    5    5    0    0 -0.25508525183E+01  0.84843453799E+02  0.13665062792E+03  0.16086737585E+03  0.00000000000E+00 0.  1.
          5    1    4    4  501    0 -0.16413441291E+02 -0.40190206558E+02 -0.62325205785E+02  0.76069425095E+02  0.41800000000E+01 0.  1.
         -5    1    4    4    0  501  0.89913521374E+02 -0.61190838536E+02 -0.58386151680E+03  0.59391961009E+03  0.41800000000E+01 0.  1.
</event>
<event>
11    1  0.8328696E-009  0.1526237E+03  0.7561462E-02  0.1094228E+00
         22   -1    0    0    0    0  0.00000000000E+00  0.00000000000E+00  0.64905487355E+03  0.64905487355E+03  0.00000000000E+00 0. -1.
         22   -1    0    0    0    0 -0.00000000000E+00 -0.00000000000E+00 -0.50789999117E+03  0.50789999117E+03  0.00000000000E+00 0.  1.
         24    2    1    2    0    0 -0.28403628867E+02 -0.88797746501E+02 -0.44316366038E+03  0.46001401523E+03  0.80790212309E+02 0.  0.
         25    2    1    2    0    0  0.70781218749E+02  0.29920682527E+01  0.56310818954E+02  0.15439269645E+03  0.12508902025E+03 0.  0.
        -24    2    1    2    0    0 -0.42377589882E+02  0.85805678248E+02  0.52800772382E+03  0.54254815304E+03  0.80049156218E+02 0.  0.
        -13    1    3    3    0    0  0.22441076172E+02 -0.51944455435E+02 -0.15287834798E+03  0.16301416390E+03  0.00000000000E+00 0.  1.
         14    1    3    3    0    0 -0.50844705038E+02 -0.36853291066E+02 -0.29028531240E+03  0.29699985133E+03  0.00000000000E+00 0. -1.
         11    1    5    5    0    0 -0.43797368057E+02  0.32290872161E+02  0.12959935890E+03  0.14055925334E+03  0.00000000000E+00 0. -1.
        -12    1    5    5    0    0  0.14197781748E+01  0.53514806087E+02  0.39840836492E+03  0.40198889970E+03  0.00000000000E+00 0.  1.
          5    1    4    4  501    0  0.93496966649E+02  0.18746395346E+02  0.74462306293E+02  0.12105873603E+03  0.41800000000E+01 0.  1.
         -5    1    4    4    0  501 -0.22715747900E+02 -0.15754327093E+02 -0.18151487339E+02  0.33333960422E+02  0.41800000000E+01 0.  1.
</event>
<event>
11    1  0.8328696E-009  0.1483822E+03  0.7561462E-02  0.1098543E+00
         22   -1    0    0    0    0  0.00000000000E+00  0.00000000000E+00  0.12523678697E+04  0.12523678697E+04  0.00000000000E+00 0.  1.
         22   -1    0    0    0    0 -0.00000000000E+00 -0.00000000000E+00 -0.22890193259E+03  0.22890193259E+03  0.00000000000E+00 0.  1.
         24    2    1    2    0    0 -0.79823727790E+02 -0.28137344128E+01 -0.20266593682E+03  0.23238023160E+03  0.80915668893E+02 0.  0.
         25    2    1    2    0    0  0.76976759116E+02  0.71563963871E+01  0.61645589794E+03  0.63375231797E+03  0.12508993154E+03 0.  0.
        -24    2    1    2    0    0  0.28469686742E+01 -0.43426619742E+01  0.60967597597E+03  0.61513725271E+03  0.81621566118E+02 0.  0.
        -13    1    3    3    0    0 -0.35668216415E+02 -0.38573864121E+02 -0.12943586589E+03  0.13969183238E+03  0.00000000000E+00 0.  1.
         14    1    3    3    0    0 -0.44155511375E+02  0.35760129708E+02 -0.73230070928E+02  0.92688399218E+02  0.00000000000E+00 0. -1.
         13    1    5    5    0    0  0.19022727942E+02  0.33630719005E+02  0.36065563569E+03  0.36271941910E+03  0.00000000000E+00 0. -1.
        -14    1    5    5    0    0 -0.16175759268E+02 -0.37973380980E+02  0.24902034028E+03  0.25241783361E+03  0.00000000000E+00 0.  1.
          5    1    4    4  501    0  0.26942571948E+02 -0.42464636095E+02  0.45170360783E+03  0.45451377232E+03  0.41800000000E+01 0. -1.
         -5    1    4    4    0  501  0.50034187168E+02  0.49621032482E+02  0.16475229011E+03  0.17923854565E+03  0.41800000000E+01 0. -1.
</event>
<event>
11    1  0.8328696E-009  0.1839874E+03  0.7561462E-02  0.1066462E+00
         22   -1    0    0    0    0  0.00000000000E+00  0.00000000000E+00  0.53792110968E+03  0.53792110968E+03  0.00000000000E+00 0.  1.
         22   -1    0    0    0    0 -0.00000000000E+00 -0.00000000000E+00 -0.59334333464E+03  0.59334333464E+03  0.00000000000E+00 0.  1.
         24    2    1    2    0    0 -0.13042461896E+03  0.47013781837E+02 -0.54527804750E+03  0.56922810952E+03  0.86438502232E+02 0.  0.
         25    2    1    2    0    0  0.38120074737E+02 -0.68700212791E+02  0.22007862543E+03  0.26505631628E+03  0.12508952832E+03 0.  0.
        -24    2    1    2    0    0  0.92304544221E+02  0.21686430955E+02  0.26977719712E+03  0.29698001852E+03  0.80168354998E+02 0.  0.
        -11    1    3    3    0    0 -0.46330163239E+02  0.62146937606E+02 -0.23913908312E+03  0.25138859750E+03  0.00000000000E+00 0.  1.
         12    1    3    3    0    0 -0.84094455719E+02 -0.15133155769E+02 -0.30613896438E+03  0.31783951202E+03  0.00000000000E+00 0. -1.
         13    1    5    5    0    0  0.35907484234E+02 -0.30628604079E+02  0.10651144278E+03  0.11649955474E+03  0.00000000000E+00 0. -1.
        -14    1    5    5    0    0  0.56397059987E+02  0.52315035034E+02  0.16326575434E+03  0.18048046378E+03  0.00000000000E+00 0.  1.
          5    1    4    4  501    0 -0.37109303251E+02 -0.25317299752E+02  0.13913469695E+03  0.14626688740E+03  0.41800000000E+01 0.  1.
         -5    1    4    4    0  501  0.75229377988E+02 -0.43382913040E+02  0.80943928476E+02  0.11878942888E+03  0.41800000000E+01 0.  1.
</event>
<event>
11    1  0.8328696E-009  0.1850221E+03  0.7561462E-02  0.1065651E+00
         22   -1    0    0    0    0  0.00000000000E+00  0.00000000000E+00  0.22346540682E+04  0.22346540682E+04  0.00000000000E+00 0. -1.
         22   -1    0    0    0    0 -0.00000000000E+00 -0.00000000000E+00 -0.44005900536E+02  0.44005900536E+02  0.00000000000E+00 0.  1.
         24    2    1    2    0    0  0.14004982296E+03  0.89602195911E+01  0.15031312853E+03  0.22116806315E+03  0.81406615826E+02 0.  0.
         25    2    1    2    0    0 -0.10262867603E+03  0.26515602168E+01  0.15727840938E+04  0.15810875342E+04  0.12509320129E+03 0.  0.
        -24    2    1    2    0    0 -0.37421146930E+02 -0.11611779808E+02  0.46755094532E+03  0.47640437143E+03  0.82595780637E+02 0.  0.
        -13    1    3    3    0    0  0.12956847210E+03  0.34839014220E+02  0.12788809684E+03  0.18535671336E+03  0.00000000000E+00 0.  1.
         14    1    3    3    0    0  0.10481350868E+02 -0.25878794629E+02  0.22425031686E+02  0.35811349787E+02  0.00000000000E+00 0. -1.
         11    1    5    5    0    0 -0.29575258265E+02  0.27257750139E+02  0.11917683841E+03  0.12578076028E+03  0.00000000000E+00 0. -1.
        -12    1    5    5    0    0 -0.78458886647E+01 -0.38869529947E+02  0.34837410691E+03  0.35062361115E+03  0.00000000000E+00 0.  1.
          5    1    4    4  501    0 -0.72483471446E+02 -0.15786601543E+02  0.35064565599E+03  0.35843119128E+03  0.41800000000E+01 0.  1.
         -5    1    4    4    0  501 -0.30145204589E+02  0.18438161760E+02  0.12221384378E+04  0.12226563429E+04  0.41800000000E+01 0.  1.
</event>
<event>
11    1  0.8328696E-009  0.1437925E+03  0.7561462E-02  0.1103396E+00
         22   -1    0    0    0    0  0.00000000000E+00  0.00000000000E+00  0.31695697073E+03  0.31695697073E+03  0.00000000000E+00 0. -1.
         22   -1    0    0    0    0 -0.00000000000E+00 -0.00000000000E+00 -0.31365365130E+04  0.31365365130E+04  0.00000000000E+00 0. -1.
         24    2    1    2    0    0  0.26479470877E+02  0.29007073030E+02 -0.30698719913E+04  0.30711286518E+04  0.78578496337E+02 0.  0.
         25    2    1    2    0    0  0.14597372590E+02 -0.84342545805E+02  0.57262974475E+02  0.16202728474E+03  0.12508814666E+03 0.  0.
        -24    2    1    2    0    0 -0.41076843467E+02  0.55335472775E+02  0.19302947462E+03  0.22033754717E+03  0.80863681609E+02 0.  0.
        -11    1    3    3    0    0 -0.17584561368E+02 -0.72781414699E+01 -0.26782492785E+03  0.26850024231E+03  0.00000000000E+00 0.  1.
         12    1    3    3    0    0  0.44064032246E+02  0.36285214500E+02 -0.28020470635E+04  0.28026284095E+04  0.00000000000E+00 0. -1.
         13    1    5    5    0    0 -0.90946226008E+01  0.50632250896E+02  0.17686652127E+03  0.18419582877E+03  0.00000000000E+00 0. -1.
        -14    1    5    5    0    0 -0.31982220866E+02  0.47032218794E+01  0.16162953350E+02  0.36141718395E+02  0.00000000000E+00 0.  1.
          5    1    4    4  501    0  0.20790742265E+02 -0.11562336860E+03  0.34115400872E+02  0.12240241545E+03  0.41800000000E+01 0.  1.
         -5    1    4    4    0  501 -0.61933696757E+01  0.31280822796E+02  0.23147573603E+02  0.39624869293E+02  0.41800000000E+01 0.  1.
</event>
<event>
11    1  0.8328696E-009  0.2115398E+03  0.7561462E-02  0.1046650E+00
         22   -1    0    0    0    0  0.00000000000E+00  0.00000000000E+00  0.46784087003E+03  0.46784087003E+03  0.00000000000E+00 0. -1.
         22   -1    0    0    0    0 -0.00000000000E+00 -0.00000000000E+00 -0.24216381042E+04  0.24216381042E+04  0.00000000000E+00 0.  1.
        -24    2    1    2    0    0  0.83997767390E+02 -0.32235937808E+02 -0.22721052957E+04  0.22753088687E+04  0.80456152234E+02 0.  0.
         25    2    1    2    0    0 -0.23813872323E+03 -0.18645603678E+01  0.23526105605E+02  0.27002797663E+03  0.12509237558E+03 0.  0.
         24    2    1    2    0    0  0.15414095584E+03  0.34100498176E+02  0.29478195599E+03  0.34414212888E+03  0.81333419022E+02 0.  0.
        -11    1    5    5    0    0  0.13925176841E+03  0.68485429554E+01  0.19553145371E+03  0.24014684453E+03  0.00000000000E+00 0.  1.
         12    1    5    5    0    0  0.14889187438E+02  0.27251955220E+02  0.99250502279E+02  0.10399528436E+03  0.00000000000E+00 0. -1.
         11    1    3    3    0    0 -0.66230153424E+01  0.15611129591E+02 -0.22369632949E+03  0.22433818116E+03  0.00000000000E+00 0. -1.
        -12    1    3    3    0    0  0.90620782732E+02 -0.47847067399E+02 -0.20484089662E+04  0.20509706875E+04  0.00000000000E+00 0.  1.
          5    1    4    4  501    0 -0.16963783105E+03 -0.29570925344E+02 -0.34886096025E+02  0.17574397698E+03  0.41800000000E+01 0.  1.
         -5    1    4    4    0  501 -0.68500892186E+02  0.27706364976E+02  0.58412201629E+02  0.94283999649E+02  0.41800000000E+01 0.  1.
</event>
<event>
11    1  0.8328696E-009  0.1324057E+03  0.7561462E-02  0.1116348E+00
         22   -1    0    0    0    0  0.00000000000E+00  0.00000000000E+00  0.35820895289E+02  0.35820895289E+02  0.00000000000E+00 0. -1.
         22   -1    0    0    0    0 -0.00000000000E+00 -0.00000000000E+00 -0.22597919526E+04  0.22597919526E+04  0.00000000000E+00 0. -1.
        -24    2    1    2    0    0 -0.34124640721E+01 -0.42462669433E+02 -0.17887036645E+04  0.17908999535E+04  0.77763235740E+02 0.  0.
         25    2    1    2    0    0 -0.28925528929E+02  0.63557342699E+02 -0.36102332249E+03  0.38840908453E+03  0.12509018958E+03 0.  0.
         24    2    1    2    0    0  0.32337993001E+02 -0.21094673267E+02 -0.74244070345E+02  0.11630380989E+03  0.80769196980E+02 0.  0.
        -13    1    5    5    0    0  0.26638196915E+02  0.39220809502E+01 -0.84489438452E+02  0.88676047858E+02  0.00000000000E+00 0.  1.
         14    1    5    5    0    0  0.56997960865E+01 -0.25016754217E+02  0.10245368107E+02  0.27627762027E+02  0.00000000000E+00 0. -1.
         13    1    3    3    0    0  0.94602232594E+01 -0.61706400673E+02 -0.14867170121E+04  0.14880270999E+04  0.00000000000E+00 0. -1.
        -14    1    3    3    0    0 -0.12872687332E+02  0.19243731240E+02 -0.30198665235E+03  0.30287285364E+03  0.00000000000E+00 0.  1.
          5    1    4    4  501    0 -0.22323948382E+02 -0.34089703055E+02 -0.67349910485E+02  0.78828607549E+02  0.41800000000E+01 0. -1.
         -5    1    4    4    0  501 -0.66015805475E+01  0.97647045754E+02 -0.29367341201E+03  0.30958047699E+03  0.41800000000E+01 0. -1.
</event>
<event>
11    1  0.8328696E-009  0.2971585E+03  0.7561462E-02  0.1001401E+00
         22   -1    0    0    0    0  0.00000000000E+00  0.00000000000E+00  0.43281194814E+03  0.43281194814E+03  0.00000000000E+00 0.  1.
         22   -1    0    0    0    0 -0.00000000000E+00 -0.00000000000E+00 -0.10098900370E+04  0.10098900370E+04  0.00000000000E+00 0. -1.
         24    2    1    2    0    0 -0.20978402601E+03  0.18121572698E+03 -0.78833235062E+03  0.83955582563E+03  0.80855500947E+02 0.  0.
         25    2    1    2    0    0  0.17558598880E+03 -0.16461488627E+03 -0.93135286598E+02  0.28679948649E+03  0.12510501027E+03 0.  0.
        -24    2    1    2    0    0  0.34198037208E+02 -0.16600840705E+02  0.30438954835E+03  0.31634667304E+03  0.77311879677E+02 0.  0.
        -11    1    3    3    0    0 -0.32994247827E+02  0.46372012623E+02 -0.26335324472E+03  0.26943258052E+03  0.00000000000E+00 0.  1.
         12    1    3    3    0    0 -0.17678977818E+03  0.13484371435E+03 -0.52497910591E+03  0.57012324510E+03  0.00000000000E+00 0. -1.
         13    1    5    5    0    0 -0.94121234704E+01 -0.49021825671E+01  0.22450860450E+01  0.10847113602E+02  0.00000000000E+00 0. -1.
        -14    1    5    5    0    0  0.43610160679E+02 -0.11698658138E+02  0.30214446231E+03  0.30549955944E+03  0.00000000000E+00 0.  1.
          5    1    4    4  501    0  0.13167753441E+02  0.84016593968E+01 -0.40614008258E+02  0.43714387541E+02  0.41800000000E+01 0. -1.
         -5    1    4    4    0  501  0.16241823536E+03 -0.17301654567E+03 -0.52521278340E+02  0.24308509895E+03  0.41800000000E+01 0. -1.
</event>
<event>
11    1  0.8328696E-009  0.1830517E+03  0.7561462E-02  0.1067201E+00
         22   -1    0    0    0    0  0.00000000000E+00  0.00000000000E+00  0.53728369508E+03  0.53728369508E+03  0.00000000000E+00 0.  1.
         22   -1    0    0    0    0 -0.00000000000E+00 -0.00000000000E+00 -0.10478467596E+04  0.10478467596E+04  0.00000000000E+00 0. -1.
        -24    2    1    2    0    0 -0.21025516730E+02 -0.85753143664E+01 -0.98699107702E+03  0.99068004238E+03  0.82340463246E+02 0.  0.
         25    2    1    2    0    0 -0.11912910801E+03  0.15366413396E+02  0.14921688573E+03  0.22877918203E+03  0.12508542724E+03 0.  0.
         24    2    1    2    0    0  0.14015462474E+03 -0.67910990301E+01  0.32721112680E+03  0.36567123023E+03  0.83419957155E+02 0.  0.
        -11    1    5    5    0    0  0.76316273115E+02  0.26861556897E+02  0.23526028816E+03  0.24878327911E+03  0.00000000000E+00 0.  1.
         12    1    5    5    0    0  0.63838351622E+02 -0.33652655927E+02  0.91950838641E+02  0.11688795111E+03  0.00000000000E+00 0. -1.
         11    1    3    3    0    0 -0.16324495312E+02 -0.22455786800E+01 -0.98001172685E+03  0.98015025202E+03  0.00000000000E+00 0. -1.
        -12    1    3    3    0    0 -0.47010214177E+01 -0.63297356864E+01 -0.69793501616E+01  0.10529790354E+02  0.00000000000E+00 0.  1.
          5    1    4    4  501    0 -0.45925985190E+02  0.65061798916E+02  0.98409906021E+02  0.12666576411E+03  0.41800000000E+01 0. -1.
         -5    1    4    4    0  501 -0.73203122817E+02 -0.49695385520E+02  0.50806979710E+02  0.10211341792E+03  0.41800000000E+01 0. -1.
</event>
<event>
11    1  0.8328696E-009  0.2500490E+03  0.7561462E-02  0.1023873E+00
         22   -1    0    0    0    0  0.00000000000E+00  0.00000000000E+00  0.11872994861E+04  0.11872994861E+04  0.00000000000E+00 0.  1.
         22   -1    0    0    0    0 -0.00000000000E+00 -0.00000000000E+00 -0.13399418545E+04  0.13399418545E+04  0.00000000000E+00 0.  1.
        -24    2    1    2    0    0 -0.18677865780E+03 -0.93774304442E+02 -0.11059966963E+04  0.11283918653E+04  0.79747240534E+02 0.  0.
         25    2    1    2    0    0  0.32772900533E+03  0.41598115404E+02 -0.71098287563E+02  0.36033172303E+03  0.12508908819E+03 0.  0.
         24    2    1    2    0    0 -0.14095034754E+03  0.52176189038E+02  0.10244526155E+04  0.10385177523E+04  0.80166111116E+02 0.  0.
        -11    1    5    5    0    0 -0.13895090419E+03  0.39727549347E+02  0.10049920478E+04  0.10153298223E+04  0.00000000000E+00 0.  1.
         12    1    5    5    0    0 -0.19994433458E+01  0.12448639690E+02  0.19460567688E+02  0.23187930019E+02  0.00000000000E+00 0. -1.
         11    1    3    3    0    0 -0.39895737560E+02 -0.90389663641E+01 -0.97428320839E+02  0.10566764164E+03  0.00000000000E+00 0. -1.
        -12    1    3    3    0    0 -0.14688292024E+03 -0.84735338078E+02 -0.10085683754E+04  0.10227242237E+04  0.00000000000E+00 0.  1.
          5    1    4    4  501    0  0.12485163517E+03 -0.42545515253E+02 -0.43383105261E+02  0.13891586625E+03  0.41800000000E+01 0. -1.
         -5    1    4    4    0  501  0.20287737016E+03  0.84143630657E+02 -0.27715182302E+02  0.22141585678E+03  0.41800000000E+01 0. -1.
</event>
<event>
11    1  0.8328696E-009  0.1346569E+03  0.7561462E-02  0.1113676E+00
         22   -1    0    0    0    0  0.00000000000E+00  0.00000000000E+00  0.50830646791E+03  0.50830646791E+03  0.00000000000E+00 0. -1.
         22   -1    0    0    0    0 -0.00000000000E+00 -0.00000000000E+00 -0.85994932916E+03  0.85994932916E+03  0.00000000000E+00 0. -1.
        -24    2    1    2    0    0 -0.47967506209E+02  0.18180556989E+02 -0.80792778290E+03  0.81361750877E+03  0.81207966923E+02 0.  0.
         25    2    1    2    0    0  0.63074423448E+00 -0.88586359067E+01  0.45915021767E+02  0.13355106801E+03  0.12509526479E+03 0.  0.
         24    2    1    2    0    0  0.47336761974E+02 -0.93219210823E+01  0.41036989987E+03  0.42108722030E+03  0.81137692396E+02 0.  0.
        -11    1    5    5    0    0  0.38335490919E+02 -0.40393366112E+02  0.17888163323E+03  0.18734959994E+03  0.00000000000E+00 0.  1.
         12    1    5    5    0    0  0.90012710548E+01  0.31071445030E+02  0.23148826664E+03  0.23373762036E+03  0.00000000000E+00 0. -1.
         13    1    3    3    0    0  0.10232649804E+02  0.15363933038E+02 -0.49294880142E+03  0.49329431214E+03  0.00000000000E+00 0. -1.
        -14    1    3    3    0    0 -0.58200156013E+02  0.28166239507E+01 -0.31497898147E+03  0.32032319663E+03  0.00000000000E+00 0.  1.
          5    1    4    4  501    0  0.57288373657E+02 -0.26918082359E+02  0.10750963702E+02  0.64339696414E+02  0.41800000000E+01 0.  1.
         -5    1    4    4    0  501 -0.56657629423E+02  0.18059446452E+02  0.35164058065E+02  0.69211371591E+02  0.41800000000E+01 0.  1.
</event>
<event>
11    1  0.8328696E-009  0.1258370E+03  0.7561462E-02  0.1124492E+00
         22   -1    0    0    0    0  0.00000000000E+00  0.00000000000E+00  0.18008404970E+03  0.18008404970E+03  0.00000000000E+00 0.  1.
         22   -1    0    0    0    0 -0.00000000000E+00 -0.00000000000E+00 -0.67219446874E+03  0.67219446874E+03  0.00000000000E+00 0. -1.
        -24    2    1    2    0    0 -0.53014404960E+00 -0.47193739232E+01 -0.38302515840E+03  0.39150036937E+03  0.80880861154E+02 0.  0.
         25    2    1    2    0    0  0.88249495937E+01  0.47446863553E+02 -0.25915476899E+03  0.29178274376E+03  0.12508753202E+03 0.  0.
         24    2    1    2    0    0 -0.82948055441E+01 -0.42727489629E+02  0.15006950836E+03  0.16899540532E+03  0.64375053483E+02 0.  0.
        -13    1    5    5    0    0  0.18520296548E+00 -0.32583856085E+02  0.15216002058E+03  0.15560981280E+03  0.00000000000E+00 0.  1.
         14    1    5    5    0    0 -0.84800085096E+01 -0.10143633545E+02 -0.20905122167E+01  0.13385592521E+02  0.00000000000E+00 0. -1.
         13    1    3    3    0    0  0.13670604149E+02 -0.37984662721E+02 -0.26500135378E+03  0.26805864569E+03  0.00000000000E+00 0. -1.
        -14    1    3    3    0    0 -0.14200748198E+02  0.33265288798E+02 -0.11802380462E+03  0.12344172368E+03  0.00000000000E+00 0.  1.
          5    1    4    4  501    0 -0.39090819494E+02 -0.25375753755E+02 -0.92136771162E+02  0.10333768938E+03  0.41800000000E+01 0. -1.
         -5    1    4    4    0  501  0.47915769088E+02  0.72822617307E+02 -0.16701799783E+03  0.18844505438E+03  0.41800000000E+01 0. -1.
</event>
<event>
11    1  0.8328696E-009  0.1384812E+03  0.7561462E-02  0.1109266E+00
         22   -1    0    0    0    0  0.00000000000E+00  0.00000000000E+00  0.20325052837E+04  0.20325052837E+04  0.00000000000E+00 0.  1.
         22   -1    0    0    0    0 -0.00000000000E+00 -0.00000000000E+00 -0.11944482190E+03  0.11944482190E+03  0.00000000000E+00 0. -1.
         24    2    1    2    0    0  0.17040862447E+00  0.15406016331E+02 -0.68620520597E+02  0.10666703650E+03  0.80197920480E+02 0.  0.
         25    2    1    2    0    0  0.56847735101E+02 -0.31456943924E+02  0.13267438444E+03  0.19357536586E+03  0.12509086968E+03 0.  0.
        -24    2    1    2    0    0 -0.57018143725E+02  0.16050927593E+02  0.18490065980E+04  0.18517077033E+04  0.80543888381E+02 0.  0.
        -11    1    3    3    0    0 -0.38035746429E+02  0.12300888331E+02 -0.19841065606E+02  0.44628440983E+02  0.00000000000E+00 0.  1.
         12    1    3    3    0    0  0.38206155054E+02  0.31051280000E+01 -0.48779454991E+02  0.62038595512E+02  0.00000000000E+00 0. -1.
         11    1    5    5    0    0  0.19250231763E+02 -0.67120385311E+01  0.37924120577E+03  0.37978877687E+03  0.00000000000E+00 0. -1.
        -12    1    5    5    0    0 -0.76268375488E+02  0.22762966124E+02  0.14697653922E+04  0.14719189264E+04  0.00000000000E+00 0.  1.
          5    1    4    4  501    0 -0.32133183306E+02  0.18278931239E+02  0.49630810804E+02  0.62027014902E+02  0.41800000000E+01 0.  1.
         -5    1    4    4    0  501  0.88980918407E+02 -0.49735875164E+02  0.83043573631E+02  0.13154835096E+03  0.41800000000E+01 0.  1.
</event>
<event>
11    1  0.8328696E-009  0.1848991E+03  0.7561462E-02  0.1065747E+00
         22   -1    0    0    0    0  0.00000000000E+00  0.00000000000E+00  0.39740024818E+03  0.39740024818E+03  0.00000000000E+00 0.  1.
         22   -1    0    0    0    0 -0.00000000000E+00 -0.00000000000E+00 -0.37995760059E+03  0.37995760059E+03  0.00000000000E+00 0. -1.
        -24    2    1    2    0    0  0.48971672695E+02  0.61330435071E+02 -0.26316547198E+03  0.28923725871E+03  0.90788100486E+02 0.  0.
         25    2    1    2    0    0 -0.16714827102E+03 -0.89713459711E+02  0.81336190946E+02  0.24135048009E+03  0.12508968353E+03 0.  0.
         24    2    1    2    0    0  0.11817659832E+03  0.28383024641E+02  0.19927192863E+03  0.24677010997E+03  0.80092953214E+02 0.  0.
        -11    1    5    5    0    0  0.51763434639E+02  0.11769667834E+02  0.15835269055E+03  0.16701363073E+03  0.00000000000E+00 0.  1.
         12    1    5    5    0    0  0.66413163682E+02  0.16613356807E+02  0.40919238081E+02  0.79756479234E+02  0.00000000000E+00 0. -1.
         13    1    3    3    0    0  0.41624826495E+02  0.84907796107E+02 -0.22084513219E+03  0.24023849074E+03  0.00000000000E+00 0. -1.
        -14    1    3    3    0    0  0.73468462000E+01 -0.23577361036E+02 -0.42320339788E+02  0.48998767967E+02  0.00000000000E+00 0.  1.
          5    1    4    4  501    0 -0.94108885545E+01  0.28128756242E+02  0.63652297852E+01  0.30623198745E+02  0.41800000000E+01 0. -1.
         -5    1    4    4    0  501 -0.15773738246E+03 -0.11784221595E+03  0.74970961161E+02  0.21072728135E+03  0.41800000000E+01 0. -1.
</event>
<event>
11    1  0.8328696E-009  0.1823213E+03  0.7561462E-02  0.1067780E+00
         22   -1    0    0    0    0  0.00000000000E+00  0.00000000000E+00  0.25620738495E+03  0.25620738495E+03  0.00000000000E+00 0. -1.
         22   -1    0    0    0    0 -0.00000000000E+00 -0.00000000000E+00 -0.73755683862E+03  0.73755683862E+03  0.00000000000E+00 0. -1.
         24    2    1    2    0    0  0.13655878627E+03 -0.43878368632E+02 -0.45142295170E+03  0.48036539483E+03  0.79966354718E+02 0.  0.
         25    2    1    2    0    0 -0.11854284797E+03 -0.15112763910E+02 -0.23605895024E+03  0.29266483467E+03  0.12509226606E+03 0.  0.
        -24    2    1    2    0    0 -0.18015938301E+02  0.58991132542E+02  0.20613244827E+03  0.22073399406E+03  0.49278617633E+02 0.  0.
        -11    1    3    3    0    0  0.85553614757E+02 -0.66520516131E+02 -0.30318044019E+03  0.32196704704E+03  0.00000000000E+00 0.  1.
         12    1    3    3    0    0  0.51005171513E+02  0.22642147499E+02 -0.14824251150E+03  0.15839834779E+03  0.00000000000E+00 0. -1.
         13    1    5    5    0    0 -0.41942169106E+01  0.31312343514E+02  0.17111707118E+03  0.17400892609E+03  0.00000000000E+00 0. -1.
        -14    1    5    5    0    0 -0.13821721391E+02  0.27678789027E+02  0.35015377091E+02  0.46725067972E+02  0.00000000000E+00 0.  1.
          5    1    4    4  501    0 -0.43928067571E+02  0.43425542644E+02 -0.15822523213E+03  0.16990629582E+03  0.41800000000E+01 0.  1.
         -5    1    4    4    0  501 -0.74614780397E+02 -0.58538306554E+02 -0.77833718108E+02  0.12275853886E+03  0.41800000000E+01 0.  1.
</event>
<event>
11    1  0.8328696E-009  0.1368472E+03  0.7561462E-02  0.1111131E+00
         22   -1    0    0    0    0  0.00000000000E+00  0.00000000000E+00  0.90741551620E+03  0.90741551620E+03  0.00000000000E+00 0. -1.
         22   -1    0    0    0    0 -0.00000000000E+00 -0.00000000000E+00 -0.91662847131E+02  0.91662847131E+02  0.00000000000E+00 0. -1.
         24    2    1    2    0    0  0.36561048920E+01 -0.14797864862E+02 -0.51031374337E+02  0.95863573138E+02  0.79707462515E+02 0.  0.
         25    2    1    2    0    0 -0.56138910305E+02 -0.41093251198E+01  0.32635864580E+03  0.35400923317E+03  0.12507640734E+03 0.  0.
        -24    2    1    2    0    0  0.52482805413E+02  0.18907189982E+02  0.54042539760E+03  0.54920555702E+03  0.80344301590E+02 0.  0.
        -11    1    3    3    0    0  0.52534900386E+00 -0.46012024475E+02 -0.15711090900E+02  0.48623253338E+02  0.00000000000E+00 0.  1.
         12    1    3    3    0    0  0.31307558882E+01  0.31214159613E+02 -0.35320283437E+02  0.47240319800E+02  0.00000000000E+00 0. -1.
         13    1    5    5    0    0  0.67229407630E+02  0.80359380384E+01  0.50299970628E+03  0.50753627858E+03  0.00000000000E+00 0. -1.
        -14    1    5    5    0    0 -0.14746602217E+02  0.10871251944E+02  0.37425691316E+02  0.41669278447E+02  0.00000000000E+00 0.  1.
          5    1    4    4  501    0 -0.41166613549E+02 -0.51462908621E+02  0.27350076625E+03  0.28135966764E+03  0.41800000000E+01 0. -1.
         -5    1    4    4    0  501 -0.14972296756E+02  0.47353583501E+02  0.52857879559E+02  0.72649565532E+02  0.41800000000E+01 0. -1.
</event>
<event>
11    1  0.8328696E-009  0.1793784E+03  0.7561462E-02  0.1070147E+00
         22   -1    0    0    0    0  0.00000000000E+00  0.00000000000E+00  0.58155131072E+03  0.58155131072E+03  0.00000000000E+00 0. -1.
         22   -1    0    0    0    0 -0.00000000000E+00 -0.00000000000E+00 -0.32167071510E+03  0.32167071510E+03  0.00000000000E+00 0. -1.
         24    2    1    2    0    0 -0.99799627769E+02  0.86076617709E+02 -0.23486018270E+03  0.28152998879E+03  0.82040717644E+02 0.  0.
         25    2    1    2    0    0  0.12623036897E+03 -0.16379542446E+02  0.84691402223E+02  0.19754639273E+03  0.12509815431E+03 0.  0.
        -24    2    1    2    0    0 -0.26430741196E+02 -0.69697075263E+02  0.41004937609E+03  0.42414564430E+03  0.78757668582E+02 0.  0.
        -13    1    3    3    0    0  0.11921216329E+02  0.35503062798E+01 -0.59787394033E+01  0.13800920198E+02  0.00000000000E+00 0.  1.
         14    1    3    3    0    0 -0.11172084410E+03  0.82526311429E+02 -0.22888144330E+03  0.26772906859E+03  0.00000000000E+00 0. -1.
         13    1    5    5    0    0 -0.40099223673E+01 -0.59972560481E+02  0.38301395994E+03  0.38770153598E+03  0.00000000000E+00 0. -1.
        -14    1    5    5    0    0 -0.22420818829E+02 -0.97245147814E+01  0.27035416149E+02  0.36444108317E+02  0.00000000000E+00 0.  1.
          5    1    4    4  501    0  0.59118441428E+02 -0.64874112945E+02  0.14790645076E+02  0.89105983127E+02  0.41800000000E+01 0.  1.
         -5    1    4    4    0  501  0.67111927537E+02  0.48494570499E+02  0.69900757148E+02  0.10844040961E+03  0.41800000000E+01 0.  1.
</event>
<event>
11    1  0.8328696E-009  0.1748009E+03  0.7561462E-02  0.1073928E+00
         22   -1    0    0    0    0  0.00000000000E+00  0.00000000000E+00  0.18017178693E+04  0.18017178693E+04  0.00000000000E+00 0.  1.
         22   -1    0    0    0    0 -0.00000000000E+00 -0.00000000000E+00 -0.22791759312E+03  0.22791759312E+03  0.00000000000E+00 0. -1.
         24    2    1    2    0    0 -0.12200706989E+03 -0.20316016808E+01 -0.19363213956E+03  0.24258057831E+03  0.80387057370E+02 0.  0.
         25    2    1    2    0    0  0.12510681514E+03 -0.53639347105E+01  0.10286804053E+04  0.10437971819E+04  0.12509473840E+03 0.  0.
        -24    2    1    2    0    0 -0.30997452465E+01  0.73955363913E+01  0.73875201038E+03  0.74325770220E+03  0.81321440399E+02 0.  0.
        -11    1    3    3    0    0 -0.20873927189E+02  0.32986573227E+02 -0.54927331641E+02  0.67385804223E+02  0.00000000000E+00 0.  1.
         12    1    3    3    0    0 -0.10113314271E+03 -0.35018174908E+02 -0.13870480792E+03  0.17519477409E+03  0.00000000000E+00 0. -1.
         11    1    5    5    0    0  0.35901921260E+02  0.12069000885E+02  0.48575759457E+03  0.48723202832E+03  0.00000000000E+00 0. -1.
        -12    1    5    5    0    0 -0.39001666507E+02 -0.46734644934E+01  0.25299441580E+03  0.25602567389E+03  0.00000000000E+00 0.  1.
          5    1    4    4  501    0  0.85320629292E+01  0.44475167233E+02  0.38990024457E+03  0.39254364052E+03  0.41800000000E+01 0.  1.
         -5    1    4    4    0  501  0.11657475221E+03 -0.49839101943E+02  0.63878016076E+03  0.65125354135E+03  0.41800000000E+01 0.  1.
</event>
<event>
11    1  0.8328696E-009  0.1451671E+03  0.7561462E-02  0.1101922E+00
         22   -1    0    0    0    0  0.00000000000E+00  0.00000000000E+00  0.12888721216E+04  0.12888721216E+04  0.00000000000E+00 0. -1.
         22   -1    0    0    0    0 -0.00000000000E+00 -0.00000000000E+00 -0.39802761775E+03  0.39802761775E+03  0.00000000000E+00 0.  1.
         24    2    1    2    0    0 -0.28800778073E+02 -0.19455542921E+02 -0.25023671037E+03  0.26527806816E+03  0.80907597058E+02 0.  0.
         25    2    1    2    0    0  0.18144382466E+02  0.92074964005E+02 -0.93476430289E+02  0.18218777459E+03  0.12509006587E+03 0.  0.
        -24    2    1    2    0    0  0.10656395607E+02 -0.72619421085E+02  0.12345576445E+04  0.12394338966E+04  0.81710876449E+02 0.  0.
        -13    1    3    3    0    0 -0.48963521229E+02 -0.44703550130E+01 -0.22245012633E+03  0.22781893949E+03  0.00000000000E+00 0.  1.
         14    1    3    3    0    0  0.20162743157E+02 -0.14985187908E+02 -0.27786584040E+02  0.37459128672E+02  0.00000000000E+00 0. -1.
         11    1    5    5    0    0 -0.26100391064E+02 -0.52728560710E+02  0.95038422009E+03  0.95220360077E+03  0.00000000000E+00 0. -1.
        -12    1    5    5    0    0  0.36756786671E+02 -0.19890860374E+02  0.28417342441E+03  0.28723029581E+03  0.00000000000E+00 0.  1.
          5    1    4    4  501    0  0.50093646992E+02  0.51121186823E+02  0.38397714071E+01  0.71798088106E+02  0.41800000000E+01 0.  1.
         -5    1    4    4    0  501 -0.31949264527E+02  0.40953777182E+02 -0.97316201697E+02  0.11038968648E+03  0.41800000000E+01 0.  1.
</event>
<event>
11    1  0.8328696E-009  0.4183961E+03  0.7561462E-02  0.9596986E-01
         22   -1    0    0    0    0  0.00000000000E+00  0.00000000000E+00  0.25081145141E+04  0.25081145141E+04  0.00000000000E+00 0.  1.
         22   -1    0    0    0    0 -0.00000000000E+00 -0.00000000000E+00 -0.15985909415E+04  0.15985909415E+04  0.00000000000E+00 0.  1.
         24    2    1    2    0    0 -0.12921600271E+03 -0.36054029849E+03 -0.12280047413E+04  0.12889302226E+04  0.81605096889E+02 0.  0.
         25    2    1    2    0    0  0.14393532415E+03  0.48745067211E+03 -0.13471287021E+03  0.54048202610E+03  0.12509087842E+03 0.  0.
        -24    2    1    2    0    0 -0.14719321433E+02 -0.12691037362E+03  0.22722411841E+04  0.22772932069E+04  0.81617706346E+02 0.  0.
        -13    1    3    3    0    0 -0.94573161664E+02 -0.33621219836E+03 -0.10941689526E+04  0.11485592811E+04  0.00000000000E+00 0.  1.
         14    1    3    3    0    0 -0.34642841050E+02 -0.24328100126E+02 -0.13383578866E+03  0.14037094150E+03  0.00000000000E+00 0. -1.
         13    1    5    5    0    0 -0.28647956372E+02 -0.85522471495E+02  0.93521930439E+03  0.93955837809E+03  0.00000000000E+00 0. -1.
        -14    1    5    5    0    0  0.13928634939E+02 -0.41387902122E+02  0.13370218797E+04  0.13377348288E+04  0.00000000000E+00 0.  1.
          5    1    4    4  501    0  0.89908540314E+02  0.18589729246E+03 -0.10763688591E+03  0.23290453103E+03  0.41800000000E+01 0. -1.
         -5    1    4    4    0  501  0.54026783832E+02  0.30155337965E+03 -0.27075984295E+02  0.30757749507E+03  0.41800000000E+01 0. -1.
</event>
<event>
11    1  0.8328696E-009  0.1406143E+03  0.7561462E-02  0.1106874E+00
         22   -1    0    0    0    0  0.00000000000E+00  0.00000000000E+00  0.25362203416E+04  0.25362203416E+04  0.00000000000E+00 0.  1.
         22   -1    0    0    0    0 -0.00000000000E+00 -0.00000000000E+00 -0.14839177613E+04  0.14839177613E+04  0.00000000000E+00 0. -1.
        -24    2    1    2    0    0 -0.58309233980E+01 -0.30615710528E+02 -0.14757395884E+04  0.14782233313E+04  0.79784477855E+02 0.  0.
         25    2    1    2    0    0 -0.54750281537E+02  0.46936943160E+02  0.10861553005E+04  0.10957119969E+04  0.12510305078E+03 0.  0.
         24    2    1    2    0    0  0.60581204935E+02 -0.16321232632E+02  0.14418868682E+04  0.14462027748E+04  0.92348578905E+02 0.  0.
        -13    1    5    5    0    0  0.24343175870E+02 -0.44626106208E+02  0.11078804331E+04  0.11090460466E+04  0.00000000000E+00 0.  1.
         14    1    5    5    0    0  0.36238029065E+02  0.28304873576E+02  0.33400643513E+03  0.33715672814E+03  0.00000000000E+00 0. -1.
         11    1    3    3    0    0  0.92268464698E+01  0.25553147790E+02 -0.41108063316E+03  0.41197740838E+03  0.00000000000E+00 0. -1.
        -12    1    3    3    0    0 -0.15057769868E+02 -0.56168858317E+02 -0.10646589552E+04  0.10662459229E+04  0.00000000000E+00 0.  1.
          5    1    4    4  501    0 -0.21813242857E+02 -0.13071590752E+01  0.27207892557E+02  0.35146380272E+02  0.41800000000E+01 0.  1.
         -5    1    4    4    0  501 -0.32937038680E+02  0.48244102235E+02  0.10589474080E+04  0.10605656166E+04  0.41800000000E+01 0.  1.
</event>
<event>
11    1  0.8328696E-009  0.1341504E+03  0.7561462E-02  0.1114272E+00
         22   -1    0    0    0    0  0.00000000000E+00  0.00000000000E+00  0.37435540148E+03  0.37435540148E+03  0.00000000000E+00 0.  1.
         22   -1    0    0    0    0 -0.00000000000E+00 -0.00000000000E+00 -0.31887722766E+03  0.31887722766E+03  0.00000000000E+00 0. -1.
         24    2    1    2    0    0  0.10050176192E+02  0.48416875918E+01 -0.23790376633E+03  0.25151271248E+03  0.80845497861E+02 0.  0.
         25    2    1    2    0    0 -0.54259542316E+02  0.13133905851E+02  0.34340405043E+01  0.13702135908E+03  0.12508582172E+03 0.  0.
        -24    2    1    2    0    0  0.44209366124E+02 -0.17975593442E+02  0.28994789964E+03  0.30469855758E+03  0.80584343841E+02 0.  0.
        -13    1    3    3    0    0 -0.24368105953E+02 -0.15351067446E+01 -0.22240793862E+02  0.33027474201E+02  0.00000000000E+00 0.  1.
         14    1    3    3    0    0  0.34418282146E+02  0.63767943364E+01 -0.21566297247E+03  0.21848523828E+03  0.00000000000E+00 0. -1.
         11    1    5    5    0    0 -0.19744049258E+02 -0.21453351414E+02  0.10509689796E+03  0.10906618050E+03  0.00000000000E+00 0. -1.
        -12    1    5    5    0    0  0.63953415381E+02  0.34777579716E+01  0.18485100168E+03  0.19563237708E+03  0.00000000000E+00 0.  1.
          5    1    4    4  501    0 -0.58282766992E+02 -0.26625861601E+02 -0.41721820215E+02  0.76576759635E+02  0.41800000000E+01 0.  1.
         -5    1    4    4    0  501  0.40232246755E+01  0.39759767452E+02  0.45155860719E+02  0.60444599444E+02  0.41800000000E+01 0.  1.
</event>
<event>
11    1  0.8328696E-009  0.1422257E+03  0.7561462E-02  0.1105098E+00
         22   -1    0    0    0    0  0.00000000000E+00  0.00000000000E+00  0.24335762156E+03  0.24335762156E+03  0.00000000000E+00 0. -1.
         22   -1    0    0    0    0 -0.00000000000E+00 -0.00000000000E+00 -0.10962315506E+04  0.10962315506E+04  0.00000000000E+00 0.  1.
         24    2    1    2    0    0 -0.55217064573E+02  0.37623094069E+02 -0.10035671462E+04  0.10090916480E+04  0.81575214059E+02 0.  0.
         25    2    1    2    0    0  0.87147239407E+02 -0.35656556094E+02 -0.94806601323E+00  0.15656833575E+03  0.12508682425E+03 0.  0.
        -24    2    1    2    0    0 -0.31930174834E+02 -0.19665379750E+01  0.15164128318E+03  0.17392918850E+03  0.78948594101E+02 0.  0.
        -11    1    3    3    0    0 -0.37980093486E+02  0.41996644573E+02 -0.96457719347E+03  0.96623773876E+03  0.00000000000E+00 0.  1.
         12    1    3    3    0    0 -0.17236971088E+02 -0.43735505041E+01 -0.38989952769E+02  0.42853909194E+02  0.00000000000E+00 0. -1.
         13    1    5    5    0    0 -0.27614705298E+02  0.21913639560E+01  0.16069867391E+03  0.16306881315E+03  0.00000000000E+00 0. -1.
        -14    1    5    5    0    0 -0.43154695363E+01 -0.41579019310E+01 -0.90573907338E+01  0.10860375348E+02  0.00000000000E+00 0.  1.
          5    1    4    4  501    0 -0.54324292583E+01 -0.53804478242E+02  0.23359883823E+02  0.59055818839E+02  0.41800000000E+01 0.  1.
         -5    1    4    4    0  501  0.92579668666E+02  0.18147922147E+02 -0.24307949837E+02  0.97512516908E+02  0.41800000000E+01 0.  1.
</event>
<event>
11    1  0.8328696E-009  0.2322147E+03  0.7561462E-02  0.1033825E+00
         22   -1    0    0    0    0  0.00000000000E+00  0.00000000000E+00  0.37950153573E+03  0.37950153573E+03  0.00000000000E+00 0.  1.
         22   -1    0    0    0    0 -0.00000000000E+00 -0.00000000000E+00 -0.24138531382E+03  0.24138531382E+03  0.00000000000E+00 0.  1.
        -24    2    1    2    0    0  0.22790793708E+02 -0.11596777468E+03  0.30592902218E+02  0.14868124683E+03  0.84866026483E+02 0.  0.
         25    2    1    2    0    0 -0.13637922726E+03 -0.90159202011E+02  0.15171474489E+02  0.20641362511E+03  0.12509370750E+03 0.  0.
         24    2    1    2    0    0  0.11358843356E+03  0.20612697669E+03  0.92351845211E+02  0.26579197761E+03  0.82011275397E+02 0.  0.
        -11    1    5    5    0    0  0.93225487440E+02  0.18234088929E+03  0.10718487597E+03  0.23114451984E+03  0.00000000000E+00 0.  1.
         12    1    5    5    0    0  0.20362946117E+02  0.23786087397E+02 -0.14833030763E+02  0.34647457769E+02  0.00000000000E+00 0. -1.
         11    1    3    3    0    0  0.25862972608E+02 -0.18389996821E+02  0.39477883118E+02  0.50651639566E+02  0.00000000000E+00 0. -1.
        -12    1    3    3    0    0 -0.30721788996E+01 -0.97577777857E+02 -0.88849809001E+01  0.98029607264E+02  0.00000000000E+00 0.  1.
          5    1    4    4  501    0  0.36330366258E+01 -0.11627545772E+02  0.41706044458E+02  0.43649345014E+02  0.41800000000E+01 0.  1.
         -5    1    4    4    0  501 -0.14001226389E+03 -0.78531656238E+02 -0.26534569970E+02  0.16276428009E+03  0.41800000000E+01 0.  1.
</event>
<event>
11    1  0.8328696E-009  0.1337477E+03  0.7561462E-02  0.1114748E+00
         22   -1    0    0    0    0  0.00000000000E+00  0.00000000000E+00  0.51902720717E+03  0.51902720717E+03  0.00000000000E+00 0. -1.
         22   -1    0    0    0    0 -0.00000000000E+00 -0.00000000000E+00 -0.49281216649E+03  0.49281216649E+03  0.00000000000E+00 0. -1.
        -24    2    1    2    0    0  0.18151386005E+02 -0.40197096160E+01 -0.34663837308E+03  0.35616717888E+03  0.79694835087E+02 0.  0.
         25    2    1    2    0    0 -0.62184983029E+02  0.19719098069E+02 -0.10029096056E+03  0.17308713034E+03  0.12508022616E+03 0.  0.
         24    2    1    2    0    0  0.44033597024E+02 -0.15699388453E+02  0.47314437433E+03  0.48258506445E+03  0.82688070512E+02 0.  0.
        -13    1    5    5    0    0  0.19742374049E+02  0.30047359264E+02  0.10902311446E+03  0.11479827794E+03  0.00000000000E+00 0.  1.
         14    1    5    5    0    0  0.24291222975E+02 -0.45746747718E+02  0.36412125987E+03  0.36778678650E+03  0.00000000000E+00 0. -1.
         11    1    3    3    0    0 -0.65512611533E+01  0.30259108893E+02 -0.23072749183E+03  0.23279542131E+03  0.00000000000E+00 0. -1.
        -12    1    3    3    0    0  0.24702647158E+02 -0.34278818509E+02 -0.11591088125E+03  0.12337175758E+03  0.00000000000E+00 0.  1.
          5    1    4    4  501    0 -0.23192508844E+02 -0.42611734112E+02 -0.38378551999E-01  0.48694211395E+02  0.41800000000E+01 0. -1.
         -5    1    4    4    0  501 -0.38992474185E+02  0.62330832181E+02 -0.10025258201E+03  0.12439291894E+03  0.41800000000E+01 0. -1.
</event>
<event>
11    1  0.8328696E-009  0.1501552E+03  0.7561462E-02  0.1096720E+00
         22   -1    0    0    0    0  0.00000000000E+00  0.00000000000E+00  0.13215152873E+04  0.13215152873E+04  0.00000000000E+00 0.  1.
         22   -1    0    0    0    0 -0.00000000000E+00 -0.00000000000E+00 -0.31201182725E+03  0.31201182725E+03  0.00000000000E+00 0. -1.
        -24    2    1    2    0    0 -0.17011097144E+02 -0.31940710945E+02 -0.28749497710E+03  0.30063999978E+03  0.80134020034E+02 0.  0.
         25    2    1    2    0    0  0.84194769477E+02  0.68984660413E+02  0.46818997308E+03  0.49668521504E+03  0.12508680734E+03 0.  0.
         24    2    1    2    0    0 -0.67183672333E+02 -0.37043949468E+02  0.82880846405E+03  0.83620189970E+03  0.80151400298E+02 0.  0.
        -13    1    5    5    0    0 -0.60052826186E+02 -0.56435733105E+02  0.75722967511E+03  0.76170080397E+03  0.00000000000E+00 0.  1.
         14    1    5    5    0    0 -0.71308461472E+01  0.19391783637E+02  0.71578788937E+02  0.74501095731E+02  0.00000000000E+00 0. -1.
         13    1    3    3    0    0 -0.59612559118E+01  0.56866821278E+01 -0.23484703880E+03  0.23499150316E+03  0.00000000000E+00 0. -1.
        -14    1    3    3    0    0 -0.11049841232E+02 -0.37627393073E+02 -0.52647938310E+02  0.65648496624E+02  0.00000000000E+00 0.  1.
          5    1    4    4  501    0  0.53819424143E+02  0.13079397425E+02  0.39800462981E+03  0.40186161649E+03  0.41800000000E+01 0.  1.
         -5    1    4    4    0  501  0.30375345334E+02  0.55905262988E+02  0.70185343265E+02  0.94823598557E+02  0.41800000000E+01 0.  1.
</event>
<event>
11    1  0.8328696E-009  0.1659728E+03  0.7561462E-02  0.1081590E+00
         22   -1    0    0    0    0  0.00000000000E+00  0.00000000000E+00  0.20612114467E+04  0.20612114467E+04  0.00000000000E+00 0. -1.
         22   -1    0    0    0    0 -0.00000000000E+00 -0.00000000000E+00 -0.17744557428E+03  0.17744557428E+03  0.00000000000E+00 0.  1.
         24    2    1    2    0    0  0.37776929071E+01 -0.45124494484E+02 -0.10592994471E+03  0.14011284115E+03  0.79749383084E+02 0.  0.
         25    2    1    2    0    0  0.55787325423E+02  0.13462952641E+03  0.12523792386E+03  0.22927890537E+03  0.12508774447E+03 0.  0.
        -24    2    1    2    0    0 -0.59565018330E+02 -0.89505031924E+02  0.18644578932E+04  0.18692652744E+04  0.79939279482E+02 0.  0.
        -13    1    3    3    0    0 -0.22317568194E+02 -0.57741426181E+02 -0.63088639117E+02  0.88387343739E+02  0.00000000000E+00 0.  1.
         14    1    3    3    0    0  0.26095261101E+02  0.12616931697E+02 -0.42841305593E+02  0.51725497410E+02  0.00000000000E+00 0. -1.
         13    1    5    5    0    0  0.61300263108E+01 -0.15606976849E+02  0.81194023523E+03  0.81211335449E+03  0.00000000000E+00 0. -1.
        -14    1    5    5    0    0 -0.65695044641E+02 -0.73898055075E+02  0.10525176580E+04  0.10571519199E+04  0.00000000000E+00 0.  1.
          5    1    4    4  501    0  0.72183687839E+02  0.97922652661E+02  0.14066115053E+03  0.18601710234E+03  0.41800000000E+01 0.  1.
         -5    1    4    4    0  501 -0.16396362416E+02  0.36706873746E+02 -0.15423226671E+02  0.43261803033E+02  0.41800000000E+01 0.  1.
</event>
<event>
11    1  0.8328696E-009  0.2293770E+03  0.7561462E-02  0.1035497E+00
         22   -1    0    0    0    0  0.00000000000E+00  0.00000000000E+00  0.16229842604E+04  0.16229842604E+04  0.00000000000E+00 0.  1.
         22   -1    0    0    0    0 -0.00000000000E+00 -0.00000000000E+00 -0.18814421228E+03  0.18814421228E+03  0.00000000000E+00 0.  1.
         24    2    1    2    0    0 -0.17074694644E+03  0.21302227298E+02 -0.35832492457E+02  0.19370179707E+03  0.81413230308E+02 0.  0.
         25    2    1    2    0    0  0.27392446863E+03 -0.42343320363E+02  0.26167796368E+03  0.40118362041E+03  0.12508145074E+03 0.  0.
        -24    2    1    2    0    0 -0.10317752219E+03  0.21041093065E+02  0.12089945769E+04  0.12162430552E+04  0.80566454889E+02 0.  0.
        -11    1    3    3    0    0 -0.55472132716E+02  0.12440082883E+02 -0.51897863928E+02  0.76975979698E+02  0.00000000000E+00 0.  1.
         12    1    3    3    0    0 -0.11527481372E+03  0.88621444148E+01  0.16065371470E+02  0.11672581738E+03  0.00000000000E+00 0. -1.
         11    1    5    5    0    0 -0.11934035118E+02 -0.79890958026E+01  0.28912333400E+02  0.32282655848E+02  0.00000000000E+00 0. -1.
        -12    1    5    5    0    0 -0.91243487073E+02  0.29030188868E+02  0.11800822435E+04  0.11839603993E+04  0.00000000000E+00 0.  1.
          5    1    4    4  501    0  0.69445583406E+02  0.67873522427E+01  0.14422676677E+03  0.16027348458E+03  0.41800000000E+01 0. -1.
         -5    1    4    4    0  501  0.20447888522E+03 -0.49130672606E+02  0.11745119690E+03  0.24091013583E+03  0.41800000000E+01 0. -1.
</event>
<event>
11    1  0.8328696E-009  0.1301638E+03  0.7561462E-02  0.1119068E+00
         22   -1    0    0    0    0  0.00000000000E+00  0.00000000000E+00  0.30954398793E+03  0.30954398793E+03  0.00000000000E+00 0. -1.
         22   -1    0    0    0    0 -0.00000000000E+00 -0.00000000000E+00 -0.93452955064E+03  0.93452955064E+03  0.00000000000E+00 0. -1.
         24    2    1    2    0    0  0.32834938765E+02  0.41488770797E+01 -0.88523188909E+03  0.88941695868E+03  0.79571870242E+02 0.  0.
         25    2    1    2    0    0  0.17068799315E+01 -0.26387773053E+02  0.72778554811E+02  0.14712005765E+03  0.12509342635E+03 0.  0.
        -24    2    1    2    0    0 -0.34541818697E+02  0.22238895974E+02  0.18746777157E+03  0.20753652225E+03  0.78990739705E+02 0.  0.
        -11    1    3    3    0    0  0.37064495331E+02  0.37438928289E+01 -0.16421411541E+03  0.16838666588E+03  0.00000000000E+00 0.  1.
         12    1    3    3    0    0 -0.42295565663E+01  0.40498425076E+00 -0.72101777368E+03  0.72103029279E+03  0.00000000000E+00 0. -1.
         11    1    5    5    0    0 -0.32934375504E+02  0.49212960818E+02  0.10250504404E+03  0.11838020382E+03  0.00000000000E+00 0. -1.
        -12    1    5    5    0    0 -0.16074431924E+01 -0.26974064845E+02  0.84962727529E+02  0.89156318436E+02  0.00000000000E+00 0.  1.
          5    1    4    4  501    0  0.26359999071E+02  0.14140767330E+02  0.91191025576E+02  0.96062929361E+02  0.41800000000E+01 0.  1.
         -5    1    4    4    0  501 -0.24653119140E+02 -0.40528540384E+02 -0.18412470765E+02  0.51057128284E+02  0.41800000000E+01 0.  1.
</event>
<event>
11    1  0.8328696E-009  0.1558304E+03  0.7561462E-02  0.1091066E+00
         22   -1    0    0    0    0  0.00000000000E+00  0.00000000000E+00  0.14212027063E+04  0.14212027063E+04  0.00000000000E+00 0.  1.
         22   -1    0    0    0    0 -0.00000000000E+00 -0.00000000000E+00 -0.21811347380E+03  0.21811347380E+03  0.00000000000E+00 0. -1.
         24    2    1    2    0    0 -0.74637116190E+02 -0.51036049665E+02 -0.17005053821E+03  0.20888423304E+03  0.80870636132E+02 0.  0.
         25    2    1    2    0    0  0.89224898349E+02  0.11227715107E+03  0.31893056935E+03  0.37139135100E+03  0.12509031295E+03 0.  0.
        -24    2    1    2    0    0 -0.14587782160E+02 -0.61241101407E+02  0.10542092013E+04  0.10590405960E+04  0.79035865264E+02 0.  0.
        -13    1    3    3    0    0 -0.54517877231E+02 -0.18253972635E+01 -0.37849676380E+02  0.66393742288E+02  0.00000000000E+00 0.  1.
         14    1    3    3    0    0 -0.20119238959E+02 -0.49210652402E+02 -0.13220086183E+03  0.14249049075E+03  0.00000000000E+00 0. -1.
         11    1    5    5    0    0 -0.22071596451E+02  0.58049648563E+01  0.10572323447E+03  0.10815847306E+03  0.00000000000E+00 0. -1.
        -12    1    5    5    0    0  0.74838142918E+01 -0.67046066263E+02  0.94848596685E+03  0.95088212298E+03  0.00000000000E+00 0.  1.
          5    1    4    4  501    0  0.75819279257E+02  0.21414169975E+02  0.23127075711E+03  0.24435786314E+03  0.41800000000E+01 0. -1.
         -5    1    4    4    0  501  0.13405619092E+02  0.90862981097E+02  0.87659812238E+02  0.12703348786E+03  0.41800000000E+01 0. -1.
</event>
<event>
11    1  0.8328696E-009  0.1646316E+03  0.7561462E-02  0.1082800E+00
         22   -1    0    0    0    0  0.00000000000E+00  0.00000000000E+00  0.87114863024E+03  0.87114863024E+03  0.00000000000E+00 0.  1.
         22   -1    0    0    0    0 -0.00000000000E+00 -0.00000000000E+00 -0.19492626873E+04  0.19492626873E+04  0.00000000000E+00 0.  1.
         24    2    1    2    0    0 -0.39257368890E+02  0.99006306697E+02 -0.19026236969E+04  0.19075918506E+04  0.87099636282E+02 0.  0.
         25    2    1    2    0    0  0.12249506041E+03 -0.16878565457E+03  0.40839822628E+03  0.47531963848E+03  0.12508401372E+03 0.  0.
        -24    2    1    2    0    0 -0.83237691516E+02  0.69779347869E+02  0.41611141362E+03  0.43749982842E+03  0.80372387306E+02 0.  0.
        -13    1    3    3    0    0 -0.53894464030E+02  0.10776475739E+03 -0.16515197862E+04  0.16559092549E+04  0.00000000000E+00 0.  1.
         14    1    3    3    0    0  0.14637095139E+02 -0.87584506901E+01 -0.25110391075E+03  0.25168259576E+03  0.00000000000E+00 0. -1.
         13    1    5    5    0    0 -0.68262605418E+02  0.19141003183E+02  0.14633829075E+03  0.16260706209E+03  0.00000000000E+00 0. -1.
        -14    1    5    5    0    0 -0.14975086098E+02  0.50638344686E+02  0.26977312288E+03  0.27489276633E+03  0.00000000000E+00 0.  1.
          5    1    4    4  501    0  0.12023805668E+03 -0.16329533001E+03  0.41721068138E+03  0.46390169232E+03  0.41800000000E+01 0.  1.
         -5    1    4    4    0  501  0.22570037290E+01 -0.54903245615E+01 -0.88124551053E+01  0.11417946164E+02  0.41800000000E+01 0.  1.
</event>
<event>
11    1  0.8328696E-009  0.1793303E+03  0.7561462E-02  0.1070186E+00
         22   -1    0    0    0    0  0.00000000000E+00  0.00000000000E+00  0.28371830173E+04  0.28371830173E+04  0.00000000000E+00 0.  1.
         22   -1    0    0    0    0 -0.00000000000E+00 -0.00000000000E+00 -0.29625370766E+03  0.29625370766E+03  0.00000000000E+00 0.  1.
        -24    2    1    2    0    0  0.37374384416E+02  0.61486397462E+02 -0.25653301753E+03  0.28588320069E+03  0.10364648410E+03 0.  0.
         25    2    1    2    0    0  0.19993293956E+02 -0.17233707807E+03  0.48181430661E+03  0.52715523635E+03  0.12509123422E+03 0.  0.
         24    2    1    2    0    0 -0.57367678372E+02  0.11085068061E+03  0.23156480206E+04  0.23203982879E+04  0.80271635963E+02 0.  0.
        -11    1    5    5    0    0 -0.19036236104E+02  0.41206102867E+02  0.15438140648E+04  0.15444812035E+04  0.00000000000E+00 0.  1.
         12    1    5    5    0    0 -0.38331442268E+02  0.69644577744E+02  0.77183395579E+03  0.77591708448E+03  0.00000000000E+00 0. -1.
         11    1    3    3    0    0  0.33320612708E+02  0.11019206862E+02 -0.13451424817E+02  0.37584930234E+02  0.00000000000E+00 0. -1.
        -12    1    3    3    0    0  0.40537717088E+01  0.50467190600E+02 -0.24308159272E+03  0.24829827045E+03  0.00000000000E+00 0.  1.
          5    1    4    4  501    0  0.47198996323E+02 -0.15598502346E+03  0.46098040432E+03  0.48895754250E+03  0.41800000000E+01 0.  1.
         -5    1    4    4    0  501 -0.27205702367E+02 -0.16352054616E+02  0.20833902290E+02  0.38197693858E+02  0.41800000000E+01 0.  1.
</event>
<event>
11    1  0.8328696E-009  0.1496211E+03  0.7561462E-02  0.1097267E+00
         22   -1    0    0    0    0  0.00000000000E+00  0.00000000000E+00  0.29420585481E+03  0.29420585481E+03  0.00000000000E+00 0. -1.
         22   -1    0    0    0    0 -0.00000000000E+00 -0.00000000000E+00 -0.37681091704E+03  0.37681091704E+03  0.00000000000E+00 0.  1.
         24    2    1    2    0    0  0.18320159583E+02 -0.22327707680E+01 -0.19743022585E+03  0.21548990364E+03  0.84359889638E+02 0.  0.
         25    2    1    2    0    0 -0.95419123689E+02  0.25627687081E+02 -0.11544310939E+03  0.19681638129E+03  0.12509192192E+03 0.  0.
        -24    2    1    2    0    0  0.77098964106E+02 -0.23394916313E+02  0.23026827302E+03  0.25871048692E+03  0.86116584387E+02 0.  0.
        -13    1    3    3    0    0  0.33319473500E+02  0.28682183875E+02 -0.63582825060E+02  0.77302203259E+02  0.00000000000E+00 0.  1.
         14    1    3    3    0    0 -0.14999313917E+02 -0.30914954643E+02 -0.13384740079E+03  0.13818770038E+03  0.00000000000E+00 0. -1.
         13    1    5    5    0    0  0.73994539354E+02 -0.25963037371E+02  0.23767590904E+03  0.25027806317E+03  0.00000000000E+00 0. -1.
        -14    1    5    5    0    0  0.31044247515E+01  0.25681210582E+01 -0.74076360247E+01  0.84324237490E+01  0.00000000000E+00 0.  1.
          5    1    4    4  501    0 -0.24080869659E+02  0.64232685348E+02 -0.86752957963E+02  0.11067643953E+03  0.41800000000E+01 0. -1.
         -5    1    4    4    0  501 -0.71338254029E+02 -0.38604998267E+02 -0.28690151427E+02  0.86139941770E+02  0.41800000000E+01 0. -1.
</event>
<event>
11    1  0.8328696E-009  0.1349244E+03  0.7561462E-02  0.1113362E+00
         22   -1    0    0    0    0  0.00000000000E+00  0.00000000000E+00  0.37480583366E+03  0.37480583366E+03  0.00000000000E+00 0.  1.
         22   -1    0    0    0    0 -0.00000000000E+00 -0.00000000000E+00 -0.14269723229E+04  0.14269723229E+04  0.00000000000E+00 0.  1.
         24    2    1    2    0    0 -0.13245041924E+02  0.50861555996E+02 -0.92870065128E+03  0.93353355135E+03  0.78978875650E+02 0.  0.
         25    2    1    2    0    0  0.38793741967E+02 -0.32414306860E+02 -0.48155641770E+03  0.50010006812E+03  0.12509137860E+03 0.  0.
        -24    2    1    2    0    0 -0.25548700043E+02 -0.18447249136E+02  0.35809057973E+03  0.36814453709E+03  0.79426065147E+02 0.  0.
        -11    1    3    3    0    0 -0.51280668359E+01  0.69846044320E+02 -0.57832035742E+03  0.58254545126E+03  0.00000000000E+00 0.  1.
         12    1    3    3    0    0 -0.81169750881E+01 -0.18984488324E+02 -0.35038029386E+03  0.35098810009E+03  0.00000000000E+00 0. -1.
         11    1    5    5    0    0  0.23257819204E+02 -0.76349724213E+01  0.46308427726E+02  0.52380238988E+02  0.00000000000E+00 0. -1.
        -12    1    5    5    0    0 -0.48806519247E+02 -0.10812276715E+02  0.31178215200E+03  0.31576429810E+03  0.00000000000E+00 0.  1.
          5    1    4    4  501    0 -0.17009455224E+02 -0.53519927873E+02 -0.10813368080E+03  0.12191829055E+03  0.41800000000E+01 0.  1.
         -5    1    4    4    0  501  0.55803197191E+02  0.21105621013E+02 -0.37342273689E+03  0.37818177757E+03  0.41800000000E+01 0.  1.
</event>
<event>
11    1  0.8328696E-009  0.1844948E+03  0.7561462E-02  0.1066064E+00
         22   -1    0    0    0    0  0.00000000000E+00  0.00000000000E+00  0.67850646809E+03  0.67850646809E+03  0.00000000000E+00 0.  1.
         22   -1    0    0    0    0 -0.00000000000E+00 -0.00000000000E+00 -0.23190203760E+04  0.23190203760E+04  0.00000000000E+00 0. -1.
         24    2    1    2    0    0 -0.86150189985E+02  0.10552193902E+03 -0.22918202152E+04  0.22973313238E+04  0.82064472983E+02 0.  0.
         25    2    1    2    0    0  0.56529535836E+02 -0.32973243552E+02  0.31986512053E+03  0.34963463547E+03  0.12509140568E+03 0.  0.
        -24    2    1    2    0    0  0.29620654149E+02 -0.72548695472E+02  0.33144118680E+03  0.35056088476E+03  0.83060082158E+02 0.  0.
        -13    1    3    3    0    0 -0.80810105124E+02  0.35530195974E+02 -0.11799456883E+04  0.11832432105E+04  0.00000000000E+00 0.  1.
         14    1    3    3    0    0 -0.53400848608E+01  0.69991743050E+02 -0.11118745269E+04  0.11140881133E+04  0.00000000000E+00 0. -1.
         13    1    5    5    0    0  0.28135089683E+02 -0.88532080186E+02  0.31095755668E+03  0.32453676918E+03  0.00000000000E+00 0. -1.
        -14    1    5    5    0    0  0.14855644657E+01  0.15983384714E+02  0.20483630120E+02  0.26024115578E+02  0.00000000000E+00 0.  1.
          5    1    4    4  501    0  0.73391188774E+02  0.23295514093E+02  0.13332084720E+03  0.15401580524E+03  0.41800000000E+01 0.  1.
         -5    1    4    4    0  501 -0.16861652938E+02 -0.56268757645E+02  0.18654427334E+03  0.19561883023E+03  0.41800000000E+01 0.  1.
</event>
<event>
11    1  0.8328696E-009  0.1702093E+03  0.7561462E-02  0.1077850E+00
         22   -1    0    0    0    0  0.00000000000E+00  0.00000000000E+00  0.99985464729E+03  0.99985464729E+03  0.00000000000E+00 0. -1.
         22   -1    0    0    0    0 -0.00000000000E+00 -0.00000000000E+00 -0.74636077778E+02  0.74636077778E+02  0.00000000000E+00 0.  1.
         24    2    1    2    0    0 -0.10612046615E+03 -0.20468743220E+02  0.76356238245E+02  0.15562789436E+03  0.81909972515E+02 0.  0.
         25    2    1    2    0    0  0.13845518930E+03 -0.20101590385E+02  0.27469991126E+03  0.33268807827E+03  0.12508957907E+03 0.  0.
        -24    2    1    2    0    0 -0.32334723147E+02  0.40570333605E+02  0.57416242001E+03  0.58617475244E+03  0.10605125915E+03 0.  0.
        -13    1    3    3    0    0 -0.11269383750E+03 -0.18320380382E+01  0.75859006562E+02  0.13585965645E+03  0.00000000000E+00 0.  1.
         14    1    3    3    0    0  0.65733713413E+01 -0.18636705182E+02  0.49723168329E+00  0.19768237913E+02  0.00000000000E+00 0. -1.
         11    1    5    5    0    0 -0.37161397294E+02  0.73635360791E+02  0.35339536578E+03  0.36289312527E+03  0.00000000000E+00 0. -1.
        -12    1    5    5    0    0  0.48266741465E+01 -0.33065027186E+02  0.22076705422E+03  0.22328162718E+03  0.00000000000E+00 0.  1.
          5    1    4    4  501    0 -0.17298317540E+02 -0.26275026509E+02  0.45378091662E+02  0.55373752001E+02  0.41800000000E+01 0. -1.
         -5    1    4    4    0  501  0.15575350684E+03  0.61734361234E+01  0.22932181960E+03  0.27731432627E+03  0.41800000000E+01 0. -1.
</event>
<event>
11    1  0.8328696E-009  0.1276974E+03  0.7561462E-02  0.1122131E+00
         22   -1    0    0    0    0  0.00000000000E+00  0.00000000000E+00  0.18508660092E+03  0.18508660092E+03  0.00000000000E+00 0. -1.
         22   -1    0    0    0    0 -0.00000000000E+00 -0.00000000000E+00 -0.60679494627E+03  0.60679494627E+03  0.00000000000E+00 0.  1.
         24    2    1    2    0    0  0.48576129713E+01  0.20488442176E+01 -0.49048091315E+03  0.49710567428E+03  0.80713884002E+02 0.  0.
         25    2    1    2    0    0  0.90203939339E+01  0.20120000457E+02 -0.59925361254E+02  0.14044582689E+03  0.12509116453E+03 0.  0.
        -24    2    1    2    0    0 -0.13878006905E+02 -0.22168844675E+02  0.12869792905E+03  0.15433004603E+03  0.81058925572E+02 0.  0.
        -11    1    3    3    0    0  0.27457016724E+02  0.15946692016E+02 -0.42863348151E+03  0.42980791783E+03  0.00000000000E+00 0.  1.
         12    1    3    3    0    0 -0.22599403753E+02 -0.13897847798E+02 -0.61847431635E+02  0.67297756450E+02  0.00000000000E+00 0. -1.
         11    1    5    5    0    0 -0.10584885274E+02 -0.16216196607E+01  0.13270665569E+03  0.13313799575E+03  0.00000000000E+00 0. -1.
        -12    1    5    5    0    0 -0.32931216311E+01 -0.20547225014E+02 -0.40087266398E+01  0.21192050281E+02  0.00000000000E+00 0.  1.
          5    1    4    4  501    0  0.26545135029E+02  0.14160588305E+02  0.33437384033E+02  0.45174080022E+02  0.41800000000E+01 0.  1.
         -5    1    4    4    0  501 -0.17524741095E+02  0.59594121520E+01 -0.93362745287E+02  0.95271746868E+02  0.41800000000E+01 0.  1.
</event>
<event>
11    1  0.8328696E-009  0.2150010E+03  0.7561462E-02  0.1044395E+00
         22   -1    0    0    0    0  0.00000000000E+00  0.00000000000E+00  0.36725507321E+03  0.36725507321E+03  0.00000000000E+00 0. -1.
         22   -1    0    0    0    0 -0.00000000000E+00 -0.00000000000E+00 -0.62047655606E+03  0.62047655606E+03  0.00000000000E+00 0.  1.
         24    2    1    2    0    0 -0.17709482180E+03 -0.35856513491E+02 -0.48176936770E+03  0.52031755080E+03  0.77332816715E+02 0.  0.
         25    2    1    2    0    0  0.14846034618E+03  0.19172318423E+02 -0.28558746055E+02  0.19716173823E+03  0.12509635033E+03 0.  0.
        -24    2    1    2    0    0  0.28634475624E+02  0.16684195067E+02  0.25710663091E+03  0.27025234025E+03  0.76382014854E+02 0.  0.
        -11    1    3    3    0    0 -0.14022193098E+03 -0.22799189210E+02 -0.44308807521E+03  0.46530531412E+03  0.00000000000E+00 0.  1.
         12    1    3    3    0    0 -0.36872890825E+02 -0.13057324280E+02 -0.38681292493E+02  0.55012236676E+02  0.00000000000E+00 0. -1.
         11    1    5    5    0    0  0.39844464660E+02  0.40573811974E+02  0.17712438802E+03  0.18602920312E+03  0.00000000000E+00 0. -1.
        -12    1    5    5    0    0 -0.11209989036E+02 -0.23889616907E+02  0.79982242884E+02  0.84223137123E+02  0.00000000000E+00 0.  1.
          5    1    4    4  501    0  0.34015312879E+02 -0.48807620316E+02 -0.22836290637E+02  0.63860738183E+02  0.41800000000E+01 0. -1.
         -5    1    4    4    0  501  0.11444503330E+03  0.67979938740E+02 -0.57224554179E+01  0.13330100005E+03  0.41800000000E+01 0. -1.
</event>
<event>
11    1  0.8328696E-009  0.1821591E+03  0.7561462E-02  0.1067910E+00
         22   -1    0    0    0    0  0.00000000000E+00  0.00000000000E+00  0.31781769310E+03  0.31781769310E+03  0.00000000000E+00 0. -1.
         22   -1    0    0    0    0 -0.00000000000E+00 -0.00000000000E+00 -0.32594548416E+03  0.32594548416E+03  0.00000000000E+00 0. -1.
        -24    2    1    2    0    0 -0.25848727483E+02  0.97066843171E+01 -0.16066291067E+03  0.18136818043E+03  0.79495091504E+02 0.  0.
         25    2    1    2    0    0 -0.84473334662E+02  0.71044332725E+02 -0.76298253213E+02  0.18344169923E+03  0.12508553909E+03 0.  0.
         24    2    1    2    0    0  0.11032206214E+03 -0.80751017043E+02  0.22883337282E+03  0.27895329760E+03  0.82210373896E+02 0.  0.
        -13    1    5    5    0    0  0.86463554222E+01 -0.37868734486E+02  0.22300797643E+02  0.44789798941E+02  0.00000000000E+00 0.  1.
         14    1    5    5    0    0  0.10167570672E+03 -0.42882282557E+02  0.20653257518E+03  0.23416349866E+03  0.00000000000E+00 0. -1.
         13    1    3    3    0    0 -0.51073106462E+02 -0.77787493272E+01 -0.11798530786E+03  0.12880024851E+03  0.00000000000E+00 0. -1.
        -14    1    3    3    0    0  0.25224378979E+02  0.17485433644E+02 -0.42677602808E+02  0.52567931917E+02  0.00000000000E+00 0.  1.
          5    1    4    4  501    0  0.24884231581E+02 -0.12237631199E+02 -0.21775494375E+02  0.35505339796E+02  0.41800000000E+01 0.  1.
         -5    1    4    4    0  501 -0.10935756624E+03  0.83281963924E+02 -0.54522758838E+02  0.14793635943E+03  0.41800000000E+01 0.  1.
</event>
<event>
11    1  0.1124252E-008  0.1566849E+03  0.7561462E-02  0.1090237E+00
         22   -1    0    0    0    0  0.00000000000E+00  0.00000000000E+00  0.72527100740E+03  0.72527100740E+03  0.00000000000E+00 0.  1.
         22   -1    0    0    0    0 -0.00000000000E+00 -0.00000000000E+00 -0.19653323121E+04  0.19653323121E+04  0.00000000000E+00 0.  1.
        -24    2    1    2    0    0 -0.64373151792E+02 -0.76927573432E+02 -0.17581839418E+04  0.17628833778E+04  0.80531214768E+02 0.  0.
         25    2    1    2    0    0  0.84592075113E+01  0.43306576465E+02 -0.17907038560E+03  0.22284738032E+03  0.12509090359E+03 0.  0.
         24    2    1    2    0    0  0.55913944281E+02  0.33620996967E+02  0.69719302269E+03  0.70487256131E+03  0.80687521948E+02 0.  0.
        -11    1    5    5    0    0  0.52241705357E+02 -0.13071213688E+02  0.28647605934E+03  0.29149371345E+03  0.00000000000E+00 0.  1.
         12    1    5    5    0    0  0.36722389234E+01  0.46692210656E+02  0.41071696336E+03  0.41337884787E+03  0.00000000000E+00 0. -1.
         13    1    3    3    0    0 -0.21725624853E+02  0.14716984275E+02 -0.47499337831E+03  0.47571767030E+03  0.00000000000E+00 0. -1.
        -14    1    3    3    0    0 -0.42647526939E+02 -0.91644557707E+02 -0.12831905634E+04  0.12871657075E+04  0.00000000000E+00 0.  1.
          5    1    4    4  501    0  0.57502460550E+02  0.14380726370E+01 -0.42114396716E+02  0.71412154658E+02  0.41800000000E+01 0.  1.
         -5    1    4    4    0  501 -0.49043253039E+02  0.41868503828E+02 -0.13695598888E+03  0.15143522567E+03  0.41800000000E+01 0.  1.
</event>
<event>
11    1  0.8328696E-009  0.2155928E+03  0.7561462E-02  0.1044014E+00
         22   -1    0    0    0    0  0.00000000000E+00  0.00000000000E+00  0.48623032069E+03  0.48623032069E+03  0.00000000000E+00 0.  1.
         22   -1    0    0    0    0 -0.00000000000E+00 -0.00000000000E+00 -0.62371274947E+03  0.62371274947E+03  0.00000000000E+00 0. -1.
        -24    2    1    2    0    0  0.11821206046E+03 -0.12771108453E+03 -0.40856071354E+03  0.45138797280E+03  0.80901378176E+02 0.  0.
         25    2    1    2    0    0 -0.10003193520E+03  0.15225854150E+03 -0.12460407886E+03  0.25369705205E+03  0.12508783407E+03 0.  0.
         24    2    1    2    0    0 -0.18180125257E+02 -0.24547456968E+02  0.39568236363E+03  0.40485804530E+03  0.80077520956E+02 0.  0.
        -13    1    5    5    0    0 -0.36552326944E+02 -0.24052847646E+02  0.37348553427E+03  0.37603996649E+03  0.00000000000E+00 0.  1.
         14    1    5    5    0    0  0.18372201687E+02 -0.49460932271E+00  0.22196829356E+02  0.28818078816E+02  0.00000000000E+00 0. -1.
         13    1    3    3    0    0  0.10771446959E+03 -0.10654226975E+03 -0.25968844317E+03  0.30065220724E+03  0.00000000000E+00 0. -1.
        -14    1    3    3    0    0  0.10497590866E+02 -0.21168814779E+02 -0.14887227038E+03  0.15073576557E+03  0.00000000000E+00 0.  1.
          5    1    4    4  501    0 -0.11697735210E+03  0.16099280733E+03 -0.12328719674E+03  0.23413583706E+03  0.41800000000E+01 0.  1.
         -5    1    4    4    0  501  0.16945416896E+02 -0.87342658358E+01 -0.13168821218E+01  0.19561214992E+02  0.41800000000E+01 0.  1.
</event>
<event>
11    1  0.8328696E-009  0.1400292E+03  0.7561462E-02  0.1107526E+00
         22   -1    0    0    0    0  0.00000000000E+00  0.00000000000E+00  0.71160847117E+03  0.71160847117E+03  0.00000000000E+00 0. -1.
         22   -1    0    0    0    0 -0.00000000000E+00 -0.00000000000E+00 -0.94385988363E+03  0.94385988363E+03  0.00000000000E+00 0.  1.
         24    2    1    2    0    0 -0.32892420721E+02  0.79229565989E+00 -0.86390735180E+03  0.86833295285E+03  0.81139789423E+02 0.  0.
         25    2    1    2    0    0  0.87660548154E+02 -0.28743290957E+02  0.76939853659E+01  0.15561928131E+03  0.12509042660E+03 0.  0.
        -24    2    1    2    0    0 -0.54768127433E+02  0.27950995297E+02  0.62396195398E+03  0.63151612064E+03  0.75520094674E+02 0.  0.
        -13    1    3    3    0    0 -0.38338539934E+02 -0.34607180711E+02 -0.52965703186E+03  0.53216921369E+03  0.00000000000E+00 0.  1.
         14    1    3    3    0    0  0.54461192135E+01  0.35399476371E+02 -0.33425031994E+03  0.33616373915E+03  0.00000000000E+00 0. -1.
         11    1    5    5    0    0 -0.20226520161E+02 -0.40963050641E+01  0.47121902127E+03  0.47167070912E+03  0.00000000000E+00 0. -1.
        -12    1    5    5    0    0 -0.34541607273E+02  0.32047300361E+02  0.15274293270E+03  0.15984541152E+03  0.00000000000E+00 0.  1.
          5    1    4    4  501    0  0.29241596192E+02  0.48894159515E+02 -0.58763671759E+01  0.57425724843E+02  0.41800000000E+01 0.  1.
         -5    1    4    4    0  501  0.58418951962E+02 -0.77637450472E+02  0.13570352542E+02  0.98193556470E+02  0.41800000000E+01 0.  1.
</event>
<event>
11    1  0.8328696E-009  0.1252748E+03  0.7561462E-02  0.1125215E+00
         22   -1    0    0    0    0  0.00000000000E+00  0.00000000000E+00  0.13187520660E+04  0.13187520660E+04  0.00000000000E+00 0.  1.
         22   -1    0    0    0    0 -0.00000000000E+00 -0.00000000000E+00 -0.15447023592E+03  0.15447023592E+03  0.00000000000E+00 0.  1.
        -24    2    1    2    0    0  0.52098894789E+01 -0.27819926112E+01 -0.12217668138E+03  0.14657008213E+03  0.80751254290E+02 0.  0.
         25    2    1    2    0    0 -0.24989344093E+02 -0.37249725975E+01  0.20036429726E+03  0.23755614492E+03  0.12509487453E+03 0.  0.
         24    2    1    2    0    0  0.19779454614E+02  0.65069652087E+01  0.10860942142E+04  0.10890960749E+04  0.78077210189E+02 0.  0.
        -13    1    5    5    0    0 -0.19217519813E+02  0.20806877137E+02  0.19629487989E+03  0.19832780711E+03  0.00000000000E+00 0.  1.
         14    1    5    5    0    0  0.38996974427E+02 -0.14299911928E+02  0.88979933432E+03  0.89076826776E+03  0.00000000000E+00 0. -1.
         11    1    3    3    0    0 -0.16288762732E+01 -0.31890923567E+02 -0.14962249323E+02  0.35264048955E+02  0.00000000000E+00 0. -1.
        -12    1    3    3    0    0  0.68387657522E+01  0.29108930956E+02 -0.10721443206E+03  0.11130603317E+03  0.00000000000E+00 0.  1.
          5    1    4    4  501    0 -0.40774073713E+02  0.41714564223E+02  0.42016434882E+02  0.72010298955E+02  0.41800000000E+01 0. -1.
         -5    1    4    4    0  501  0.15784729620E+02 -0.45439536820E+02  0.15834786238E+03  0.16554584596E+03  0.41800000000E+01 0. -1.
</event>
<event>
11    1  0.8328696E-009  0.1604694E+03  0.7561462E-02  0.1086637E+00
         22   -1    0    0    0    0  0.00000000000E+00  0.00000000000E+00  0.48539066907E+03  0.48539066907E+03  0.00000000000E+00 0.  1.
         22   -1    0    0    0    0 -0.00000000000E+00 -0.00000000000E+00 -0.25458737858E+03  0.25458737858E+03  0.00000000000E+00 0.  1.
        -24    2    1    2    0    0 -0.11133733551E+02  0.70457000641E+01 -0.16096626068E+03  0.18033558089E+03  0.80232055617E+02 0.  0.
         25    2    1    2    0    0  0.20465417452E+02  0.93762044267E+02  0.10941855959E+02  0.15804553389E+03  0.12509401390E+03 0.  0.
         24    2    1    2    0    0 -0.93316839017E+01 -0.10080774433E+03  0.38082769521E+03  0.40159693287E+03  0.77466647058E+02 0.  0.
        -13    1    5    5    0    0 -0.25532331024E+02 -0.67810029151E+02  0.33550813498E+03  0.34324307512E+03  0.00000000000E+00 0.  1.
         14    1    5    5    0    0  0.16200647122E+02 -0.32997715179E+02  0.45319560234E+02  0.58353857747E+02  0.00000000000E+00 0. -1.
         11    1    3    3    0    0  0.21179021159E+02 -0.17477373368E+01 -0.64153810879E+01  0.22198257534E+02  0.00000000000E+00 0. -1.
        -12    1    3    3    0    0 -0.32312754709E+02  0.87934374009E+01 -0.15455087959E+03  0.15813732336E+03  0.00000000000E+00 0.  1.
          5    1    4    4  501    0 -0.12382262871E+02  0.30726073353E+02  0.62005609747E+02  0.70424285993E+02  0.41800000000E+01 0.  1.
         -5    1    4    4    0  501  0.32847680323E+02  0.63035970913E+02 -0.51063753789E+02  0.87621247894E+02  0.41800000000E+01 0.  1.
</event>
<event>
11    1  0.8328696E-009  0.2024267E+03  0.7561462E-02  0.1052821E+00
         22   -1    0    0    0    0  0.00000000000E+00  0.00000000000E+00  0.52826839375E+03  0.52826839375E+03  0.00000000000E+00 0. -1.
         22   -1    0    0    0    0 -0.00000000000E+00 -0.00000000000E+00 -0.95616835772E+03  0.95616835772E+03  0.00000000000E+00 0.  1.
        -24    2    1    2    0    0 -0.75225478809E+02 -0.13161740643E+03 -0.60297082395E+03  0.62788226478E+03  0.87637375289E+02 0.  0.
         25    2    1    2    0    0  0.21730532291E+03  0.81420121448E+02 -0.27225287572E+03  0.37895731845E+03  0.12504471732E+03 0.  0.
         24    2    1    2    0    0 -0.14207984410E+03  0.50197284979E+02  0.44732373571E+03  0.47759716823E+03  0.72760436089E+02 0.  0.
        -13    1    5    5    0    0 -0.47567409372E+02  0.30649380077E+02  0.81239605857E+02  0.99004628646E+02  0.00000000000E+00 0.  1.
         14    1    5    5    0    0 -0.94512434729E+02  0.19547904902E+02  0.36608412985E+03  0.37859253959E+03  0.00000000000E+00 0. -1.
         13    1    3    3    0    0  0.13571209292E+00  0.11221780662E+02 -0.19771646341E+02  0.22734660280E+02  0.00000000000E+00 0. -1.
        -14    1    3    3    0    0 -0.75361190902E+02 -0.14283918709E+03 -0.58319917761E+03  0.60514760450E+03  0.00000000000E+00 0.  1.
          5    1    4    4  501    0  0.18021674716E+03  0.19527577119E+02 -0.23738350285E+03  0.29871023091E+03  0.41800000000E+01 0. -1.
         -5    1    4    4    0  501  0.37088575748E+02  0.61892544329E+02 -0.34869372873E+02  0.80247087543E+02  0.41800000000E+01 0. -1.
</event>
<event>
11    1  0.8328696E-009  0.1340355E+03  0.7561462E-02  0.1114408E+00
         22   -1    0    0    0    0  0.00000000000E+00  0.00000000000E+00  0.72928443932E+03  0.72928443932E+03  0.00000000000E+00 0.  1.
         22   -1    0    0    0    0 -0.00000000000E+00 -0.00000000000E+00 -0.15775440144E+03  0.15775440144E+03  0.00000000000E+00 0.  1.
        -24    2    1    2    0    0  0.47685895057E+02 -0.38850007983E+02 -0.52828221721E+02  0.11127642639E+03  0.76212560330E+02 0.  0.
         25    2    1    2    0    0  0.24128456668E+02  0.45966452119E+02 -0.82091719507E+01  0.13568113208E+03  0.12508749721E+03 0.  0.
         24    2    1    2    0    0 -0.71814351725E+02 -0.71164441353E+01  0.63256743155E+03  0.64008128229E+03  0.65988995942E+02 0.  0.
        -13    1    5    5    0    0 -0.77978926848E+02 -0.20764949241E+02  0.57327778609E+03  0.57892945699E+03  0.00000000000E+00 0.  1.
         14    1    5    5    0    0  0.61645751230E+01  0.13648505105E+02  0.59289645461E+02  0.61151825296E+02  0.00000000000E+00 0. -1.
         11    1    3    3    0    0  0.13988642713E+02  0.17334437190E+02 -0.38088916011E+02  0.44124033820E+02  0.00000000000E+00 0. -1.
        -12    1    3    3    0    0  0.33697252344E+02 -0.56184445173E+02 -0.14739305711E+02  0.67152392569E+02  0.00000000000E+00 0.  1.
          5    1    4    4  501    0  0.58924200641E+02  0.58931897098E+02  0.23484089011E+02  0.86683359149E+02  0.41800000000E+01 0. -1.
         -5    1    4    4    0  501 -0.34795743972E+02 -0.12965444979E+02 -0.31693260962E+02  0.48997772934E+02  0.41800000000E+01 0. -1.
</event>
<event>
11    1  0.8328696E-009  0.1592845E+03  0.7561462E-02  0.1087752E+00
         22   -1    0    0    0    0  0.00000000000E+00  0.00000000000E+00  0.10343239664E+04  0.10343239664E+04  0.00000000000E+00 0.  1.
         22   -1    0    0    0    0 -0.00000000000E+00 -0.00000000000E+00 -0.56395394719E+03  0.56395394719E+03  0.00000000000E+00 0.  1.
         24    2    1    2    0    0 -0.99771716500E+01  0.98433943754E+02 -0.51993373542E+03  0.53534043315E+03  0.80433232544E+02 0.  0.
         25    2    1    2    0    0 -0.73866552917E+02 -0.95371249665E+02  0.20339981229E+03  0.26752802704E+03  0.12509124153E+03 0.  0.
        -24    2    1    2    0    0  0.83843724567E+02 -0.30626940896E+01  0.78690394238E+03  0.79540945346E+03  0.80120121470E+02 0.  0.
        -11    1    3    3    0    0  0.82714307700E+01  0.88657903747E+02 -0.49494190366E+03  0.50288778914E+03  0.00000000000E+00 0.  1.
         12    1    3    3    0    0 -0.18248602420E+02  0.97760400072E+01 -0.24991831754E+02  0.32452644005E+02  0.00000000000E+00 0. -1.
         13    1    5    5    0    0  0.37317540324E+02  0.23032792122E+02  0.15009567416E+03  0.15637077646E+03  0.00000000000E+00 0. -1.
        -14    1    5    5    0    0  0.46526184243E+02 -0.26095486212E+02  0.63680826822E+03  0.63903867699E+03  0.00000000000E+00 0.  1.
          5    1    4    4  501    0  0.19314271321E+02 -0.75573321845E+02  0.83631828953E+02  0.11443829458E+03  0.41800000000E+01 0. -1.
         -5    1    4    4    0  501 -0.93180824238E+02 -0.19797927820E+02  0.11976798334E+03  0.15308973246E+03  0.41800000000E+01 0. -1.
</event>
<event>
11    1  0.8328696E-009  0.1499722E+03  0.7561462E-02  0.1096907E+00
         22   -1    0    0    0    0  0.00000000000E+00  0.00000000000E+00  0.16135897359E+04  0.16135897359E+04  0.00000000000E+00 0. -1.
         22   -1    0    0    0    0 -0.00000000000E+00 -0.00000000000E+00 -0.17858770751E+03  0.17858770751E+03  0.00000000000E+00 0.  1.
        -24    2    1    2    0    0 -0.23405103957E+02  0.25742435771E+02 -0.14669630689E+03  0.17193026800E+03  0.82642233208E+02 0.  0.
         25    2    1    2    0    0  0.86384312094E+02 -0.71845092049E+02  0.40845660399E+03  0.44170862817E+03  0.12508296537E+03 0.  0.
         24    2    1    2    0    0 -0.62979208136E+02  0.46102656278E+02  0.11732417313E+04  0.11785385472E+04  0.79781650182E+02 0.  0.
        -13    1    5    5    0    0  0.54237545277E+01 -0.17101907842E+02  0.23594953105E+03  0.23663066912E+03  0.00000000000E+00 0.  1.
         14    1    5    5    0    0 -0.68402962664E+02  0.63204564119E+02  0.93729220022E+03  0.94190787810E+03  0.00000000000E+00 0. -1.
         11    1    3    3    0    0 -0.18173324555E+02 -0.22170746935E+02 -0.10285675050E+03  0.10677697724E+03  0.00000000000E+00 0. -1.
        -12    1    3    3    0    0 -0.52317794026E+01  0.47913182706E+02 -0.43839556390E+02  0.65153290763E+02  0.00000000000E+00 0.  1.
          5    1    4    4  501    0  0.11475634792E+03 -0.74400639360E+02  0.30432644061E+03  0.33367128942E+03  0.41800000000E+01 0. -1.
         -5    1    4    4    0  501 -0.28372035826E+02  0.25555473108E+01  0.10413016338E+03  0.10803733875E+03  0.41800000000E+01 0. -1.
</event>
<event>
11    1  0.8328696E-009  0.1477514E+03  0.7561462E-02  0.1099199E+00
         22   -1    0    0    0    0  0.00000000000E+00  0.00000000000E+00  0.61975404441E+03  0.61975404441E+03  0.00000000000E+00 0.  1.
         22   -1    0    0    0    0 -0.00000000000E+00 -0.00000000000E+00 -0.64151656629E+03  0.64151656629E+03  0.00000000000E+00 0.  1.
        -24    2    1    2    0    0 -0.80261840532E+02 -0.35945261160E+01 -0.54901892669E+03  0.56064482380E+03  0.80286692094E+02 0.  0.
         25    2    1    2    0    0  0.61558707738E+02 -0.59214414958E+01 -0.25441451662E+02  0.14185414334E+03  0.12510312767E+03 0.  0.
         24    2    1    2    0    0  0.18703132794E+02  0.95159676118E+01  0.55269785648E+03  0.55877164355E+03  0.79438455844E+02 0.  0.
        -13    1    5    5    0    0  0.21537684394E+02 -0.28994563540E+02  0.38475851391E+03  0.38645008809E+03  0.00000000000E+00 0.  1.
         14    1    5    5    0    0 -0.28345516005E+01  0.38510531152E+02  0.16793934257E+03  0.17232155546E+03  0.00000000000E+00 0. -1.
         11    1    3    3    0    0 -0.56421152327E+02 -0.96195742811E+01 -0.14513462256E+03  0.15601263188E+03  0.00000000000E+00 0. -1.
        -12    1    3    3    0    0 -0.23840688205E+02  0.60250481651E+01 -0.40388430413E+03  0.40463219193E+03  0.00000000000E+00 0.  1.
          5    1    4    4  501    0 -0.24147529095E+02 -0.73768155046E+01 -0.46867085070E+02  0.53399593925E+02  0.41800000000E+01 0.  1.
         -5    1    4    4    0  501  0.85706236834E+02  0.14553740089E+01  0.21425633408E+02  0.88454549417E+02  0.41800000000E+01 0.  1.
</event>
<event>
11    1  0.8328696E-009  0.1795126E+03  0.7561462E-02  0.1070038E+00
         22   -1    0    0    0    0  0.00000000000E+00  0.00000000000E+00  0.23605742486E+04  0.23605742486E+04  0.00000000000E+00 0. -1.
         22   -1    0    0    0    0 -0.00000000000E+00 -0.00000000000E+00 -0.97322590771E+03  0.97322590771E+03  0.00000000000E+00 0.  1.
         24    2    1    2    0    0 -0.61507166679E+02 -0.11496307677E+03 -0.94564989574E+03  0.95814466709E+03  0.82388331703E+02 0.  0.
         25    2    1    2    0    0 -0.30035316867E+02  0.76049302863E+02  0.27048185843E+03  0.30901989535E+03  0.12508894139E+03 0.  0.
        -24    2    1    2    0    0  0.91542483546E+02  0.38913773904E+02  0.20625163782E+04  0.20666355939E+04  0.84347847584E+02 0.  0.
        -11    1    3    3    0    0 -0.83133938995E+01 -0.63012703640E+02 -0.65718605664E+03  0.66025239597E+03  0.00000000000E+00 0.  1.
         12    1    3    3    0    0 -0.53193772780E+02 -0.51950373127E+02 -0.28846383909E+03  0.29789227112E+03  0.00000000000E+00 0. -1.
         13    1    5    5    0    0  0.81894398483E+02  0.31285315307E+01  0.17518943349E+04  0.17538102066E+04  0.00000000000E+00 0. -1.
        -14    1    5    5    0    0  0.96480850636E+01  0.35785242374E+02  0.31062204336E+03  0.31282538730E+03  0.00000000000E+00 0.  1.
          5    1    4    4  501    0  0.78832159922E+01  0.19020593596E+02 -0.77953229950E+01  0.22409094933E+02  0.41800000000E+01 0. -1.
         -5    1    4    4    0  501 -0.37918532859E+02  0.57028709267E+02  0.27827718143E+03  0.28661080042E+03  0.41800000000E+01 0. -1.
</event>
<event>
11    1  0.8328696E-009  0.1295870E+03  0.7561462E-02  0.1119777E+00
         22   -1    0    0    0    0  0.00000000000E+00  0.00000000000E+00  0.13193203554E+04  0.13193203554E+04  0.00000000000E+00 0. -1.
         22   -1    0    0    0    0 -0.00000000000E+00 -0.00000000000E+00 -0.49127088759E+03  0.49127088759E+03  0.00000000000E+00 0.  1.
         24    2    1    2    0    0  0.33486846559E+02  0.27186835583E-01 -0.46934679524E+03  0.47763676033E+03  0.82031036720E+02 0.  0.
         25    2    1    2    0    0 -0.58304103841E+02  0.14834545406E+02  0.28461890657E+03  0.31666389184E+03  0.12509462880E+03 0.  0.
        -24    2    1    2    0    0  0.24817257282E+02 -0.14861732242E+02  0.10127773565E+04  0.10162905909E+04  0.79321017603E+02 0.  0.
        -11    1    3    3    0    0  0.34364490611E+02  0.12591363125E+01 -0.47270473280E+03  0.47395386701E+03  0.00000000000E+00 0.  1.
         12    1    3    3    0    0 -0.87764405117E+00 -0.12319494769E+01  0.33579375588E+01  0.36828933249E+01  0.00000000000E+00 0. -1.
         13    1    5    5    0    0 -0.55019962293E+01  0.44967410006E+01  0.82874606438E+03  0.82877652709E+03  0.00000000000E+00 0. -1.
        -14    1    5    5    0    0  0.30319253511E+02 -0.19358473242E+02  0.18403129215E+03  0.18751406377E+03  0.00000000000E+00 0.  1.
          5    1    4    4  501    0 -0.55706372170E+02  0.66325783114E+02  0.16695322139E+03  0.18813069909E+03  0.41800000000E+01 0. -1.
         -5    1    4    4    0  501 -0.25977316710E+01 -0.51491237708E+02  0.11766568518E+03  0.12853319275E+03  0.41800000000E+01 0. -1.
</event>
<event>
11    1  0.8980364E-009  0.1798327E+03  0.7561462E-02  0.1069778E+00
         22   -1    0    0    0    0  0.00000000000E+00  0.00000000000E+00  0.31748993842E+03  0.31748993842E+03  0.00000000000E+00 0.  1.
         22   -1    0    0    0    0 -0.00000000000E+00 -0.00000000000E+00 -0.78652923949E+03  0.78652923949E+03  0.00000000000E+00 0.  1.
         24    2    1    2    0    0 -0.66683169135E+02  0.99448784415E+02 -0.52127819954E+03  0.54091996409E+03  0.80788244590E+02 0.  0.
         25    2    1    2    0    0  0.16110773816E+03 -0.10810639295E+03 -0.18451820760E+03  0.29552915829E+03  0.12509124259E+03 0.  0.
        -24    2    1    2    0    0 -0.94424569021E+02  0.86576085362E+01  0.23675710608E+03  0.26757005553E+03  0.80924989470E+02 0.  0.
        -11    1    3    3    0    0 -0.32085954303E+02  0.71650316434E+02 -0.45113708522E+03  0.45791696405E+03  0.00000000000E+00 0.  1.
         12    1    3    3    0    0 -0.34597214832E+02  0.27798467982E+02 -0.70141114324E+02  0.83003000035E+02  0.00000000000E+00 0. -1.
         11    1    5    5    0    0 -0.22839210443E+02  0.26663342202E+01  0.32008416505E+01  0.23216034526E+02  0.00000000000E+00 0. -1.
        -12    1    5    5    0    0 -0.71585358578E+02  0.59912743161E+01  0.23355626443E+03  0.24435402101E+03  0.00000000000E+00 0.  1.
          5    1    4    4  501    0 -0.21913067612E+01  0.79057380814E+01  0.11837530317E+02  0.14996734442E+02  0.41800000000E+01 0. -1.
         -5    1    4    4    0  501  0.16329904492E+03 -0.11601213103E+03 -0.19635573792E+03  0.28053242385E+03  0.41800000000E+01 0. -1.
</event>
<event>
11    1  0.8328696E-009  0.1405673E+03  0.7561462E-02  0.1106927E+00
         22   -1    0    0    0    0  0.00000000000E+00  0.00000000000E+00  0.26711469630E+03  0.26711469630E+03  0.00000000000E+00 0. -1.
         22   -1    0    0    0    0 -0.00000000000E+00 -0.00000000000E+00 -0.25357299546E+03  0.25357299546E+03  0.00000000000E+00 0.  1.
         24    2    1    2    0    0 -0.30652038597E+02 -0.42562840854E+02 -0.13777045626E+03  0.16925690370E+03  0.83162839888E+02 0.  0.
         25    2    1    2    0    0  0.20898609345E+02  0.10042513960E+03 -0.96759756370E+01  0.16205664743E+03  0.12508705743E+03 0.  0.
        -24    2    1    2    0    0  0.97534292522E+01 -0.57862298743E+02  0.16098813274E+03  0.18937414063E+03  0.80636289956E+02 0.  0.
        -13    1    3    3    0    0 -0.27565483995E+02  0.15426936861E+02 -0.85412816892E+02  0.91066984018E+02  0.00000000000E+00 0.  1.
         14    1    3    3    0    0 -0.30865546026E+01 -0.57989777715E+02 -0.52357639372E+02  0.78189919679E+02  0.00000000000E+00 0. -1.
         13    1    5    5    0    0  0.34790466282E+01 -0.18520936740E+02  0.14536545118E+03  0.14658186538E+03  0.00000000000E+00 0. -1.
        -14    1    5    5    0    0  0.62743826240E+01 -0.39341362003E+02  0.15622681564E+02  0.42792275247E+02  0.00000000000E+00 0.  1.
          5    1    4    4  501    0  0.28371659737E+02  0.50047789698E+02  0.54951930320E+02  0.79667555352E+02  0.41800000000E+01 0.  1.
         -5    1    4    4    0  501 -0.74730503924E+01  0.50377349899E+02 -0.64627905957E+02  0.82389092078E+02  0.41800000000E+01 0.  1.
</event>
<event>
11    1  0.8328696E-009  0.2468246E+03  0.7561462E-02  0.1025604E+00
         22   -1    0    0    0    0  0.00000000000E+00  0.00000000000E+00  0.19342617678E+03  0.19342617678E+03  0.00000000000E+00 0. -1.
         22   -1    0    0    0    0 -0.00000000000E+00 -0.00000000000E+00 -0.13621019208E+04  0.13621019208E+04  0.00000000000E+00 0.  1.
        -24    2    1    2    0    0  0.34165687027E+02 -0.20189275008E+02 -0.97726264306E+03  0.98152008755E+03  0.82246627591E+02 0.  0.
         25    2    1    2    0    0 -0.61951483924E+01 -0.19661001439E+03 -0.24236697636E+03  0.33627740586E+03  0.12508742878E+03 0.  0.
         24    2    1    2    0    0 -0.27970538634E+02  0.21679928940E+03  0.50953875367E+02  0.23773060420E+03  0.78327899530E+02 0.  0.
        -13    1    5    5    0    0 -0.26966922350E+02  0.30566073362E+02  0.29386464519E+02  0.50250015311E+02  0.00000000000E+00 0.  1.
         14    1    5    5    0    0 -0.10036162846E+01  0.18623321603E+03  0.21567410848E+02  0.18748058889E+03  0.00000000000E+00 0. -1.
         11    1    3    3    0    0 -0.69877983907E+01 -0.33081720825E+01 -0.74479319479E+03  0.74483332118E+03  0.00000000000E+00 0. -1.
        -12    1    3    3    0    0  0.41153485417E+02 -0.16881102926E+02 -0.23246944827E+03  0.23668676638E+03  0.00000000000E+00 0.  1.
          5    1    4    4  501    0 -0.48564355151E+02 -0.18136539220E+03 -0.19892412854E+03  0.27356933928E+03  0.41800000000E+01 0. -1.
         -5    1    4    4    0  501  0.42369206759E+02 -0.15244622184E+02 -0.43442847821E+02  0.62708066576E+02  0.41800000000E+01 0. -1.
</event>
<event>
11    1  0.8328696E-009  0.1363609E+03  0.7561462E-02  0.1111692E+00
         22   -1    0    0    0    0  0.00000000000E+00  0.00000000000E+00  0.20181451275E+03  0.20181451275E+03  0.00000000000E+00 0.  1.
         22   -1    0    0    0    0 -0.00000000000E+00 -0.00000000000E+00 -0.95451908686E+03  0.95451908686E+03  0.00000000000E+00 0. -1.
        -24    2    1    2    0    0 -0.45680972466E+02  0.12551819127E+02 -0.86861142124E+03  0.87440441885E+03  0.88617081771E+02 0.  0.
         25    2    1    2    0    0 -0.18572800031E+02 -0.20195766785E+02  0.21516818204E+01  0.12808250974E+03  0.12509069378E+03 0.  0.
         24    2    1    2    0    0  0.64253772497E+02  0.76439476577E+01  0.11375516532E+03  0.15384667102E+03  0.80880055207E+02 0.  0.
        -11    1    5    5    0    0  0.72184386379E+02  0.23318606245E+02  0.11320574903E+03  0.13627136400E+03  0.00000000000E+00 0.  1.
         12    1    5    5    0    0 -0.79306138826E+01 -0.15674658587E+02  0.54941629152E+00  0.17575307014E+02  0.00000000000E+00 0. -1.
         13    1    3    3    0    0 -0.16442263748E+02  0.14942034490E+02 -0.79285438152E+03  0.79316560864E+03  0.00000000000E+00 0. -1.
        -14    1    3    3    0    0 -0.29238708718E+02 -0.23902153628E+01 -0.75757039728E+02  0.81238810216E+02  0.00000000000E+00 0.  1.
          5    1    4    4  501    0  0.14618892911E+02 -0.26204725207E+01 -0.56357150244E+02  0.58430982276E+02  0.41800000000E+01 0.  1.
         -5    1    4    4    0  501 -0.33191692942E+02 -0.17575294264E+02  0.58508832064E+02  0.69651527466E+02  0.41800000000E+01 0.  1.
</event>
<event>
11    1  0.8328696E-009  0.2485284E+03  0.7561462E-02  0.1024686E+00
         22   -1    0    0    0    0  0.00000000000E+00  0.00000000000E+00  0.35791257952E+03  0.35791257952E+03  0.00000000000E+00 0. -1.
         22   -1    0    0    0    0 -0.00000000000E+00 -0.00000000000E+00 -0.21895759657E+04  0.21895759657E+04  0.00000000000E+00 0. -1.
         24    2    1    2    0    0 -0.14505456964E+03  0.43485647587E+02 -0.19063262813E+04  0.19140141214E+04  0.80239244184E+02 0.  0.
         25    2    1    2    0    0  0.32176431227E+03 -0.10792000772E+03 -0.88020337203E+02  0.37225534941E+03  0.12508982648E+03 0.  0.
        -24    2    1    2    0    0 -0.17670974263E+03  0.64434360131E+02  0.16268323237E+03  0.26121907440E+03  0.79946549821E+02 0.  0.
        -13    1    3    3    0    0 -0.31575677327E+02  0.48364857686E+02 -0.66071910446E+03  0.66323895985E+03  0.00000000000E+00 0.  1.
         14    1    3    3    0    0 -0.11347889231E+03 -0.48792100993E+01 -0.12456071769E+04  0.12507751615E+04  0.00000000000E+00 0. -1.
         13    1    5    5    0    0 -0.44990229643E+02 -0.11809967596E+02  0.66590125091E+02  0.81227094356E+02  0.00000000000E+00 0. -1.
        -14    1    5    5    0    0 -0.13171951299E+03  0.76244327727E+02  0.96093107278E+02  0.17999198004E+03  0.00000000000E+00 0.  1.
          5    1    4    4  501    0  0.50193434193E+02  0.27594984502E+02 -0.22816684404E+02  0.61797552484E+02  0.41800000000E+01 0.  1.
         -5    1    4    4    0  501  0.27157087808E+03 -0.13551499222E+03 -0.65203652798E+02  0.31045779693E+03  0.41800000000E+01 0.  1.
</event>
<event>
11    1  0.8328696E-009  0.3929388E+03  0.7561462E-02  0.9670825E-01
         22   -1    0    0    0    0  0.00000000000E+00  0.00000000000E+00  0.76278544601E+03  0.76278544601E+03  0.00000000000E+00 0.  1.
         22   -1    0    0    0    0 -0.00000000000E+00 -0.00000000000E+00 -0.65650786880E+03  0.65650786880E+03  0.00000000000E+00 0.  1.
         24    2    1    2    0    0 -0.25601667623E+03 -0.29740031786E+03 -0.46991242139E+03  0.61679767349E+03  0.75034649743E+02 0.  0.
         25    2    1    2    0    0  0.63364494778E+02  0.30561745167E+03  0.26570201034E+03  0.42855861742E+03  0.12509134381E+03 0.  0.
        -24    2    1    2    0    0  0.19265218146E+03 -0.82171338048E+01  0.31048798826E+03  0.37393702391E+03  0.79017230345E+02 0.  0.
        -11    1    3    3    0    0 -0.12328723460E+03 -0.19279552110E+03 -0.29799862106E+03  0.37573000056E+03  0.00000000000E+00 0.  1.
         12    1    3    3    0    0 -0.13272944163E+03 -0.10460479677E+03 -0.17191380034E+03  0.24106767293E+03  0.00000000000E+00 0. -1.
         11    1    5    5    0    0  0.65044043033E+01 -0.19326829564E+02  0.46022158891E+02  0.50337587599E+02  0.00000000000E+00 0. -1.
        -12    1    5    5    0    0  0.18614777715E+03  0.11109695759E+02  0.26446582936E+03  0.32359943631E+03  0.00000000000E+00 0.  1.
          5    1    4    4  501    0  0.70103385282E+02  0.28348250246E+03  0.18788740312E+03  0.34726929389E+03  0.41800000000E+01 0.  1.
         -5    1    4    4    0  501 -0.67388905047E+01  0.22134949209E+02  0.77814607220E+02  0.81289323522E+02  0.41800000000E+01 0.  1.
</event>
<event>
11    1  0.8328696E-009  0.1372352E+03  0.7561462E-02  0.1110686E+00
         22   -1    0    0    0    0  0.00000000000E+00  0.00000000000E+00  0.16651994272E+04  0.16651994272E+04  0.00000000000E+00 0.  1.
         22   -1    0    0    0    0 -0.00000000000E+00 -0.00000000000E+00 -0.51516424048E+02  0.51516424048E+02  0.00000000000E+00 0.  1.
        -24    2    1    2    0    0 -0.38148364287E+02  0.11905413700E+01  0.95018354920E+01  0.87322098926E+02  0.77962484546E+02 0.  0.
         25    2    1    2    0    0  0.76664474783E+02  0.33277994341E+02  0.52932545083E+03  0.55028017980E+03  0.12505189633E+03 0.  0.
         24    2    1    2    0    0 -0.38516110496E+02 -0.34468535710E+02  0.10748557168E+04  0.10791135725E+04  0.80620839075E+02 0.  0.
        -13    1    5    5    0    0  0.18489241606E+02 -0.21275010554E+02  0.60074302957E+03  0.60140391228E+03  0.00000000000E+00 0.  1.
         14    1    5    5    0    0 -0.57005352101E+02 -0.13193525156E+02  0.47411268725E+03  0.47770966024E+03  0.00000000000E+00 0. -1.
         13    1    3    3    0    0 -0.36951211363E+01  0.21291016776E+02  0.34164834708E+02  0.40425205580E+02  0.00000000000E+00 0. -1.
        -14    1    3    3    0    0 -0.34453243151E+02 -0.20100475406E+02 -0.24662999216E+02  0.46896893346E+02  0.00000000000E+00 0.  1.
          5    1    4    4  501    0  0.11070391093E+03  0.33277707685E+02  0.42514008430E+03  0.44059542145E+03  0.41800000000E+01 0.  1.
         -5    1    4    4    0  501 -0.34039436150E+02  0.28665502130E-03  0.10418536653E+03  0.10968475834E+03  0.41800000000E+01 0.  1.
</event>
<event>
11    1  0.8328696E-009  0.1620465E+03  0.7561462E-02  0.1085168E+00
         22   -1    0    0    0    0  0.00000000000E+00  0.00000000000E+00  0.29307176622E+03  0.29307176622E+03  0.00000000000E+00 0. -1.
         22   -1    0    0    0    0 -0.00000000000E+00 -0.00000000000E+00 -0.21648001448E+03  0.21648001448E+03  0.00000000000E+00 0. -1.
        -24    2    1    2    0    0  0.34160628181E+02 -0.47746661896E+02 -0.91577344225E+02  0.13466516390E+03  0.79382643902E+02 0.  0.
         25    2    1    2    0    0 -0.43376844053E+02  0.13834261586E+03  0.35650663876E+02  0.19477770355E+03  0.12508858462E+03 0.  0.
         24    2    1    2    0    0  0.92162158723E+01 -0.90595953968E+02  0.13251843209E+03  0.18010891325E+03  0.81151218595E+02 0.  0.
        -13    1    5    5    0    0  0.33907235786E+02 -0.10570128366E+02  0.23299632559E+02  0.42477065926E+02  0.00000000000E+00 0.  1.
         14    1    5    5    0    0 -0.24691019914E+02 -0.80025825602E+02  0.10921879953E+03  0.13763184733E+03  0.00000000000E+00 0. -1.
         11    1    3    3    0    0 -0.98070678245E+01 -0.55688767032E+01 -0.68644754631E+02  0.69565029328E+02  0.00000000000E+00 0. -1.
        -12    1    3    3    0    0  0.43967696005E+02 -0.42177785193E+02 -0.22932589594E+02  0.65100134572E+02  0.00000000000E+00 0.  1.
          5    1    4    4  501    0 -0.36435550759E+02  0.24853297467E+02  0.63701715080E+02  0.77592632758E+02  0.41800000000E+01 0.  1.
         -5    1    4    4    0  501 -0.69412932941E+01  0.11348931840E+03 -0.28051051204E+02  0.11718507079E+03  0.41800000000E+01 0.  1.
</event>
<event>
11    1  0.8328696E-009  0.1714872E+03  0.7561462E-02  0.1076745E+00
         22   -1    0    0    0    0  0.00000000000E+00  0.00000000000E+00  0.10100260690E+04  0.10100260690E+04  0.00000000000E+00 0. -1.
         22   -1    0    0    0    0 -0.00000000000E+00 -0.00000000000E+00 -0.24848668666E+03  0.24848668666E+03  0.00000000000E+00 0.  1.
         24    2    1    2    0    0 -0.75906004578E+00  0.76771128153E+02 -0.78814650173E+02  0.13596898911E+03  0.79883882154E+02 0.  0.
         25    2    1    2    0    0 -0.88840364249E+02 -0.14947669490E+03 -0.50853992179E+02  0.22015835497E+03  0.12509068753E+03 0.  0.
        -24    2    1    2    0    0  0.89599424295E+02  0.72705566742E+02  0.89120802465E+03  0.90238541154E+03  0.82058098265E+02 0.  0.
        -11    1    3    3    0    0 -0.96948194207E+01  0.20153089588E+02 -0.75290750277E+02  0.78541922697E+02  0.00000000000E+00 0.  1.
         12    1    3    3    0    0  0.89357593749E+01  0.56618038565E+02 -0.35238998958E+01  0.57427066415E+02  0.00000000000E+00 0. -1.
         11    1    5    5    0    0  0.10155458836E+03  0.46740437592E+02  0.65761013120E+03  0.66704504164E+03  0.00000000000E+00 0. -1.
        -12    1    5    5    0    0 -0.11955164062E+02  0.25965129150E+02  0.23359789345E+03  0.23534036990E+03  0.00000000000E+00 0.  1.
          5    1    4    4  501    0 -0.24559336935E+02 -0.32728218824E+02 -0.74153964446E+02  0.84797288761E+02  0.41800000000E+01 0. -1.
         -5    1    4    4    0  501 -0.64281027313E+02 -0.11674847607E+03  0.23299972267E+02  0.13536106621E+03  0.41800000000E+01 0. -1.
</event>
<event>
11    1  0.8937549E-009  0.1856238E+03  0.7561462E-02  0.1065182E+00
         22   -1    0    0    0    0  0.00000000000E+00  0.00000000000E+00  0.11976698258E+04  0.11976698258E+04  0.00000000000E+00 0. -1.
         22   -1    0    0    0    0 -0.00000000000E+00 -0.00000000000E+00 -0.38165564910E+03  0.38165564910E+03  0.00000000000E+00 0.  1.
         24    2    1    2    0    0  0.80962491547E+02  0.16919608540E+02 -0.27719850393E+03  0.30021246007E+03  0.80295158058E+02 0.  0.
         25    2    1    2    0    0 -0.10043318224E+03  0.11905841329E+03  0.26270965105E+02  0.20149343253E+03  0.12509080651E+03 0.  0.
        -24    2    1    2    0    0  0.19470690696E+02 -0.13597802183E+03  0.10669417156E+04  0.10776195823E+04  0.63483932038E+02 0.  0.
        -13    1    3    3    0    0  0.24326378262E+02  0.29338530079E+02 -0.20035806563E+03  0.20395067171E+03  0.00000000000E+00 0.  1.
         14    1    3    3    0    0  0.56636113284E+02 -0.12418921538E+02 -0.76840438300E+02  0.96261788360E+02  0.00000000000E+00 0. -1.
         11    1    5    5    0    0  0.14475532903E+02 -0.13860899129E+03  0.10573109222E+04  0.10664559905E+04  0.00000000000E+00 0. -1.
        -12    1    5    5    0    0  0.49951577925E+01  0.26309694564E+01  0.96307933932E+01  0.11163591852E+02  0.00000000000E+00 0.  1.
          5    1    4    4  501    0  0.10741284101E+02 -0.18698673356E+02 -0.24726586218E+01  0.22104343692E+02  0.41800000000E+01 0. -1.
         -5    1    4    4    0  501 -0.11117446634E+03  0.13775708665E+03  0.28743623727E+02  0.17938908883E+03  0.41800000000E+01 0. -1.
</event>
<event>
11    1  0.8328696E-009  0.2250343E+03  0.7561462E-02  0.1038109E+00
         22   -1    0    0    0    0  0.00000000000E+00  0.00000000000E+00  0.80651013870E+02  0.80651013870E+02  0.00000000000E+00 0. -1.
         22   -1    0    0    0    0 -0.00000000000E+00 -0.00000000000E+00 -0.24645711618E+04  0.24645711618E+04  0.00000000000E+00 0. -1.
        -24    2    1    2    0    0  0.19138083533E+02  0.18802715359E+03 -0.21095066339E+04  0.21195401025E+04  0.81923933002E+02 0.  0.
         25    2    1    2    0    0 -0.20921678967E+02 -0.17148013408E+03 -0.26873313744E+03  0.34308664308E+03  0.12509113662E+03 0.  0.
         24    2    1    2    0    0  0.17835954337E+01 -0.16547019508E+02 -0.56803766240E+01  0.82595430158E+02  0.80701631564E+02 0.  0.
        -13    1    5    5    0    0 -0.31502265437E+02  0.69507949398E+01 -0.21630391427E+02  0.38840444272E+02  0.00000000000E+00 0.  1.
         14    1    5    5    0    0  0.33285860871E+02 -0.23497814448E+02  0.15950014803E+02  0.43754985887E+02  0.00000000000E+00 0. -1.
         11    1    3    3    0    0  0.40111409136E+02  0.15781457075E+03 -0.18871863891E+04  0.18941982027E+04  0.00000000000E+00 0. -1.
        -12    1    3    3    0    0 -0.20973325603E+02  0.30212582841E+02 -0.22232024483E+03  0.22534189981E+03  0.00000000000E+00 0.  1.
          5    1    4    4  501    0  0.49646885535E+02 -0.98080337408E+02 -0.12003799694E+03  0.16282247676E+03  0.41800000000E+01 0.  1.
         -5    1    4    4    0  501 -0.70568564502E+02 -0.73399796672E+02 -0.14869514050E+03  0.18026416631E+03  0.41800000000E+01 0.  1.
</event>
<event>
11    1  0.8328696E-009  0.1301141E+03  0.7561462E-02  0.1119129E+00
         22   -1    0    0    0    0  0.00000000000E+00  0.00000000000E+00  0.42190456286E+03  0.42190456286E+03  0.00000000000E+00 0.  1.
         22   -1    0    0    0    0 -0.00000000000E+00 -0.00000000000E+00 -0.17369472453E+04  0.17369472453E+04  0.00000000000E+00 0. -1.
         24    2    1    2    0    0 -0.41081441416E+01  0.35676427693E+02 -0.16580949256E+04  0.16604014561E+04  0.79777997480E+02 0.  0.
         25    2    1    2    0    0  0.17795112887E+02 -0.29436810860E+02 -0.15953977702E+02  0.13070650104E+03  0.12508584305E+03 0.  0.
        -24    2    1    2    0    0 -0.13686968746E+02 -0.62396168334E+01  0.35900622083E+03  0.36774385103E+03  0.78254759888E+02 0.  0.
        -13    1    3    3    0    0 -0.12930144395E+02  0.28520014906E+02 -0.21563877926E+03  0.21790058055E+03  0.00000000000E+00 0.  1.
         14    1    3    3    0    0  0.88220002529E+01  0.71564127868E+01 -0.14424561464E+04  0.14425008756E+04  0.00000000000E+00 0. -1.
         11    1    5    5    0    0 -0.21381991447E+01  0.35592480452E+02  0.13917252555E+03  0.14366763180E+03  0.00000000000E+00 0. -1.
        -12    1    5    5    0    0 -0.11548769601E+02 -0.41832097286E+02  0.21983369528E+03  0.22407621923E+03  0.00000000000E+00 0.  1.
          5    1    4    4  501    0  0.65335570411E+02 -0.44045393537E+02 -0.17292166399E+02  0.80778864015E+02  0.41800000000E+01 0. -1.
         -5    1    4    4    0  501 -0.47540457524E+02  0.14608582678E+02  0.13381886965E+01  0.49927637020E+02  0.41800000000E+01 0. -1.
</event>
<event>
11    1  0.8328696E-009  0.1339803E+03  0.7561462E-02  0.1114473E+00
         22   -1    0    0    0    0  0.00000000000E+00  0.00000000000E+00  0.14855564805E+03  0.14855564805E+03  0.00000000000E+00 0.  1.
         22   -1    0    0    0    0 -0.00000000000E+00 -0.00000000000E+00 -0.43410331808E+03  0.43410331808E+03  0.00000000000E+00 0. -1.
        -24    2    1    2    0    0 -0.54350543343E+02  0.44653764185E+02 -0.19626474216E+03  0.22637718301E+03  0.88197731022E+02 0.  0.
         25    2    1    2    0    0  0.25126405606E+02  0.52637324790E+01 -0.18111655178E+03  0.22161329684E+03  0.12510077885E+03 0.  0.
         24    2    1    2    0    0  0.29224137737E+02 -0.49917496664E+02  0.91833623913E+02  0.13466848627E+03  0.79726908971E+02 0.  0.
        -13    1    5    5    0    0 -0.19804106410E+02 -0.45000434501E+02  0.43515665324E+02  0.65657100641E+02  0.00000000000E+00 0.  1.
         14    1    5    5    0    0  0.49028244147E+02 -0.49170621627E+01  0.48317958589E+02  0.69011385631E+02  0.00000000000E+00 0. -1.
         13    1    3    3    0    0 -0.39387698526E+01  0.59831249942E+02 -0.11129410886E+03  0.12641863409E+03  0.00000000000E+00 0. -1.
        -14    1    3    3    0    0 -0.50411773490E+02 -0.15177485758E+02 -0.84970633298E+02  0.99958548926E+02  0.00000000000E+00 0.  1.
          5    1    4    4  501    0  0.49495637883E+02  0.43684990917E+02 -0.50458082205E+02  0.83196676981E+02  0.41800000000E+01 0. -1.
         -5    1    4    4    0  501 -0.24369232277E+02 -0.38421258438E+02 -0.13065846958E+03  0.13841661986E+03  0.41800000000E+01 0. -1.
</event>
<event>
11    1  0.8328696E-009  0.2246352E+03  0.7561462E-02  0.1038352E+00
         22   -1    0    0    0    0  0.00000000000E+00  0.00000000000E+00  0.55815761218E+03  0.55815761218E+03  0.00000000000E+00 0.  1.
         22   -1    0    0    0    0 -0.00000000000E+00 -0.00000000000E+00 -0.43178613055E+03  0.43178613055E+03  0.00000000000E+00 0.  1.
        -24    2    1    2    0    0  0.50707220075E+02 -0.17137403008E+03 -0.29539562647E+03  0.35519136051E+03  0.83438876365E+02 0.  0.
         25    2    1    2    0    0 -0.51243685542E+02  0.22752749954E+03  0.76120154580E+02  0.27538513614E+03  0.12509203379E+03 0.  0.
         24    2    1    2    0    0  0.53646546708E+00 -0.56153469460E+02  0.34564695352E+03  0.35936724607E+03  0.80743427893E+02 0.  0.
        -11    1    5    5    0    0 -0.22687050489E+02 -0.53322261161E+02  0.31760174938E+03  0.32284491169E+03  0.00000000000E+00 0.  1.
         12    1    5    5    0    0  0.23223515956E+02 -0.28312082992E+01  0.28045204140E+02  0.36522334386E+02  0.00000000000E+00 0. -1.
         13    1    3    3    0    0 -0.19872178394E+02 -0.62384935642E+02 -0.12330869106E+03  0.13961309738E+03  0.00000000000E+00 0. -1.
        -14    1    3    3    0    0  0.70579398469E+02 -0.10898909444E+03 -0.17208693540E+03  0.21557826313E+03  0.00000000000E+00 0.  1.
          5    1    4    4  501    0 -0.72744754636E+02  0.23122748063E+03  0.70220175114E+02  0.25240105491E+03  0.41800000000E+01 0. -1.
         -5    1    4    4    0  501  0.21501069094E+02 -0.36999810908E+01  0.58999794666E+01  0.22984081229E+02  0.41800000000E+01 0. -1.
</event>
<event>
11    1  0.8328696E-009  0.1719487E+03  0.7561462E-02  0.1076348E+00
         22   -1    0    0    0    0  0.00000000000E+00  0.00000000000E+00  0.71562842287E+03  0.71562842287E+03  0.00000000000E+00 0. -1.
         22   -1    0    0    0    0 -0.00000000000E+00 -0.00000000000E+00 -0.19701048459E+03  0.19701048459E+03  0.00000000000E+00 0. -1.
        -24    2    1    2    0    0 -0.18356379210E+02 -0.29220921308E+02 -0.11651131738E+03  0.14644176179E+03  0.81728107880E+02 0.  0.
         25    2    1    2    0    0  0.82957541689E+02  0.12338161287E+03  0.10346045987E+03  0.22012793882E+03  0.12508903458E+03 0.  0.
         24    2    1    2    0    0 -0.64601162478E+02 -0.94160691566E+02  0.53166879579E+03  0.54606920686E+03  0.49802853688E+02 0.  0.
        -13    1    5    5    0    0  0.78433982226E+01 -0.36655669544E+01  0.36551344184E+02  0.37562694771E+02  0.00000000000E+00 0.  1.
         14    1    5    5    0    0 -0.72444560701E+02 -0.90495124612E+02  0.49511745161E+03  0.50850651209E+03  0.00000000000E+00 0. -1.
         11    1    3    3    0    0  0.29277954435E+00 -0.43568180590E+02 -0.11486997920E+03  0.12285513502E+03  0.00000000000E+00 0. -1.
        -12    1    3    3    0    0 -0.18649158755E+02  0.14347259282E+02 -0.16413381819E+01  0.23586626766E+02  0.00000000000E+00 0.  1.
          5    1    4    4  501    0  0.97950101533E+02  0.36709028307E+02  0.69962991356E+02  0.12591293702E+03  0.41800000000E+01 0. -1.
         -5    1    4    4    0  501 -0.14992559845E+02  0.86672584567E+02  0.33497468518E+02  0.94215001796E+02  0.41800000000E+01 0. -1.
</event>
<event>
11    1  0.8328696E-009  0.1527491E+03  0.7561462E-02  0.1094102E+00
         22   -1    0    0    0    0  0.00000000000E+00  0.00000000000E+00  0.69264397484E+03  0.69264397484E+03  0.00000000000E+00 0.  1.
         22   -1    0    0    0    0 -0.00000000000E+00 -0.00000000000E+00 -0.16535645627E+03  0.16535645627E+03  0.00000000000E+00 0. -1.
         24    2    1    2    0    0  0.71948154751E+02 -0.50773369463E+02 -0.11230410027E+03  0.16353554306E+03  0.79857315810E+02 0.  0.
         25    2    1    2    0    0 -0.89502003253E+02  0.16676984679E+02  0.24819736193E+03  0.29246966213E+03  0.12509133619E+03 0.  0.
        -24    2    1    2    0    0  0.17553848502E+02  0.34096384784E+02  0.39139425690E+03  0.40199522593E+03  0.83306640068E+02 0.  0.
        -11    1    3    3    0    0 -0.75113369846E+01 -0.30341543533E+02 -0.10913136809E+02  0.33107793678E+02  0.00000000000E+00 0.  1.
         12    1    3    3    0    0  0.79459491736E+02 -0.20431825930E+02 -0.10139096346E+03  0.13042774938E+03  0.00000000000E+00 0. -1.
         13    1    5    5    0    0  0.29898997593E+01  0.44700879996E+02  0.94785775876E+02  0.10484012343E+03  0.00000000000E+00 0. -1.
        -14    1    5    5    0    0  0.14563948742E+02 -0.10604495212E+02  0.29660848102E+03  0.29715510249E+03  0.00000000000E+00 0.  1.
          5    1    4    4  501    0 -0.47511773614E+01  0.35180398991E+02  0.17581898016E+03  0.17941577507E+03  0.41800000000E+01 0. -1.
         -5    1    4    4    0  501 -0.84750825891E+02 -0.18503414312E+02  0.72378381767E+02  0.11305388705E+03  0.41800000000E+01 0. -1.
</event>
<event>
11    1  0.8328696E-009  0.1294269E+03  0.7561462E-02  0.1119975E+00
         22   -1    0    0    0    0  0.00000000000E+00  0.00000000000E+00  0.40193454889E+03  0.40193454889E+03  0.00000000000E+00 0.  1.
         22   -1    0    0    0    0 -0.00000000000E+00 -0.00000000000E+00 -0.13032040762E+04  0.13032040762E+04  0.00000000000E+00 0. -1.
         24    2    1    2    0    0 -0.33187333955E+02  0.16951069363E+01 -0.12515612998E+04  0.12546045479E+04  0.80762689128E+02 0.  0.
         25    2    1    2    0    0  0.35868569957E+02  0.93998483835E+01  0.48592451615E+02  0.13921539312E+03  0.12507912642E+03 0.  0.
        -24    2    1    2    0    0 -0.26812360023E+01 -0.11094955320E+02  0.30169932087E+03  0.31131868407E+03  0.75937841511E+02 0.  0.
        -13    1    3    3    0    0 -0.10398051062E+02  0.25019046425E+02 -0.14185455772E+03  0.14441879274E+03  0.00000000000E+00 0.  1.
         14    1    3    3    0    0 -0.22789282893E+02 -0.23323939489E+02 -0.11097067420E+04  0.11101857551E+04  0.00000000000E+00 0. -1.
         11    1    5    5    0    0  0.14141145833E+02  0.19070687297E+02  0.34401824547E+02  0.41798907302E+02  0.00000000000E+00 0. -1.
        -12    1    5    5    0    0 -0.16822381835E+02 -0.30165642616E+02  0.26729749633E+03  0.26951977677E+03  0.00000000000E+00 0.  1.
          5    1    4    4  501    0 -0.15987864297E+02  0.55850258282E+02  0.87613982113E+01  0.58899046287E+02  0.41800000000E+01 0.  1.
         -5    1    4    4    0  501  0.51856434254E+02 -0.46450409898E+02  0.39831053404E+02  0.80316346833E+02  0.41800000000E+01 0.  1.
</event>
<event>
11    1  0.8328696E-009  0.1468694E+03  0.7561462E-02  0.1100121E+00
         22   -1    0    0    0    0  0.00000000000E+00  0.00000000000E+00  0.26982574683E+03  0.26982574683E+03  0.00000000000E+00 0.  1.
         22   -1    0    0    0    0 -0.00000000000E+00 -0.00000000000E+00 -0.39669019739E+03  0.39669019739E+03  0.00000000000E+00 0. -1.
        -24    2    1    2    0    0  0.63940040958E+02  0.34914627795E+02 -0.19110562480E+03  0.21995267008E+03  0.80934894658E+02 0.  0.
         25    2    1    2    0    0 -0.84556317062E+02 -0.22830493271E+02 -0.15196180152E+03  0.21543153466E+03  0.12508938735E+03 0.  0.
         24    2    1    2    0    0  0.20616276103E+02 -0.12084134524E+02  0.21620297577E+03  0.23113173947E+03  0.78147918172E+02 0.  0.
        -11    1    5    5    0    0  0.18728712317E+02 -0.20303386754E+02  0.22011071693E+03  0.22183714722E+03  0.00000000000E+00 0.  1.
         12    1    5    5    0    0  0.18875637864E+01  0.82192522296E+01 -0.39077411610E+01  0.92945922580E+01  0.00000000000E+00 0. -1.
         11    1    3    3    0    0  0.80673160795E+02  0.36972171442E+02 -0.17688276615E+03  0.19789546052E+03  0.00000000000E+00 0. -1.
        -12    1    3    3    0    0 -0.16733119837E+02 -0.20575436476E+01 -0.14222858651E+02  0.22057209559E+02  0.00000000000E+00 0.  1.
          5    1    4    4  501    0 -0.61264341430E+02 -0.45320618797E+02 -0.19177156076E+02  0.78692526546E+02  0.41800000000E+01 0. -1.
         -5    1    4    4    0  501 -0.23291975632E+02  0.22490125526E+02 -0.13278464544E+03  0.13673900811E+03  0.41800000000E+01 0. -1.
</event>
<event>
11    1  0.8328696E-009  0.1609557E+03  0.7561462E-02  0.1086182E+00
         22   -1    0    0    0    0  0.00000000000E+00  0.00000000000E+00  0.22258526797E+03  0.22258526797E+03  0.00000000000E+00 0.  1.
         22   -1    0    0    0    0 -0.00000000000E+00 -0.00000000000E+00 -0.57190578717E+03  0.57190578717E+03  0.00000000000E+00 0. -1.
         24    2    1    2    0    0 -0.52026761681E+02 -0.21990165813E+02 -0.19453689272E+03  0.21767496197E+03  0.79670792102E+02 0.  0.
         25    2    1    2    0    0  0.15861085992E+02  0.11641261661E+03 -0.32231088474E+03  0.36515183104E+03  0.12509229366E+03 0.  0.
        -24    2    1    2    0    0  0.36165675690E+02 -0.94422450795E+02  0.16752725827E+03  0.21166426214E+03  0.80702058775E+02 0.  0.
        -13    1    3    3    0    0 -0.55118626808E+02 -0.17751712629E+02 -0.61267666078E+02  0.84302510218E+02  0.00000000000E+00 0.  1.
         14    1    3    3    0    0  0.30918651268E+01 -0.42384531845E+01 -0.13326922665E+03  0.13337245175E+03  0.00000000000E+00 0. -1.
         13    1    5    5    0    0 -0.23017071218E+02 -0.50304664951E+02  0.65544209192E+02  0.85769389889E+02  0.00000000000E+00 0. -1.
        -14    1    5    5    0    0  0.59182746907E+02 -0.44117785844E+02  0.10198304908E+03  0.12589487225E+03  0.00000000000E+00 0.  1.
          5    1    4    4  501    0  0.68205986031E+02  0.82368562655E+02 -0.17549580177E+03  0.20555506679E+03  0.41800000000E+01 0.  1.
         -5    1    4    4    0  501 -0.52344900040E+02  0.34044053953E+02 -0.14681508298E+03  0.15959676425E+03  0.41800000000E+01 0.  1.
</event>
<event>
11    1  0.8328696E-009  0.1951315E+03  0.7561462E-02  0.1058021E+00
         22   -1    0    0    0    0  0.00000000000E+00  0.00000000000E+00  0.14352139274E+04  0.14352139274E+04  0.00000000000E+00 0. -1.
         22   -1    0    0    0    0 -0.00000000000E+00 -0.00000000000E+00 -0.48429421430E+03  0.48429421430E+03  0.00000000000E+00 0.  1.
         24    2    1    2    0    0 -0.13640688232E+03  0.25923784854E+02 -0.32202609837E+03  0.36029588646E+03  0.82664609134E+02 0.  0.
         25    2    1    2    0    0  0.22850523447E+03  0.35991069375E+02 -0.15394468738E+02  0.26342925921E+03  0.12509190895E+03 0.  0.
        -24    2    1    2    0    0 -0.92098352145E+02 -0.61914854229E+02  0.12883402802E+04  0.12957829960E+04  0.83170544988E+02 0.  0.
        -11    1    3    3    0    0 -0.43945480706E+02  0.32042062661E+02 -0.19886985524E+03  0.20617254516E+03  0.00000000000E+00 0.  1.
         12    1    3    3    0    0 -0.92461401618E+02 -0.61182778064E+01 -0.12315624313E+03  0.15412334130E+03  0.00000000000E+00 0. -1.
         13    1    5    5    0    0 -0.10245853023E+03 -0.41246367506E+02  0.11702662119E+04  0.11754667243E+04  0.00000000000E+00 0. -1.
        -14    1    5    5    0    0  0.10360178085E+02 -0.20668486723E+02  0.11807406826E+03  0.12031627167E+03  0.00000000000E+00 0.  1.
          5    1    4    4  501    0  0.35955552789E+02 -0.61892419702E+00  0.45500255098E+02  0.58145769043E+02  0.41800000000E+01 0.  1.
         -5    1    4    4    0  501  0.19254968168E+03  0.36609993572E+02 -0.60894723836E+02  0.20528349017E+03  0.41800000000E+01 0.  1.
</event>
<event>
11    1  0.8328696E-009  0.1473617E+03  0.7561462E-02  0.1099605E+00
         22   -1    0    0    0    0  0.00000000000E+00  0.00000000000E+00  0.89675648306E+03  0.89675648306E+03  0.00000000000E+00 0. -1.
         22   -1    0    0    0    0 -0.00000000000E+00 -0.00000000000E+00 -0.47051776461E+03  0.47051776461E+03  0.00000000000E+00 0. -1.
        -24    2    1    2    0    0 -0.72835858546E+02 -0.32434716611E+02 -0.42783489541E+03  0.44253423439E+03  0.80229531612E+02 0.  0.
         25    2    1    2    0    0  0.51728038605E+02 -0.13375145048E+02  0.11056329172E+03  0.17529109349E+03  0.12509213204E+03 0.  0.
         24    2    1    2    0    0  0.21107819941E+02  0.45809861659E+02  0.74351032214E+03  0.74944891979E+03  0.79511010247E+02 0.  0.
        -11    1    5    5    0    0  0.37973371689E+02 -0.47319577504E+01  0.40063601306E+03  0.40245941826E+03  0.00000000000E+00 0.  1.
         12    1    5    5    0    0 -0.16865551748E+02  0.50541819409E+02  0.34287430908E+03  0.34698950153E+03  0.00000000000E+00 0. -1.
         11    1    3    3    0    0 -0.50397827464E+02 -0.56689897995E+02 -0.23647871956E+03  0.24834627107E+03  0.00000000000E+00 0. -1.
        -12    1    3    3    0    0 -0.22438031082E+02  0.24255181385E+02 -0.19135617585E+03  0.19418796332E+03  0.00000000000E+00 0.  1.
          5    1    4    4  501    0  0.19228448704E+02  0.39176427772E+02 -0.50549975996E+01  0.44131067665E+02  0.41800000000E+01 0. -1.
         -5    1    4    4    0  501  0.32499589902E+02 -0.52551572820E+02  0.11561828932E+03  0.13116002583E+03  0.41800000000E+01 0. -1.
</event>
<event>
11    1  0.8328696E-009  0.2837809E+03  0.7561462E-02  0.1007299E+00
         22   -1    0    0    0    0  0.00000000000E+00  0.00000000000E+00  0.92791165298E+03  0.92791165298E+03  0.00000000000E+00 0. -1.
         22   -1    0    0    0    0 -0.00000000000E+00 -0.00000000000E+00 -0.83613751446E+03  0.83613751446E+03  0.00000000000E+00 0.  1.
         24    2    1    2    0    0  0.25289941147E+03  0.97909490749E+02 -0.56307670279E+03  0.62960865939E+03  0.76205708811E+02 0.  0.
         25    2    1    2    0    0 -0.19242040942E+03 -0.11159698722E+03 -0.16656693065E+03  0.30475497567E+03  0.12510616009E+03 0.  0.
        -24    2    1    2    0    0 -0.60479002045E+02  0.13687496475E+02  0.82141777196E+03  0.82968553237E+03  0.99024589306E+02 0.  0.
        -11    1    3    3    0    0  0.74371935101E+02  0.64438602941E+02 -0.23135718557E+03  0.25141532490E+03  0.00000000000E+00 0.  1.
         12    1    3    3    0    0  0.17852747637E+03  0.33470887808E+02 -0.33171951722E+03  0.37819333449E+03  0.00000000000E+00 0. -1.
         13    1    5    5    0    0 -0.21581159655E+02 -0.11361888109E+02  0.68875505099E+03  0.68918673755E+03  0.00000000000E+00 0. -1.
        -14    1    5    5    0    0 -0.38897842390E+02  0.25049384585E+02  0.13266272097E+03  0.14049879482E+03  0.00000000000E+00 0.  1.
          5    1    4    4  501    0 -0.32578673492E+02  0.27598167057E+02 -0.33803422128E+02  0.54618426734E+02  0.41800000000E+01 0. -1.
         -5    1    4    4    0  501 -0.15984173593E+03 -0.13919515428E+03 -0.13276350852E+03  0.25013654894E+03  0.41800000000E+01 0. -1.
</event>
<event>
11    1  0.8328696E-009  0.1560578E+03  0.7561462E-02  0.1090845E+00
         22   -1    0    0    0    0  0.00000000000E+00  0.00000000000E+00  0.99384594491E+03  0.99384594491E+03  0.00000000000E+00 0. -1.
         22   -1    0    0    0    0 -0.00000000000E+00 -0.00000000000E+00 -0.23846936935E+03  0.23846936935E+03  0.00000000000E+00 0. -1.
        -24    2    1    2    0    0 -0.46628092041E+01 -0.42074946068E+02 -0.18253026102E+03  0.20735784208E+03  0.88814050735E+02 0.  0.
         25    2    1    2    0    0 -0.87843652809E+02  0.22266095758E+02  0.11385467337E+03  0.19189083601E+03  0.12508764901E+03 0.  0.
         24    2    1    2    0    0  0.92506462014E+02  0.19808850310E+02  0.82405216320E+03  0.83306663617E+03  0.77383567748E+02 0.  0.
        -13    1    5    5    0    0  0.99311934159E+01 -0.20382208296E+02  0.73520363146E+02  0.76937031492E+02  0.00000000000E+00 0.  1.
         14    1    5    5    0    0  0.82575268598E+02  0.40191058606E+02  0.75053180006E+03  0.75612960468E+03  0.00000000000E+00 0. -1.
         11    1    3    3    0    0 -0.22737531083E+02 -0.34098034666E+02 -0.18306237718E+03  0.18759399038E+03  0.00000000000E+00 0. -1.
        -12    1    3    3    0    0  0.18074721878E+02 -0.79769114022E+01  0.53211615827E+00  0.19763851702E+02  0.00000000000E+00 0.  1.
          5    1    4    4  501    0  0.10416151649E+01 -0.43480152092E+02  0.35875186263E+02  0.56534148773E+02  0.41800000000E+01 0. -1.
         -5    1    4    4    0  501 -0.88885267974E+02  0.65746247850E+02  0.77979487110E+02  0.13535668723E+03  0.41800000000E+01 0. -1.
</event>
<event>
11    1  0.8328696E-009  0.1312607E+03  0.7561462E-02  0.1117730E+00
         22   -1    0    0    0    0  0.00000000000E+00  0.00000000000E+00  0.99757339420E+02  0.99757339420E+02  0.00000000000E+00 0.  1.
         22   -1    0    0    0    0 -0.00000000000E+00 -0.00000000000E+00 -0.37142569866E+03  0.37142569866E+03  0.00000000000E+00 0.  1.
        -24    2    1    2    0    0  0.13730958638E+02 -0.13372828374E+01 -0.22392760405E+03  0.23834073810E+03  0.80451277391E+02 0.  0.
         25    2    1    2    0    0 -0.44338769767E+02 -0.18706166166E+02 -0.54705394830E+02  0.14476152294E+03  0.12508945256E+03 0.  0.
         24    2    1    2    0    0  0.30607811129E+02  0.20043449003E+02  0.69646396403E+01  0.88080777039E+02  0.79819415736E+02 0.  0.
        -13    1    5    5    0    0  0.52709245905E+02 -0.55843530848E+01 -0.21010752576E+01  0.53045868082E+02  0.00000000000E+00 0.  1.
         14    1    5    5    0    0 -0.22101434777E+02  0.25627802088E+02  0.90657148979E+01  0.35034908958E+02  0.00000000000E+00 0. -1.
         13    1    3    3    0    0  0.17093657868E+01 -0.70065166060E+01  0.51600221087E+01  0.88678652733E+01  0.00000000000E+00 0. -1.
        -14    1    3    3    0    0  0.12021592851E+02  0.56692337685E+01 -0.22908762616E+03  0.22947287283E+03  0.00000000000E+00 0.  1.
          5    1    4    4  501    0 -0.24818281311E+02  0.53059873946E+02 -0.16265074596E+02  0.60937036046E+02  0.41800000000E+01 0.  1.
         -5    1    4    4    0  501 -0.19520488456E+02 -0.71766040112E+02 -0.38440320235E+02  0.83824486892E+02  0.41800000000E+01 0.  1.
</event>
<event>
11    1  0.8328696E-009  0.2130482E+03  0.7561462E-02  0.1045662E+00
         22   -1    0    0    0    0  0.00000000000E+00  0.00000000000E+00  0.82582933983E+02  0.82582933983E+02  0.00000000000E+00 0. -1.
         22   -1    0    0    0    0 -0.00000000000E+00 -0.00000000000E+00 -0.35815488852E+04  0.35815488852E+04  0.00000000000E+00 0. -1.
         24    2    1    2    0    0  0.78844804605E+02 -0.40378127279E+01 -0.14608001291E+04  0.14652466331E+04  0.82327829628E+02 0.  0.
         25    2    1    2    0    0 -0.57178261577E+02  0.17541392453E+03 -0.19890297669E+04  0.20014810269E+04  0.12508992247E+03 0.  0.
        -24    2    1    2    0    0 -0.21666543028E+02 -0.17137611180E+03 -0.49136055203E+02  0.19740415921E+03  0.81944123442E+02 0.  0.
        -11    1    3    3    0    0  0.55160048586E+01  0.21892041893E+02 -0.11466371480E+03  0.11686511584E+03  0.00000000000E+00 0.  1.
         12    1    3    3    0    0  0.73328799746E+02 -0.25929854621E+02 -0.13461364143E+04  0.13483815173E+04  0.00000000000E+00 0. -1.
         13    1    5    5    0    0 -0.25043341869E+02 -0.17553032160E+03 -0.58422668753E+02  0.18668495118E+03  0.00000000000E+00 0. -1.
        -14    1    5    5    0    0  0.33767988402E+01  0.41542097961E+01  0.92866135504E+01  0.10719208024E+02  0.00000000000E+00 0.  1.
          5    1    4    4  501    0 -0.95923949381E+02  0.13560146777E+03 -0.14010047068E+04  0.14108227468E+04  0.41800000000E+01 0. -1.
         -5    1    4    4    0  501  0.38745687804E+02  0.39812456763E+02 -0.58802506012E+03  0.59065828003E+03  0.41800000000E+01 0. -1.
</event>
<event>
11    1  0.1411041E-008  0.1990541E+03  0.7561462E-02  0.1055195E+00
         22   -1    0    0    0    0  0.00000000000E+00  0.00000000000E+00  0.67776743801E+03  0.67776743801E+03  0.00000000000E+00 0. -1.
         22   -1    0    0    0    0 -0.00000000000E+00 -0.00000000000E+00 -0.10774195310E+04  0.10774195310E+04  0.00000000000E+00 0. -1.
        -24    2    1    2    0    0  0.14017577232E+03 -0.28184663579E+02 -0.79749250195E+03  0.81423588331E+03  0.80883623786E+02 0.  0.
         25    2    1    2    0    0 -0.12995962293E+03  0.18168729769E+03 -0.19587375739E+03  0.32235590680E+03  0.12508806531E+03 0.  0.
         24    2    1    2    0    0 -0.10216149397E+02 -0.15350263411E+03  0.59371416638E+03  0.61859517885E+03  0.80598111318E+02 0.  0.
        -11    1    5    5    0    0 -0.28092102228E+02 -0.15545918223E+02  0.15740688987E+03  0.16064797154E+03  0.00000000000E+00 0.  1.
         12    1    5    5    0    0  0.17875952831E+02 -0.13795671589E+03  0.43630727651E+03  0.45794720731E+03  0.00000000000E+00 0. -1.
         11    1    3    3    0    0  0.14461833430E+03 -0.40758086122E+02 -0.75024149918E+03  0.76513919733E+03  0.00000000000E+00 0. -1.
        -12    1    3    3    0    0 -0.44425619788E+01  0.12573422544E+02 -0.47251002767E+02  0.49096685976E+02  0.00000000000E+00 0.  1.
          5    1    4    4  501    0 -0.13054796570E+03  0.19438081148E+03 -0.20040641828E+03  0.30823185447E+03  0.41800000000E+01 0. -1.
         -5    1    4    4    0  501  0.58834277241E+00 -0.12693513791E+02  0.45326608933E+01  0.14124052335E+02  0.41800000000E+01 0. -1.
</event>
<event>
11    1  0.8933928E-009  0.2079154E+03  0.7561462E-02  0.1049063E+00
         22   -1    0    0    0    0  0.00000000000E+00  0.00000000000E+00  0.10854277765E+04  0.10854277765E+04  0.00000000000E+00 0. -1.
         22   -1    0    0    0    0 -0.00000000000E+00 -0.00000000000E+00 -0.41236755795E+03  0.41236755795E+03  0.00000000000E+00 0. -1.
         24    2    1    2    0    0 -0.63671163309E+02 -0.22817129560E+02 -0.29929623862E+03  0.31717728642E+03  0.80302889925E+02 0.  0.
         25    2    1    2    0    0 -0.52872584901E+02  0.14437136027E+03  0.83028081331E+01  0.19838110181E+03  0.12509006767E+03 0.  0.
        -24    2    1    2    0    0  0.11654374821E+03 -0.12155423071E+03  0.96405364906E+03  0.98223694624E+03  0.83857641557E+02 0.  0.
        -13    1    3    3    0    0 -0.63312152410E+02  0.96623226210E+01 -0.13151060460E+03  0.14627654714E+03  0.00000000000E+00 0.  1.
         14    1    3    3    0    0 -0.35901089882E+00 -0.32479452181E+02 -0.16778563402E+03  0.17090073928E+03  0.00000000000E+00 0. -1.
         11    1    5    5    0    0  0.46877336343E+02 -0.65943101008E+02  0.67280799822E+03  0.67765520710E+03  0.00000000000E+00 0. -1.
        -12    1    5    5    0    0  0.69666411867E+02 -0.55611129703E+02  0.29124565083E+03  0.30458173914E+03  0.00000000000E+00 0.  1.
          5    1    4    4  501    0 -0.17597940596E+02  0.13829720128E+03 -0.33244734012E+02  0.14338231458E+03  0.41800000000E+01 0.  1.
         -5    1    4    4    0  501 -0.35274644306E+02  0.60741589959E+01  0.41547542145E+02  0.54998787229E+02  0.41800000000E+01 0.  1.
</event>
<event>
11    1  0.8328696E-009  0.1957339E+03  0.7561462E-02  0.1057582E+00
         22   -1    0    0    0    0  0.00000000000E+00  0.00000000000E+00  0.29360987544E+03  0.29360987544E+03  0.00000000000E+00 0.  1.
         22   -1    0    0    0    0 -0.00000000000E+00 -0.00000000000E+00 -0.59137659834E+03  0.59137659834E+03  0.00000000000E+00 0. -1.
         24    2    1    2    0    0 -0.39522195578E+02  0.10533320486E+03 -0.25588613328E+03  0.29102209377E+03  0.80988010656E+02 0.  0.
         25    2    1    2    0    0  0.17854365915E+03 -0.14239218887E+03 -0.22765312079E+03  0.34587121703E+03  0.12509029415E+03 0.  0.
        -24    2    1    2    0    0 -0.13902146357E+03  0.37058984016E+02  0.18577253117E+03  0.24809316298E+03  0.79614374026E+02 0.  0.
        -13    1    3    3    0    0  0.11445919954E+02  0.42421466414E+02 -0.36331273428E+02  0.57013606492E+02  0.00000000000E+00 0.  1.
         14    1    3    3    0    0 -0.50968115532E+02  0.62911738442E+02 -0.21955485985E+03  0.23400848728E+03  0.00000000000E+00 0. -1.
         13    1    5    5    0    0 -0.66020697119E+02 -0.21836707417E+02  0.93440914383E+02  0.11647651574E+03  0.00000000000E+00 0. -1.
        -14    1    5    5    0    0 -0.73000766456E+02  0.58895691433E+02  0.92331616783E+02  0.13161664724E+03  0.00000000000E+00 0.  1.
          5    1    4    4  501    0  0.41945255276E+02 -0.13687843446E+02 -0.12344623070E+03  0.13116099181E+03  0.41800000000E+01 0.  1.
         -5    1    4    4    0  501  0.13659840388E+03 -0.12870434543E+03 -0.10420689009E+03  0.21471022522E+03  0.41800000000E+01 0.  1.
</event>
<event>
11    1  0.8328696E-009  0.2434864E+03  0.7561462E-02  0.1027427E+00
         22   -1    0    0    0    0  0.00000000000E+00  0.00000000000E+00  0.17588107760E+04  0.17588107760E+04  0.00000000000E+00 0. -1.
         22   -1    0    0    0    0 -0.00000000000E+00 -0.00000000000E+00 -0.68372996620E+02  0.68372996620E+02  0.00000000000E+00 0. -1.
         24    2    1    2    0    0 -0.19375683057E+03 -0.11745895195E+03  0.49582202001E+03  0.55082219190E+03  0.78913223114E+02 0.  0.
         25    2    1    2    0    0  0.21287096671E+03 -0.18654126208E+02  0.43732513507E+03  0.50255612152E+03  0.12508939449E+03 0.  0.
        -24    2    1    2    0    0 -0.19114136137E+02  0.13611307816E+03  0.75729062428E+03  0.77380545918E+03  0.79960482693E+02 0.  0.
        -11    1    3    3    0    0 -0.62070557903E+01 -0.33740474746E+02  0.62768355063E+02  0.71531905993E+02  0.00000000000E+00 0.  1.
         12    1    3    3    0    0 -0.18754977478E+03 -0.83718477203E+02  0.43305366494E+03  0.47929028591E+03  0.00000000000E+00 0. -1.
         11    1    5    5    0    0  0.28615160459E+02  0.41058777905E+02  0.18152393685E+03  0.18829654882E+03  0.00000000000E+00 0. -1.
        -12    1    5    5    0    0 -0.47729296595E+02  0.95054300251E+02  0.57576668743E+03  0.58550891036E+03  0.00000000000E+00 0.  1.
          5    1    4    4  501    0  0.22331376924E+03 -0.35744497499E+02  0.41190082318E+03  0.46992176921E+03  0.41800000000E+01 0. -1.
         -5    1    4    4    0  501 -0.10442802532E+02  0.17090371292E+02  0.25424311890E+02  0.32634352310E+02  0.41800000000E+01 0. -1.
</event>
<event>
11    1  0.8328696E-009  0.2300096E+03  0.7561462E-02  0.1035122E+00
         22   -1    0    0    0    0  0.00000000000E+00  0.00000000000E+00  0.80103214556E+03  0.80103214556E+03  0.00000000000E+00 0.  1.
         22   -1    0    0    0    0 -0.00000000000E+00 -0.00000000000E+00 -0.15457202012E+04  0.15457202012E+04  0.00000000000E+00 0.  1.
         24    2    1    2    0    0  0.26448136962E+02  0.10146713293E+03 -0.13305845377E+04  0.13369781866E+04  0.77848418735E+02 0.  0.
         25    2    1    2    0    0 -0.69778389720E+02 -0.28185262907E+03 -0.69766124412E+02  0.32376541418E+03  0.12508718207E+03 0.  0.
        -24    2    1    2    0    0  0.43330252758E+02  0.18038549614E+03  0.65566260653E+03  0.68600874599E+03  0.79360619637E+02 0.  0.
        -11    1    3    3    0    0  0.43414128940E+02  0.42785097166E+02 -0.90266820449E+03  0.90472384656E+03  0.00000000000E+00 0.  1.
         12    1    3    3    0    0 -0.16965991978E+02  0.58682035765E+02 -0.42791633322E+03  0.43225433999E+03  0.00000000000E+00 0. -1.
         11    1    5    5    0    0  0.11200443942E+02 -0.32880506458E+01  0.16559682928E+02  0.20260412637E+02  0.00000000000E+00 0. -1.
        -12    1    5    5    0    0  0.32129808816E+02  0.18367354679E+03  0.63910292360E+03  0.66574833335E+03  0.00000000000E+00 0.  1.
          5    1    4    4  501    0 -0.76893803929E+02 -0.94699447878E+02 -0.60429665349E+02  0.13619786843E+03  0.41800000000E+01 0. -1.
         -5    1    4    4    0  501  0.71154142091E+01 -0.18715318119E+03 -0.93364590631E+01  0.18756754575E+03  0.41800000000E+01 0. -1.
</event>
<event>
11    1  0.8328696E-009  0.2847145E+03  0.7561462E-02  0.1006876E+00
         22   -1    0    0    0    0  0.00000000000E+00  0.00000000000E+00  0.28303652633E+03  0.28303652633E+03  0.00000000000E+00 0.  1.
         22   -1    0    0    0    0 -0.00000000000E+00 -0.00000000000E+00 -0.88758837341E+03  0.88758837341E+03  0.00000000000E+00 0.  1.
        -24    2    1    2    0    0 -0.46235075708E+02  0.81437671890E+02 -0.43739996534E+03  0.45439027192E+03  0.79887501551E+02 0.  0.
         25    2    1    2    0    0  0.16845698333E+03  0.15373579879E+03 -0.31016021232E+03  0.40479495602E+03  0.12508856085E+03 0.  0.
         24    2    1    2    0    0 -0.12222190762E+03 -0.23517347068E+03  0.14300833058E+03  0.31143967179E+03  0.79363282069E+02 0.  0.
        -13    1    5    5    0    0 -0.77660051353E+02 -0.19600979584E+03  0.81653150114E+02  0.22609325634E+03  0.00000000000E+00 0.  1.
         14    1    5    5    0    0 -0.44561856266E+02 -0.39163674841E+02  0.61355180464E+02  0.85346415453E+02  0.00000000000E+00 0. -1.
         13    1    3    3    0    0  0.17759569794E+02  0.60983416298E-01 -0.96383846360E+02  0.98006386921E+02  0.00000000000E+00 0. -1.
        -14    1    3    3    0    0 -0.63994645502E+02  0.81376688473E+02 -0.34101611898E+03  0.35638388500E+03  0.00000000000E+00 0.  1.
          5    1    4    4  501    0  0.17378239419E+03  0.16237887237E+03 -0.31330363871E+03  0.39337496253E+03  0.41800000000E+01 0.  1.
         -5    1    4    4    0  501 -0.53254108621E+01 -0.86430735838E+01  0.31434263883E+01  0.11419993489E+02  0.41800000000E+01 0.  1.
</event>
<event>
11    1  0.8328696E-009  0.1698279E+03  0.7561462E-02  0.1078182E+00
         22   -1    0    0    0    0  0.00000000000E+00  0.00000000000E+00  0.18864844752E+04  0.18864844752E+04  0.00000000000E+00 0.  1.
         22   -1    0    0    0    0 -0.00000000000E+00 -0.00000000000E+00 -0.94894095978E+03  0.94894095978E+03  0.00000000000E+00 0. -1.
         24    2    1    2    0    0 -0.56097040975E+00  0.11269766607E+03 -0.87995399489E+03  0.89080977312E+03  0.80758529757E+02 0.  0.
         25    2    1    2    0    0 -0.10748881973E+02 -0.22220349464E+03  0.20769386740E+03  0.32904907022E+03  0.12508643638E+03 0.  0.
        -24    2    1    2    0    0  0.11309852383E+02  0.10950582857E+03  0.16098036429E+04  0.16155665916E+04  0.80425145386E+02 0.  0.
        -13    1    3    3    0    0  0.23071781430E+02  0.64733760689E+02 -0.27344834724E+03  0.28195170771E+03  0.00000000000E+00 0.  1.
         14    1    3    3    0    0 -0.23632751840E+02  0.47963905378E+02 -0.60650564765E+03  0.60885806541E+03  0.00000000000E+00 0. -1.
         13    1    5    5    0    0 -0.33130517752E+02  0.27867083469E+02  0.53981878310E+03  0.54155195885E+03  0.00000000000E+00 0. -1.
        -14    1    5    5    0    0  0.44440370135E+02  0.81638745105E+02  0.10699848598E+04  0.10740146328E+04  0.00000000000E+00 0.  1.
          5    1    4    4  501    0  0.57567771559E+01 -0.28305950829E+01 -0.14466471543E+02  0.16367771707E+02  0.41800000000E+01 0. -1.
         -5    1    4    4    0  501 -0.16505659129E+02 -0.21937289956E+03  0.22216033894E+03  0.31268129852E+03  0.41800000000E+01 0. -1.
</event>
<event>
11    1  0.8328696E-009  0.1065025E+04  0.7561462E-02  0.8619513E-01
         22   -1    0    0    0    0  0.00000000000E+00  0.00000000000E+00  0.22422744882E+03  0.22422744882E+03  0.00000000000E+00 0.  1.
         22   -1    0    0    0    0 -0.00000000000E+00 -0.00000000000E+00 -0.12646516396E+04  0.12646516396E+04  0.00000000000E+00 0.  1.
        -24    2    1    2    0    0  0.25566266949E+03  0.19674060335E+03 -0.38612052786E+03  0.50970758465E+03  0.81501498367E+02 0.  0.
         25    2    1    2    0    0 -0.38203230049E+03 -0.32167942371E+03 -0.57305745853E+03  0.77036909141E+03  0.12508939190E+03 0.  0.
         24    2    1    2    0    0  0.12636963099E+03  0.12493882036E+03 -0.81246204383E+02  0.20880241236E+03  0.73610523755E+02 0.  0.
        -11    1    5    5    0    0  0.56405273392E+02  0.12970837268E+02 -0.98653021277E+01  0.58712193554E+02  0.00000000000E+00 0.  1.
         12    1    5    5    0    0  0.69964357602E+02  0.11196798310E+03 -0.71380902256E+02  0.15009021880E+03  0.00000000000E+00 0. -1.
         13    1    3    3    0    0  0.14828368873E+02  0.26810542873E+02 -0.75596571764E+02  0.81569157131E+02  0.00000000000E+00 0. -1.
        -14    1    3    3    0    0  0.24083430062E+03  0.16993006048E+03 -0.31052395609E+03  0.42813842752E+03  0.00000000000E+00 0.  1.
          5    1    4    4  501    0 -0.84207026936E+02 -0.71761189155E+02 -0.57869690969E+02  0.12492743969E+03  0.41800000000E+01 0. -1.
         -5    1    4    4    0  501 -0.29782527355E+03 -0.24991823456E+03 -0.51518776756E+03  0.64544165172E+03  0.41800000000E+01 0. -1.
</event>
