<event>
11    1  0.1078607E-008  0.1414818E+03  0.7561462E-02  0.1105915E+00
         22   -1    0    0    0    0  0.00000000000E+00  0.00000000000E+00  0.55342547211E+03  0.55342547211E+03  0.00000000000E+00 0.  1.
         22   -1    0    0    0    0 -0.00000000000E+00 -0.00000000000E+00 -0.62393934071E+03  0.62393934071E+03  0.00000000000E+00 0. -1.
        -24    2    1    2    0    0 -0.48771211650E+02  0.42178596848E+02 -0.46543962393E+03  0.47665009011E+03  0.80022495333E+02 0.  0.
         25    2    1    2    0    0  0.46132690674E+02 -0.63369560562E+02 -0.11288837174E+03  0.18583651621E+03  0.12508996735E+03 0.  0.
         24    2    1    2    0    0  0.26385209766E+01  0.21190963714E+02  0.50781412707E+03  0.51487820649E+03  0.82270050066E+02 0.  0.
        -11    1    5    5    0    0  0.31312340390E+02  0.27030600734E+01  0.41152684004E+03  0.41272522248E+03  0.00000000000E+00 0.  1.
         12    1    5    5    0    0 -0.28673819414E+02  0.18487903641E+02  0.96287287023E+02  0.10215298401E+03  0.00000000000E+00 0. -1.
         11    1    3    3    0    0 -0.69210440061E+01  0.47538894482E+02 -0.35823165484E+03  0.36143846761E+03  0.00000000000E+00 0. -1.
        -12    1    3    3    0    0 -0.41850167644E+02 -0.53602976337E+01 -0.10720796909E+03  0.11521162250E+03  0.00000000000E+00 0.  1.
          5    1    4    4  501    0 -0.33019910009E+02  0.28227823674E+01 -0.77582765673E+00  0.33411926999E+02  0.41800000000E+01 0.  1.
         -5    1    4    4    0  501  0.79152600682E+02 -0.66192342930E+02 -0.11211254408E+03  0.15242458921E+03  0.41800000000E+01 0.  1.
</event>
<event>
11    1  0.1078607E-008  0.3578442E+03  0.7561462E-02  0.9783045E-01
         22   -1    0    0    0    0  0.00000000000E+00  0.00000000000E+00  0.18842830066E+04  0.18842830066E+04  0.00000000000E+00 0.  1.
         22   -1    0    0    0    0 -0.00000000000E+00 -0.00000000000E+00 -0.67730060418E+03  0.67730060418E+03  0.00000000000E+00 0. -1.
        -24    2    1    2    0    0 -0.19342395097E+03  0.10772485381E+03 -0.50700446725E+03  0.55924873091E+03  0.81781075336E+02 0.  0.
         25    2    1    2    0    0  0.39994707328E+03 -0.33429674412E+03  0.45219184093E+03  0.70131165310E+03  0.12509436123E+03 0.  0.
         24    2    1    2    0    0 -0.20652312231E+03  0.22657189031E+03  0.12617950287E+04  0.13010232268E+04  0.80920458060E+02 0.  0.
        -11    1    5    5    0    0 -0.51677151882E+02  0.71011243517E+02  0.52264422420E+03  0.52997180096E+03  0.00000000000E+00 0.  1.
         12    1    5    5    0    0 -0.15484597043E+03  0.15556064679E+03  0.73915080455E+03  0.77105142582E+03  0.00000000000E+00 0. -1.
         11    1    3    3    0    0 -0.12017985031E+03  0.31618018941E+02 -0.20991740101E+03  0.24394304825E+03  0.00000000000E+00 0. -1.
        -12    1    3    3    0    0 -0.73244100657E+02  0.76106834867E+02 -0.29708706623E+03  0.31530568266E+03  0.00000000000E+00 0.  1.
          5    1    4    4  501    0  0.40502939464E+03 -0.32476430068E+03  0.42223678940E+03  0.66919506890E+03  0.41800000000E+01 0. -1.
         -5    1    4    4    0  501 -0.50823213594E+01 -0.95324434441E+01  0.29955051530E+02  0.32116584199E+02  0.41800000000E+01 0. -1.
</event>
<event>
11    1  0.1078607E-008  0.1360192E+03  0.7561462E-02  0.1112087E+00
         22   -1    0    0    0    0  0.00000000000E+00  0.00000000000E+00  0.45349226609E+03  0.45349226609E+03  0.00000000000E+00 0. -1.
         22   -1    0    0    0    0 -0.00000000000E+00 -0.00000000000E+00 -0.31183255886E+03  0.31183255886E+03  0.00000000000E+00 0.  1.
         24    2    1    2    0    0  0.20391805584E+02  0.48411774476E+02 -0.18962680295E+03  0.21154304934E+03  0.77669889189E+02 0.  0.
         25    2    1    2    0    0 -0.37595523993E+02 -0.45480809971E+02 -0.62315374869E+02  0.15169954286E+03  0.12509043872E+03 0.  0.
        -24    2    1    2    0    0  0.17203718409E+02 -0.29309645051E+01  0.39360188504E+03  0.40208223275E+03  0.80269044480E+02 0.  0.
        -13    1    3    3    0    0  0.48888809549E+02  0.22940978279E+02 -0.12933905893E+03  0.14016060911E+03  0.00000000000E+00 0.  1.
         14    1    3    3    0    0 -0.28497003965E+02  0.25470796197E+02 -0.60287744020E+02  0.71382440227E+02  0.00000000000E+00 0. -1.
         11    1    5    5    0    0  0.12883910871E+02  0.31826064652E+02  0.30311498897E+03  0.30505342170E+03  0.00000000000E+00 0. -1.
        -12    1    5    5    0    0  0.43198075380E+01 -0.34757029157E+02  0.90486896071E+02  0.97028811049E+02  0.00000000000E+00 0.  1.
          5    1    4    4  501    0  0.31757408963E+02 -0.16637970459E+02  0.19110847973E+02  0.40841792264E+02  0.41800000000E+01 0.  1.
         -5    1    4    4    0  501 -0.69352932956E+02 -0.28842839512E+02 -0.81426222842E+02  0.11085775059E+03  0.41800000000E+01 0.  1.
</event>
<event>
11    1  0.1078607E-008  0.1411423E+03  0.7561462E-02  0.1106289E+00
         22   -1    0    0    0    0  0.00000000000E+00  0.00000000000E+00  0.29075012946E+04  0.29075012946E+04  0.00000000000E+00 0.  1.
         22   -1    0    0    0    0 -0.00000000000E+00 -0.00000000000E+00 -0.18871052404E+03  0.18871052404E+03  0.00000000000E+00 0. -1.
         24    2    1    2    0    0 -0.64601544338E+02  0.14947513831E+02 -0.16855433508E+03  0.19789748974E+03  0.79724932546E+02 0.  0.
         25    2    1    2    0    0  0.41710952777E+01 -0.80228324635E+01  0.93547134411E+03  0.94384061895E+03  0.12508682763E+03 0.  0.
        -24    2    1    2    0    0  0.60430449060E+02 -0.69246813672E+01  0.19518737615E+04  0.19544737099E+04  0.80352421059E+02 0.  0.
        -11    1    3    3    0    0  0.12137557724E+02 -0.11629461728E+02 -0.94961197032E+01  0.19306500900E+02  0.00000000000E+00 0.  1.
         12    1    3    3    0    0 -0.76739102062E+02  0.26576975559E+02 -0.15905821538E+03  0.17859098884E+03  0.00000000000E+00 0. -1.
         13    1    5    5    0    0 -0.51730399103E+01  0.11340731545E+02  0.55708022070E+02  0.57085517049E+02  0.00000000000E+00 0. -1.
        -14    1    5    5    0    0  0.65603488971E+02 -0.18265412912E+02  0.18961657394E+04  0.18973881929E+04  0.00000000000E+00 0.  1.
          5    1    4    4  501    0 -0.20813007757E+02  0.51919640208E+02  0.31391994965E+03  0.31889189001E+03  0.41800000000E+01 0.  1.
         -5    1    4    4    0  501  0.24984103034E+02 -0.59942472671E+02  0.62155139447E+03  0.62494872894E+03  0.41800000000E+01 0.  1.
</event>
<event>
11    1  0.1078607E-008  0.2318201E+03  0.7561462E-02  0.1034056E+00
         22   -1    0    0    0    0  0.00000000000E+00  0.00000000000E+00  0.12997778407E+03  0.12997778407E+03  0.00000000000E+00 0. -1.
         22   -1    0    0    0    0 -0.00000000000E+00 -0.00000000000E+00 -0.85060455337E+03  0.85060455337E+03  0.00000000000E+00 0. -1.
        -24    2    1    2    0    0  0.70336600694E+02 -0.37774230231E+02 -0.32397953340E+03  0.34341243513E+03  0.81211037885E+02 0.  0.
         25    2    1    2    0    0  0.13684193652E+03 -0.21911608010E+02 -0.35840486995E+03  0.40411345949E+03  0.12509117947E+03 0.  0.
         24    2    1    2    0    0 -0.20717853722E+03  0.59685838241E+02 -0.38242365960E+02  0.23305644282E+03  0.79796500028E+02 0.  0.
        -13    1    5    5    0    0  0.33992885882E+01  0.13767524458E+02 -0.10046196520E+00  0.14181325228E+02  0.00000000000E+00 0.  1.
         14    1    5    5    0    0 -0.21057782580E+03  0.45918313783E+02 -0.38141903995E+02  0.21887511759E+03  0.00000000000E+00 0. -1.
         11    1    3    3    0    0  0.56081904575E+02 -0.60328070312E+02 -0.19466929324E+03  0.21137830972E+03  0.00000000000E+00 0. -1.
        -12    1    3    3    0    0  0.14254696119E+02  0.22553840081E+02 -0.12931024016E+03  0.13203412541E+03  0.00000000000E+00 0.  1.
          5    1    4    4  501    0  0.10692416998E+03 -0.52618034255E+02 -0.15163393640E+03  0.19290349588E+03  0.41800000000E+01 0.  1.
         -5    1    4    4    0  501  0.29917766546E+02  0.30706426245E+02 -0.20677093355E+03  0.21120996361E+03  0.41800000000E+01 0.  1.
</event>
<event>
11    1  0.1078607E-008  0.1277677E+03  0.7561462E-02  0.1122043E+00
         22   -1    0    0    0    0  0.00000000000E+00  0.00000000000E+00  0.13652532024E+04  0.13652532024E+04  0.00000000000E+00 0.  1.
         22   -1    0    0    0    0 -0.00000000000E+00 -0.00000000000E+00 -0.10538007200E+03  0.10538007200E+03  0.00000000000E+00 0.  1.
        -24    2    1    2    0    0  0.11212899894E+02 -0.16917131004E+02 -0.67453342130E+02  0.10625684152E+03  0.79552778455E+02 0.  0.
         25    2    1    2    0    0 -0.16651442570E+01  0.40004856404E+02  0.23828299470E+03  0.27208350114E+03  0.12508990683E+03 0.  0.
         24    2    1    2    0    0 -0.95477556373E+01 -0.23087725400E+02  0.10890434778E+04  0.10922929317E+04  0.80398690492E+02 0.  0.
        -11    1    5    5    0    0 -0.21827476068E+02  0.21927795314E+02  0.65891526127E+03  0.65964125739E+03  0.00000000000E+00 0.  1.
         12    1    5    5    0    0  0.12279720431E+02 -0.45015520714E+02  0.43012821656E+03  0.43265167435E+03  0.00000000000E+00 0. -1.
         13    1    3    3    0    0 -0.56537870332E+01 -0.43226597021E+01  0.17417007441E+02  0.18814963272E+02  0.00000000000E+00 0. -1.
        -14    1    3    3    0    0  0.16866686928E+02 -0.12594471302E+02 -0.84870349571E+02  0.87441878248E+02  0.00000000000E+00 0.  1.
          5    1    4    4  501    0  0.43909880189E+02  0.23089439924E+02  0.29922586435E+02  0.58086430370E+02  0.41800000000E+01 0.  1.
         -5    1    4    4    0  501 -0.45575024446E+02  0.16915416480E+02  0.20836040826E+03  0.21399707077E+03  0.41800000000E+01 0.  1.
</event>
<event>
11    1  0.1078607E-008  0.1566938E+03  0.7561462E-02  0.1090229E+00
         22   -1    0    0    0    0  0.00000000000E+00  0.00000000000E+00  0.17519403784E+04  0.17519403784E+04  0.00000000000E+00 0.  1.
         22   -1    0    0    0    0 -0.00000000000E+00 -0.00000000000E+00 -0.93987802013E+02  0.93987802013E+02  0.00000000000E+00 0. -1.
         24    2    1    2    0    0  0.37441253298E+01  0.71493849167E+01 -0.25388640746E+02  0.86124088971E+02  0.81900204169E+02 0.  0.
         25    2    1    2    0    0 -0.95662759555E+02 -0.26823567395E+02  0.14412931427E+03  0.21515504238E+03  0.12509023022E+03 0.  0.
        -24    2    1    2    0    0  0.91918634226E+02  0.19674182478E+02  0.15392119028E+04  0.15446490490E+04  0.89057813109E+02 0.  0.
        -11    1    3    3    0    0 -0.19726424104E+02  0.86648972763E+01  0.23494041586E+02  0.31877613505E+02  0.00000000000E+00 0.  1.
         12    1    3    3    0    0  0.23470549434E+02 -0.15155123595E+01 -0.48882682333E+02  0.54246475466E+02  0.00000000000E+00 0. -1.
         13    1    5    5    0    0  0.22930938784E+02  0.33751172957E+02  0.23337293397E+03  0.23691326670E+03  0.00000000000E+00 0. -1.
        -14    1    5    5    0    0  0.68987695441E+02 -0.14076990479E+02  0.13058389689E+04  0.13077357823E+04  0.00000000000E+00 0.  1.
          5    1    4    4  501    0 -0.90908094102E+02 -0.68666269957E+02  0.12350398836E+03  0.16807749922E+03  0.41800000000E+01 0. -1.
         -5    1    4    4    0  501 -0.47546654539E+01  0.41842702562E+02  0.20625325910E+02  0.47077543162E+02  0.41800000000E+01 0. -1.
</event>
<event>
11    1  0.1078607E-008  0.1411550E+03  0.7561462E-02  0.1106275E+00
         22   -1    0    0    0    0  0.00000000000E+00  0.00000000000E+00  0.12022116367E+03  0.12022116367E+03  0.00000000000E+00 0. -1.
         22   -1    0    0    0    0 -0.00000000000E+00 -0.00000000000E+00 -0.22166642182E+04  0.22166642182E+04  0.00000000000E+00 0. -1.
        -24    2    1    2    0    0 -0.18258336272E+02 -0.16405372553E+02 -0.20231597075E+04  0.20246334818E+04  0.73232712817E+02 0.  0.
         25    2    1    2    0    0  0.64501702203E+02 -0.29357264256E+02 -0.13069546819E+03  0.19429734068E+03  0.12509129722E+03 0.  0.
         24    2    1    2    0    0 -0.46243365932E+02  0.45762636809E+02  0.57412121241E+02  0.11795455936E+03  0.79902807134E+02 0.  0.
        -11    1    5    5    0    0 -0.12317982296E+02 -0.19559872475E+02 -0.22225715473E+01  0.23221996541E+02  0.00000000000E+00 0.  1.
         12    1    5    5    0    0 -0.33925383636E+02  0.65322509285E+02  0.59634692788E+02  0.94732562818E+02  0.00000000000E+00 0. -1.
         11    1    3    3    0    0 -0.36736020553E+02  0.10276226592E+02 -0.14891073975E+04  0.14895959108E+04  0.00000000000E+00 0. -1.
        -12    1    3    3    0    0  0.18477684281E+02 -0.26681599145E+02 -0.53405230999E+03  0.53503757098E+03  0.00000000000E+00 0.  1.
          5    1    4    4  501    0  0.57231439750E+02 -0.11979529761E+02  0.34965573866E+01  0.58725166178E+02  0.41800000000E+01 0.  1.
         -5    1    4    4    0  501  0.72702624538E+01 -0.17377734495E+02 -0.13419202557E+03  0.13557217450E+03  0.41800000000E+01 0.  1.
</event>
<event>
11    1  0.1078607E-008  0.1434274E+03  0.7561462E-02  0.1103790E+00
         22   -1    0    0    0    0  0.00000000000E+00  0.00000000000E+00  0.94942619134E+02  0.94942619134E+02  0.00000000000E+00 0. -1.
         22   -1    0    0    0    0 -0.00000000000E+00 -0.00000000000E+00 -0.21783810375E+04  0.21783810375E+04  0.00000000000E+00 0. -1.
        -24    2    1    2    0    0  0.60004613160E+02  0.37371270004E+02 -0.17887728672E+04  0.17920330905E+04  0.81713289762E+02 0.  0.
         25    2    1    2    0    0 -0.89787378408E+02  0.27608705543E+02 -0.33219024925E+03  0.36717956816E+03  0.12508580909E+03 0.  0.
         24    2    1    2    0    0  0.29782765248E+02 -0.64979975547E+02  0.37524698067E+02  0.11411099795E+03  0.80646181314E+02 0.  0.
        -13    1    5    5    0    0 -0.48939933606E+01 -0.27119712219E+01 -0.21097580429E+02  0.21826906764E+02  0.00000000000E+00 0.  1.
         14    1    5    5    0    0  0.34676758608E+02 -0.62268004325E+02  0.58622278496E+02  0.92284091188E+02  0.00000000000E+00 0. -1.
         13    1    3    3    0    0  0.19345056600E+02  0.58878304870E+02 -0.10595980016E+04  0.10614088803E+04  0.00000000000E+00 0. -1.
        -14    1    3    3    0    0  0.40659556560E+02 -0.21507034866E+02 -0.72917486552E+03  0.73062421025E+03  0.00000000000E+00 0.  1.
          5    1    4    4  501    0 -0.80533651431E+02  0.38157508782E+02 -0.33934991962E+03  0.35088104086E+03  0.41800000000E+01 0. -1.
         -5    1    4    4    0  501 -0.92537269770E+01 -0.10548803239E+02  0.71596703634E+01  0.16298527309E+02  0.41800000000E+01 0. -1.
</event>
<event>
11    1  0.1078607E-008  0.1470230E+03  0.7561462E-02  0.1099960E+00
         22   -1    0    0    0    0  0.00000000000E+00  0.00000000000E+00  0.18957787867E+04  0.18957787867E+04  0.00000000000E+00 0.  1.
         22   -1    0    0    0    0 -0.00000000000E+00 -0.00000000000E+00 -0.17318984966E+03  0.17318984966E+03  0.00000000000E+00 0.  1.
         24    2    1    2    0    0  0.29763640109E+00  0.93335682580E+01 -0.15134969383E+03  0.17096057590E+03  0.78953053188E+02 0.  0.
         25    2    1    2    0    0  0.76906064255E+02 -0.32170886370E+01  0.56264034950E+03  0.58149599454E+03  0.12509411020E+03 0.  0.
        -24    2    1    2    0    0 -0.77203700656E+02 -0.61164796210E+01  0.13112982814E+04  0.13165120659E+04  0.87766817429E+02 0.  0.
        -13    1    3    3    0    0  0.15722259628E+02  0.12492648360E+02 -0.15373073525E+03  0.15503675265E+03  0.00000000000E+00 0.  1.
         14    1    3    3    0    0 -0.15424623227E+02 -0.31590801020E+01  0.23810414241E+01  0.15923823255E+02  0.00000000000E+00 0. -1.
         11    1    5    5    0    0 -0.18972094532E+02 -0.21589340225E+02  0.10964923238E+03  0.11335340376E+03  0.00000000000E+00 0. -1.
        -12    1    5    5    0    0 -0.58231606123E+02  0.15472860604E+02  0.12016490490E+04  0.12031586621E+04  0.00000000000E+00 0.  1.
          5    1    4    4  501    0  0.15411668948E+02 -0.60165871427E+02  0.26830442983E+03  0.27543091891E+03  0.41800000000E+01 0. -1.
         -5    1    4    4    0  501  0.61494395307E+02  0.56948782790E+02  0.29433591966E+03  0.30606507563E+03  0.41800000000E+01 0. -1.
</event>
<event>
11    1  0.1078607E-008  0.1464939E+03  0.7561462E-02  0.1100516E+00
         22   -1    0    0    0    0  0.00000000000E+00  0.00000000000E+00  0.12237950226E+03  0.12237950226E+03  0.00000000000E+00 0.  1.
         22   -1    0    0    0    0 -0.00000000000E+00 -0.00000000000E+00 -0.12647081669E+04  0.12647081669E+04  0.00000000000E+00 0. -1.
        -24    2    1    2    0    0 -0.51688047669E+02  0.56484611611E+02 -0.96848251484E+03  0.97464293903E+03  0.78155687118E+02 0.  0.
         25    2    1    2    0    0  0.61159932042E+02 -0.44015855686E+02 -0.25694184621E+03  0.29554996346E+03  0.12511089374E+03 0.  0.
         24    2    1    2    0    0 -0.94718843728E+01 -0.12468755924E+02  0.83095696458E+02  0.11689476663E+03  0.80711245976E+02 0.  0.
        -11    1    5    5    0    0 -0.24054941214E+02  0.23144223628E+01  0.91392176357E+02  0.94533203939E+02  0.00000000000E+00 0.  1.
         12    1    5    5    0    0  0.14583056841E+02 -0.14783178287E+02 -0.82964798992E+01  0.22361562687E+02  0.00000000000E+00 0. -1.
         11    1    3    3    0    0 -0.67435027176E+02  0.24389354270E+02 -0.72705865528E+03  0.73058648476E+03  0.00000000000E+00 0. -1.
        -12    1    3    3    0    0  0.15746979507E+02  0.32095257341E+02 -0.24142385956E+03  0.24405645428E+03  0.00000000000E+00 0.  1.
          5    1    4    4  501    0 -0.34491350514E+02 -0.28020068443E+02 -0.50324111691E+02  0.67266381747E+02  0.41800000000E+01 0.  1.
         -5    1    4    4    0  501  0.95651282556E+02 -0.15995787243E+02 -0.20661773452E+03  0.22828358172E+03  0.41800000000E+01 0.  1.
</event>
<event>
11    1  0.1078607E-008  0.1278699E+03  0.7561462E-02  0.1121914E+00
         22   -1    0    0    0    0  0.00000000000E+00  0.00000000000E+00  0.20307574269E+03  0.20307574269E+03  0.00000000000E+00 0. -1.
         22   -1    0    0    0    0 -0.00000000000E+00 -0.00000000000E+00 -0.11621933851E+04  0.11621933851E+04  0.00000000000E+00 0.  1.
         24    2    1    2    0    0  0.13338666834E+02 -0.24490799923E+02 -0.10226013929E+04  0.10262014784E+04  0.81228973660E+02 0.  0.
         25    2    1    2    0    0 -0.12477857109E+02 -0.31294271753E+01 -0.96324256916E+02  0.15839813382E+03  0.12508443586E+03 0.  0.
        -24    2    1    2    0    0 -0.86080972537E+00  0.27620227099E+02  0.15980800743E+03  0.18066951557E+03  0.79619449123E+02 0.  0.
        -11    1    3    3    0    0  0.37342722251E+02 -0.46153199037E+01 -0.84842766991E+03  0.84926161526E+03  0.00000000000E+00 0.  1.
         12    1    3    3    0    0 -0.24004055417E+02 -0.19875480020E+02 -0.17417372299E+03  0.17693986313E+03  0.00000000000E+00 0. -1.
         11    1    5    5    0    0  0.16410648611E+02  0.51230958297E+02  0.11754194879E+03  0.12926728202E+03  0.00000000000E+00 0. -1.
        -12    1    5    5    0    0 -0.17271458336E+02 -0.23610731198E+02  0.42266058647E+02  0.51402233554E+02  0.00000000000E+00 0.  1.
          5    1    4    4  501    0  0.70980374917E+01 -0.57819708368E+02 -0.77804985754E+02  0.97286119360E+02  0.41800000000E+01 0.  1.
         -5    1    4    4    0  501 -0.19575894600E+02  0.54690281193E+02 -0.18519271163E+02  0.61112014455E+02  0.41800000000E+01 0.  1.
</event>
<event>
11    1  0.1078607E-008  0.2116544E+03  0.7561462E-02  0.1046575E+00
         22   -1    0    0    0    0  0.00000000000E+00  0.00000000000E+00  0.94697303177E+02  0.94697303177E+02  0.00000000000E+00 0. -1.
         22   -1    0    0    0    0 -0.00000000000E+00 -0.00000000000E+00 -0.20412116853E+04  0.20412116853E+04  0.00000000000E+00 0. -1.
        -24    2    1    2    0    0  0.42561677763E+02 -0.30318978946E+02 -0.15431464546E+04  0.15461600389E+04  0.81111951791E+02 0.  0.
         25    2    1    2    0    0  0.11187833048E+03  0.11661746372E+03 -0.31560226796E+03  0.37599271265E+03  0.12509730114E+03 0.  0.
         24    2    1    2    0    0 -0.15444000824E+03 -0.86298484773E+02 -0.87765659624E+02  0.21375623696E+03  0.81791033793E+02 0.  0.
        -13    1    5    5    0    0 -0.10310123159E+03 -0.98002642038E+02 -0.63459114534E+02  0.15576084559E+03  0.00000000000E+00 0.  1.
         14    1    5    5    0    0 -0.51338776657E+02  0.11704157264E+02 -0.24306545089E+02  0.57995391370E+02  0.00000000000E+00 0. -1.
         11    1    3    3    0    0  0.16600315353E+02 -0.41185075670E+02 -0.13717350423E+04  0.13724535720E+04  0.00000000000E+00 0. -1.
        -12    1    3    3    0    0  0.25961362410E+02  0.10866096725E+02 -0.17141141223E+03  0.17370646689E+03  0.00000000000E+00 0.  1.
          5    1    4    4  501    0 -0.25396716647E+02  0.38218105189E+02 -0.77343384711E+02  0.90028264113E+02  0.41800000000E+01 0.  1.
         -5    1    4    4    0  501  0.13727504713E+03  0.78399358530E+02 -0.23825888325E+03  0.28596444854E+03  0.41800000000E+01 0.  1.
</event>
<event>
11    1  0.1078607E-008  0.1675114E+03  0.7561462E-02  0.1080218E+00
         22   -1    0    0    0    0  0.00000000000E+00  0.00000000000E+00  0.15650497677E+04  0.15650497677E+04  0.00000000000E+00 0. -1.
         22   -1    0    0    0    0 -0.00000000000E+00 -0.00000000000E+00 -0.11012202269E+03  0.11012202269E+03  0.00000000000E+00 0. -1.
         24    2    1    2    0    0  0.82261503753E+02 -0.83469155502E+02 -0.37403230899E+02  0.14895287649E+03  0.83987515814E+02 0.  0.
         25    2    1    2    0    0 -0.29800028277E+02  0.72901967676E+02  0.35220993107E+03  0.38197100844E+03  0.12508907695E+03 0.  0.
        -24    2    1    2    0    0 -0.52461475475E+02  0.10567187826E+02  0.11401210449E+04  0.11442479055E+04  0.81014815884E+02 0.  0.
        -11    1    3    3    0    0  0.17881004274E+02 -0.19322558446E+02  0.26886852135E+02  0.37629700988E+02  0.00000000000E+00 0.  1.
         12    1    3    3    0    0  0.64380499479E+02 -0.64146597055E+02 -0.64290083034E+02  0.11132317550E+03  0.00000000000E+00 0. -1.
         13    1    5    5    0    0 -0.70694830365E+02  0.24944405053E+01  0.10228872801E+04  0.10253303707E+04  0.00000000000E+00 0. -1.
        -14    1    5    5    0    0  0.18233354890E+02  0.80727473207E+01  0.11723376474E+03  0.11891753477E+03  0.00000000000E+00 0.  1.
          5    1    4    4  501    0  0.23047844374E+02 -0.13297338862E+02  0.18175446414E+03  0.18373943503E+03  0.41800000000E+01 0. -1.
         -5    1    4    4    0  501 -0.52847872651E+02  0.86199306537E+02  0.17045546693E+03  0.19823157341E+03  0.41800000000E+01 0. -1.
</event>
<event>
11    1  0.1078607E-008  0.1479027E+03  0.7561462E-02  0.1099041E+00
         22   -1    0    0    0    0  0.00000000000E+00  0.00000000000E+00  0.41688284813E+02  0.41688284813E+02  0.00000000000E+00 0. -1.
         22   -1    0    0    0    0 -0.00000000000E+00 -0.00000000000E+00 -0.21588389381E+04  0.21588389381E+04  0.00000000000E+00 0.  1.
         24    2    1    2    0    0  0.32954460323E+00 -0.12838426963E+01 -0.16873365553E+04  0.16891636866E+04  0.78533766352E+02 0.  0.
         25    2    1    2    0    0  0.76667634192E+02 -0.16820405480E+02 -0.31753197346E+03  0.35019192642E+03  0.12508788506E+03 0.  0.
        -24    2    1    2    0    0 -0.76997178795E+02  0.18104248176E+02 -0.11228212454E+03  0.16117160990E+03  0.84336723915E+02 0.  0.
        -13    1    3    3    0    0  0.35404220727E+02 -0.14499324844E+01 -0.12192714546E+04  0.12197862276E+04  0.00000000000E+00 0.  1.
         14    1    3    3    0    0 -0.35074676124E+02  0.16608978809E+00 -0.46806510068E+03  0.46937745895E+03  0.00000000000E+00 0. -1.
         13    1    5    5    0    0 -0.67542772098E+02 -0.13279596057E+02 -0.34993241386E+02  0.77219820492E+02  0.00000000000E+00 0. -1.
        -14    1    5    5    0    0 -0.94544066972E+01  0.31383844233E+02 -0.77288883158E+02  0.83951789407E+02  0.00000000000E+00 0.  1.
          5    1    4    4  501    0  0.53709793820E+00 -0.43780975239E+02 -0.34695150827E+02  0.56020426257E+02  0.41800000000E+01 0. -1.
         -5    1    4    4    0  501  0.76130536254E+02  0.26960569760E+02 -0.28283682263E+03  0.29417150016E+03  0.41800000000E+01 0. -1.
</event>
<event>
11    1  0.1078607E-008  0.1316932E+03  0.7561462E-02  0.1117206E+00
         22   -1    0    0    0    0  0.00000000000E+00  0.00000000000E+00  0.63449550100E+03  0.63449550100E+03  0.00000000000E+00 0.  1.
         22   -1    0    0    0    0 -0.00000000000E+00 -0.00000000000E+00 -0.12830247587E+03  0.12830247587E+03  0.00000000000E+00 0.  1.
         24    2    1    2    0    0 -0.33486838505E+02  0.22912392086E+02 -0.88889951325E+02  0.12572803897E+03  0.79118710001E+02 0.  0.
         25    2    1    2    0    0  0.48243055576E+02 -0.19146177248E+02  0.27773794576E+03  0.30899851164E+03  0.12509094757E+03 0.  0.
        -24    2    1    2    0    0 -0.14756217071E+02 -0.37662148379E+01  0.31734503069E+03  0.32807142626E+03  0.81798911402E+02 0.  0.
        -11    1    3    3    0    0 -0.38933145692E+02  0.13106392836E+01 -0.94958681243E+02  0.10263848573E+03  0.00000000000E+00 0.  1.
         12    1    3    3    0    0  0.54463071877E+01  0.21601752803E+02  0.60687299179E+01  0.23089553243E+02  0.00000000000E+00 0. -1.
         13    1    5    5    0    0 -0.22160874662E+02 -0.39448849040E+02  0.20613655396E+03  0.21104405923E+03  0.00000000000E+00 0. -1.
        -14    1    5    5    0    0  0.74046575906E+01  0.35682634202E+02  0.11120847673E+03  0.11702736703E+03  0.00000000000E+00 0.  1.
          5    1    4    4  501    0  0.29867704783E+01 -0.46731807825E+02  0.30341951848E+02  0.55954348378E+02  0.41800000000E+01 0.  1.
         -5    1    4    4    0  501  0.45256285098E+02  0.27585630577E+02  0.24739599391E+03  0.25304416326E+03  0.41800000000E+01 0.  1.
</event>
<event>
11    1  0.1078607E-008  0.1353260E+03  0.7561462E-02  0.1112893E+00
         22   -1    0    0    0    0  0.00000000000E+00  0.00000000000E+00  0.56944855698E+03  0.56944855698E+03  0.00000000000E+00 0.  1.
         22   -1    0    0    0    0 -0.00000000000E+00 -0.00000000000E+00 -0.23925591536E+03  0.23925591536E+03  0.00000000000E+00 0. -1.
         24    2    1    2    0    0 -0.18718457366E+02  0.97238831911E+01 -0.15756431150E+03  0.17772720761E+03  0.79470205210E+02 0.  0.
         25    2    1    2    0    0 -0.14990837868E+02 -0.49152609479E+02  0.10048825162E+00  0.13523836052E+03  0.12509476336E+03 0.  0.
        -24    2    1    2    0    0  0.33709295234E+02  0.39428726288E+02  0.48765646486E+03  0.49573890421E+03  0.72507188460E+02 0.  0.
        -11    1    3    3    0    0 -0.47683618386E+02 -0.74972695983E+01 -0.85823339523E+02  0.98466147080E+02  0.00000000000E+00 0.  1.
         12    1    3    3    0    0  0.28965161020E+02  0.17221152789E+02 -0.71740971974E+02  0.79261060528E+02  0.00000000000E+00 0. -1.
         13    1    5    5    0    0  0.40502426011E+02 -0.42760037504E+01  0.15961276861E+03  0.16472694565E+03  0.00000000000E+00 0. -1.
        -14    1    5    5    0    0 -0.67931307769E+01  0.43704730039E+02  0.32804369625E+03  0.33101195855E+03  0.00000000000E+00 0.  1.
          5    1    4    4  501    0  0.27752267909E+02 -0.65878959934E+02  0.32764796910E+02  0.78747889194E+02  0.41800000000E+01 0. -1.
         -5    1    4    4    0  501 -0.42743105777E+02  0.16726350454E+02 -0.32664308658E+02  0.56490471330E+02  0.41800000000E+01 0. -1.
</event>
<event>
11    1  0.1078607E-008  0.1479313E+03  0.7561462E-02  0.1099012E+00
         22   -1    0    0    0    0  0.00000000000E+00  0.00000000000E+00  0.13348282852E+04  0.13348282852E+04  0.00000000000E+00 0.  1.
         22   -1    0    0    0    0 -0.00000000000E+00 -0.00000000000E+00 -0.57536361901E+03  0.57536361901E+03  0.00000000000E+00 0.  1.
        -24    2    1    2    0    0 -0.23081985454E+02  0.84107158554E+01 -0.50010993615E+03  0.50669284744E+03  0.77615560450E+02 0.  0.
         25    2    1    2    0    0 -0.16211508620E+02 -0.77085279282E+02  0.93803538607E+01  0.14811950182E+03  0.12508574054E+03 0.  0.
         24    2    1    2    0    0  0.39293494074E+02  0.68674563426E+02  0.12501942485E+04  0.12553795549E+04  0.82048727588E+02 0.  0.
        -13    1    5    5    0    0 -0.23561557195E+02  0.30573801312E+02  0.54500915898E+03  0.54637431096E+03  0.00000000000E+00 0.  1.
         14    1    5    5    0    0  0.62855051269E+02  0.38100762114E+02  0.70518508948E+03  0.70900524396E+03  0.00000000000E+00 0. -1.
         13    1    3    3    0    0 -0.80295335332E+01 -0.28272813110E+02 -0.90156303033E+02  0.94826074191E+02  0.00000000000E+00 0. -1.
        -14    1    3    3    0    0 -0.15052451921E+02  0.36683528966E+02 -0.40995363311E+03  0.41186677325E+03  0.00000000000E+00 0.  1.
          5    1    4    4  501    0 -0.47115136573E+01  0.13729487379E+01 -0.49087918061E+02  0.49509387481E+02  0.41800000000E+01 0.  1.
         -5    1    4    4    0  501 -0.11499994962E+02 -0.78458228019E+02  0.58468271922E+02  0.98610114337E+02  0.41800000000E+01 0.  1.
</event>
<event>
11    1  0.1078607E-008  0.1580502E+03  0.7561462E-02  0.1088926E+00
         22   -1    0    0    0    0  0.00000000000E+00  0.00000000000E+00  0.47057065238E+03  0.47057065238E+03  0.00000000000E+00 0. -1.
         22   -1    0    0    0    0 -0.00000000000E+00 -0.00000000000E+00 -0.81760068588E+03  0.81760068588E+03  0.00000000000E+00 0. -1.
         24    2    1    2    0    0  0.42250571501E+02  0.22551276827E+02 -0.70732733573E+03  0.71366112915E+03  0.81893690243E+02 0.  0.
         25    2    1    2    0    0 -0.81415075078E+01 -0.11223307723E+03 -0.24409245723E+02  0.17001473044E+03  0.12508656810E+03 0.  0.
        -24    2    1    2    0    0 -0.34109063993E+02  0.89681800408E+02  0.38470654795E+03  0.40449547867E+03  0.80070035986E+02 0.  0.
        -11    1    3    3    0    0 -0.33403342833E+01  0.26958051278E+02 -0.76619791808E+02  0.81292600269E+02  0.00000000000E+00 0.  1.
         12    1    3    3    0    0  0.45590905784E+02 -0.44067744511E+01 -0.63070754392E+03  0.63236852888E+03  0.00000000000E+00 0. -1.
         11    1    5    5    0    0 -0.43781912056E+02  0.97925438399E+02  0.29507451799E+03  0.31396690666E+03  0.00000000000E+00 0. -1.
        -12    1    5    5    0    0  0.96728480629E+01 -0.82436379912E+01  0.89632029958E+02  0.90528572016E+02  0.00000000000E+00 0.  1.
          5    1    4    4  501    0 -0.62689499399E+02 -0.30349240088E+02 -0.10339817891E+02  0.70536755970E+02  0.41800000000E+01 0.  1.
         -5    1    4    4    0  501  0.54547991891E+02 -0.81883837147E+02 -0.14069427833E+02  0.99477974471E+02  0.41800000000E+01 0.  1.
</event>
<event>
11    1  0.1078607E-008  0.1582047E+03  0.7561462E-02  0.1088778E+00
         22   -1    0    0    0    0  0.00000000000E+00  0.00000000000E+00  0.16733373614E+03  0.16733373614E+03  0.00000000000E+00 0. -1.
         22   -1    0    0    0    0 -0.00000000000E+00 -0.00000000000E+00 -0.33125865304E+04  0.33125865304E+04  0.00000000000E+00 0.  1.
        -24    2    1    2    0    0  0.17497132509E+02  0.94365901266E+02 -0.31134725212E+04  0.31160128730E+04  0.81326572662E+02 0.  0.
         25    2    1    2    0    0  0.10398542084E+02 -0.13341417388E+03 -0.13448225263E+03  0.22724111281E+03  0.12508227536E+03 0.  0.
         24    2    1    2    0    0 -0.27895674592E+02  0.39048272611E+02  0.10270197955E+03  0.13666628076E+03  0.76335047241E+02 0.  0.
        -13    1    5    5    0    0 -0.13005187085E+02 -0.20425794946E+02  0.51038683215E+02  0.56491549586E+02  0.00000000000E+00 0.  1.
         14    1    5    5    0    0 -0.14890487507E+02  0.59474067558E+02  0.51663296337E+02  0.80174731172E+02  0.00000000000E+00 0. -1.
         11    1    3    3    0    0  0.28707673310E+02  0.73328770095E+01 -0.13825046475E+04  0.13828221151E+04  0.00000000000E+00 0. -1.
        -12    1    3    3    0    0 -0.11210540801E+02  0.87033024257E+02 -0.17309678737E+04  0.17331907579E+04  0.00000000000E+00 0.  1.
          5    1    4    4  501    0 -0.32140205676E+02 -0.13451757489E+03 -0.11640398580E+03  0.18081850316E+03  0.41800000000E+01 0.  1.
         -5    1    4    4    0  501  0.42538747759E+02  0.11034010164E+01 -0.18078266829E+02  0.46422609645E+02  0.41800000000E+01 0.  1.
</event>
<event>
11    1  0.1078607E-008  0.2132145E+03  0.7561462E-02  0.1045553E+00
         22   -1    0    0    0    0  0.00000000000E+00  0.00000000000E+00  0.70540442164E+03  0.70540442164E+03  0.00000000000E+00 0.  1.
         22   -1    0    0    0    0 -0.00000000000E+00 -0.00000000000E+00 -0.70805146305E+03  0.70805146305E+03  0.00000000000E+00 0.  1.
         24    2    1    2    0    0  0.17159354800E+02  0.18046135382E+02 -0.54986854668E+03  0.55629299238E+03  0.80537992805E+02 0.  0.
         25    2    1    2    0    0  0.15712823160E+03 -0.16114662976E+02 -0.67996902446E+02  0.21264869832E+03  0.12508767575E+03 0.  0.
        -24    2    1    2    0    0 -0.17428758640E+03 -0.19314724066E+01  0.61521840772E+03  0.64451419399E+03  0.80777247400E+02 0.  0.
        -11    1    3    3    0    0  0.11267749587E+02  0.18837168269E+02 -0.54991047477E+03  0.55034837271E+03  0.00000000000E+00 0.  1.
         12    1    3    3    0    0  0.58916052130E+01 -0.79103288655E+00  0.41928088949E-01  0.59446196664E+01  0.00000000000E+00 0. -1.
         13    1    5    5    0    0 -0.18962724804E+02  0.21751346694E+02  0.16890119557E+03  0.17134853335E+03  0.00000000000E+00 0. -1.
        -14    1    5    5    0    0 -0.15532486160E+03 -0.23682819100E+02  0.44631721215E+03  0.47316566064E+03  0.00000000000E+00 0.  1.
          5    1    4    4  501    0  0.87328439898E+02  0.44793235656E+02 -0.98911084834E+00  0.98240221477E+02  0.41800000000E+01 0.  1.
         -5    1    4    4    0  501  0.69799791704E+02 -0.60907898632E+02 -0.67007791598E+02  0.11440847684E+03  0.41800000000E+01 0.  1.
</event>
<event>
11    1  0.1078607E-008  0.1633821E+03  0.7561462E-02  0.1083939E+00
         22   -1    0    0    0    0  0.00000000000E+00  0.00000000000E+00  0.22603932233E+04  0.22603932233E+04  0.00000000000E+00 0. -1.
         22   -1    0    0    0    0 -0.00000000000E+00 -0.00000000000E+00 -0.24805199451E+04  0.24805199451E+04  0.00000000000E+00 0.  1.
         24    2    1    2    0    0  0.67179608898E+02  0.17986792184E+02 -0.24440188822E+04  0.24464679013E+04  0.84500124644E+02 0.  0.
         25    2    1    2    0    0 -0.17011008299E+02 -0.11131805861E+03  0.18015043330E+03  0.24654412405E+03  0.12509493160E+03 0.  0.
        -24    2    1    2    0    0 -0.50168600599E+02  0.93331266427E+02  0.20437417270E+04  0.20479011431E+04  0.76100140707E+02 0.  0.
        -13    1    3    3    0    0  0.77615976608E+02 -0.85556619226E+01 -0.15146298917E+04  0.15166414039E+04  0.00000000000E+00 0.  1.
         14    1    3    3    0    0 -0.10436367710E+02  0.26542454107E+02 -0.92938899044E+03  0.92982649736E+03  0.00000000000E+00 0. -1.
         13    1    5    5    0    0 -0.17755757166E+02  0.90832792921E+02  0.17314668898E+04  0.17339387110E+04  0.00000000000E+00 0. -1.
        -14    1    5    5    0    0 -0.32412843433E+02  0.24984735064E+01  0.31227483728E+03  0.31396243213E+03  0.00000000000E+00 0.  1.
          5    1    4    4  501    0 -0.58564366292E+01 -0.19479665196E+02 -0.18217268854E+02  0.27624201177E+02  0.41800000000E+01 0. -1.
         -5    1    4    4    0  501 -0.11154571670E+02 -0.91838393415E+02  0.19836770215E+03  0.21891992288E+03  0.41800000000E+01 0. -1.
</event>
<event>
11    1  0.1078607E-008  0.1621799E+03  0.7561462E-02  0.1085045E+00
         22   -1    0    0    0    0  0.00000000000E+00  0.00000000000E+00  0.20888606045E+03  0.20888606045E+03  0.00000000000E+00 0. -1.
         22   -1    0    0    0    0 -0.00000000000E+00 -0.00000000000E+00 -0.10356180275E+04  0.10356180275E+04  0.00000000000E+00 0.  1.
         24    2    1    2    0    0 -0.78977582579E+02  0.56915582450E+02 -0.75439013272E+03  0.76482763322E+03  0.79874865336E+02 0.  0.
         25    2    1    2    0    0  0.11018669880E+03 -0.88663896117E+02 -0.22978238476E+03  0.29740545546E+03  0.12509062925E+03 0.  0.
        -24    2    1    2    0    0 -0.31209116225E+02  0.31748313667E+02  0.15744055042E+03  0.18227099927E+03  0.80331973110E+02 0.  0.
        -13    1    3    3    0    0 -0.86012307362E+02  0.52011765215E+02 -0.74629970542E+03  0.75303824010E+03  0.00000000000E+00 0.  1.
         14    1    3    3    0    0  0.70347247834E+01  0.49038172351E+01 -0.80904272999E+01  0.11789393120E+02  0.00000000000E+00 0. -1.
         11    1    5    5    0    0 -0.41914179768E+02  0.39372931690E+01  0.14316795700E+03  0.14922923525E+03  0.00000000000E+00 0. -1.
        -12    1    5    5    0    0  0.10705063544E+02  0.27811020498E+02  0.14272593420E+02  0.33041764020E+02  0.00000000000E+00 0.  1.
          5    1    4    4  501    0  0.69293894146E+02 -0.54649031597E+02 -0.22744274475E+03  0.24399966180E+03  0.41800000000E+01 0. -1.
         -5    1    4    4    0  501  0.40892804657E+02 -0.34014864520E+02 -0.23396400058E+01  0.53405793659E+02  0.41800000000E+01 0. -1.
</event>
<event>
11    1  0.1078607E-008  0.1858219E+03  0.7561462E-02  0.1065029E+00
         22   -1    0    0    0    0  0.00000000000E+00  0.00000000000E+00  0.72167056280E+03  0.72167056280E+03  0.00000000000E+00 0. -1.
         22   -1    0    0    0    0 -0.00000000000E+00 -0.00000000000E+00 -0.15706598544E+04  0.15706598544E+04  0.00000000000E+00 0. -1.
        -24    2    1    2    0    0  0.87979629142E+01 -0.13947410570E+03 -0.14722822926E+04  0.14810749234E+04  0.80233093920E+02 0.  0.
         25    2    1    2    0    0  0.19703218095E+01  0.10016103843E+03 -0.20284252410E+02  0.16153919972E+03  0.12508935351E+03 0.  0.
         24    2    1    2    0    0 -0.10768284724E+02  0.39313067264E+02  0.64357725338E+03  0.64971629410E+03  0.79234516089E+02 0.  0.
        -11    1    5    5    0    0 -0.15804408916E+02  0.56844500969E+02  0.30537155204E+03  0.31101906924E+03  0.00000000000E+00 0.  1.
         12    1    5    5    0    0  0.50361241925E+01 -0.17531433705E+02  0.33820570134E+03  0.33869722487E+03  0.00000000000E+00 0. -1.
         11    1    3    3    0    0  0.14261503972E+02 -0.63593502014E+02 -0.10481058808E+04  0.10501302116E+04  0.00000000000E+00 0. -1.
        -12    1    3    3    0    0 -0.54635410577E+01 -0.75880603682E+02 -0.42417641175E+03  0.43094471175E+03  0.00000000000E+00 0.  1.
          5    1    4    4  501    0 -0.22207784064E+02  0.42798485642E+02  0.48608718611E+02  0.68594285266E+02  0.41800000000E+01 0.  1.
         -5    1    4    4    0  501  0.24178105873E+02  0.57362552790E+02 -0.68892971020E+02  0.92944914451E+02  0.41800000000E+01 0.  1.
</event>
<event>
11    1  0.1078607E-008  0.1437852E+03  0.7561462E-02  0.1103404E+00
         22   -1    0    0    0    0  0.00000000000E+00  0.00000000000E+00  0.43522450816E+03  0.43522450816E+03  0.00000000000E+00 0. -1.
         22   -1    0    0    0    0 -0.00000000000E+00 -0.00000000000E+00 -0.56376142911E+03  0.56376142911E+03  0.00000000000E+00 0. -1.
        -24    2    1    2    0    0  0.58149178244E+02  0.48748564360E+02 -0.39257707937E+03  0.40816812418E+03  0.82016491585E+02 0.  0.
         25    2    1    2    0    0 -0.56998686373E+02 -0.10642195665E+02 -0.12842658243E+03  0.18842507629E+03  0.12509402753E+03 0.  0.
         24    2    1    2    0    0 -0.11504918712E+01 -0.38106368695E+02  0.39246674086E+03  0.40239273679E+03  0.80226884357E+02 0.  0.
        -13    1    5    5    0    0 -0.97493478894E+01 -0.29594038946E+02  0.45107558741E+02  0.54822885559E+02  0.00000000000E+00 0.  1.
         14    1    5    5    0    0  0.85988560182E+01 -0.85123297485E+01  0.34735918212E+03  0.34756985124E+03  0.00000000000E+00 0. -1.
         11    1    3    3    0    0 -0.30804302849E+01  0.43222665961E+02 -0.23616757682E+03  0.24011000030E+03  0.00000000000E+00 0. -1.
        -12    1    3    3    0    0  0.61229608529E+02  0.55258983989E+01 -0.15640950256E+03  0.16805812389E+03  0.00000000000E+00 0.  1.
          5    1    4    4  501    0 -0.46525986006E+02 -0.65697561514E+02 -0.87017460128E+02  0.11861849658E+03  0.41800000000E+01 0. -1.
         -5    1    4    4    0  501 -0.10472700367E+02  0.55055365849E+02 -0.41409122306E+02  0.69806579718E+02  0.41800000000E+01 0. -1.
</event>
<event>
11    1  0.1078607E-008  0.2450039E+03  0.7561462E-02  0.1026595E+00
         22   -1    0    0    0    0  0.00000000000E+00  0.00000000000E+00  0.35230075149E+04  0.35230075149E+04  0.00000000000E+00 0. -1.
         22   -1    0    0    0    0 -0.00000000000E+00 -0.00000000000E+00 -0.30944093960E+03  0.30944093960E+03  0.00000000000E+00 0.  1.
        -24    2    1    2    0    0 -0.10817863138E+03 -0.17297225665E+03 -0.19532367173E+03  0.29287401439E+03  0.77471502560E+02 0.  0.
         25    2    1    2    0    0  0.16053918324E+03  0.19787407312E+03  0.24759762101E+03  0.37666938873E+03  0.12509303861E+03 0.  0.
         24    2    1    2    0    0 -0.52360551864E+02 -0.24901816470E+02  0.31612926260E+04  0.31629050513E+04  0.82677499082E+02 0.  0.
        -13    1    5    5    0    0 -0.23569820427E+00  0.99677312071E+01  0.50208428645E+02  0.51188841812E+02  0.00000000000E+00 0.  1.
         14    1    5    5    0    0 -0.52124853659E+02 -0.34869547677E+02  0.31110841973E+04  0.31117162095E+04  0.00000000000E+00 0. -1.
         13    1    3    3    0    0 -0.77519269715E+02 -0.16883694860E+03 -0.15436392718E+03  0.24154373187E+03  0.00000000000E+00 0. -1.
        -14    1    3    3    0    0 -0.30659361666E+02 -0.41353080511E+01 -0.40959744550E+02  0.51330282524E+02  0.00000000000E+00 0.  1.
          5    1    4    4  501    0  0.17822375193E+03  0.15879856430E+03  0.19226692639E+03  0.30653667506E+03  0.41800000000E+01 0. -1.
         -5    1    4    4    0  501 -0.17684568689E+02  0.39075508822E+02  0.55330694621E+02  0.70132713669E+02  0.41800000000E+01 0. -1.
</event>
<event>
11    1  0.1078607E-008  0.1635490E+03  0.7561462E-02  0.1083786E+00
         22   -1    0    0    0    0  0.00000000000E+00  0.00000000000E+00  0.14503987146E+04  0.14503987146E+04  0.00000000000E+00 0.  1.
         22   -1    0    0    0    0 -0.00000000000E+00 -0.00000000000E+00 -0.54855477918E+03  0.54855477918E+03  0.00000000000E+00 0.  1.
        -24    2    1    2    0    0 -0.61212764151E+02  0.84778957446E+02 -0.51771339900E+03  0.53439112828E+03  0.81315683402E+02 0.  0.
         25    2    1    2    0    0  0.51969921792E+02 -0.15837951562E+03  0.54666337641E+03  0.58504155701E+03  0.12509129701E+03 0.  0.
         24    2    1    2    0    0  0.92428423598E+01  0.73600558177E+02  0.87289395801E+03  0.87952080850E+03  0.78169804546E+02 0.  0.
        -13    1    5    5    0    0 -0.60926884298E+01  0.46098634952E+02  0.78097183438E+03  0.78235491377E+03  0.00000000000E+00 0.  1.
         14    1    5    5    0    0  0.15335530790E+02  0.27501923226E+02  0.91922123630E+02  0.97165894728E+02  0.00000000000E+00 0. -1.
         11    1    3    3    0    0 -0.42862601323E+00  0.10965199251E+02 -0.24776616076E+03  0.24800905172E+03  0.00000000000E+00 0. -1.
        -12    1    3    3    0    0 -0.60784138138E+02  0.73813758195E+02 -0.26994723823E+03  0.28638207656E+03  0.00000000000E+00 0.  1.
          5    1    4    4  501    0  0.23927474576E+02 -0.18810651576E+01  0.11872132180E+02  0.27101335174E+02  0.41800000000E+01 0. -1.
         -5    1    4    4    0  501  0.28042447215E+02 -0.15649845047E+03  0.53479124423E+03  0.55794022184E+03  0.41800000000E+01 0. -1.
</event>
<event>
11    1  0.1078607E-008  0.1457664E+03  0.7561462E-02  0.1101285E+00
         22   -1    0    0    0    0  0.00000000000E+00  0.00000000000E+00  0.31613427669E+03  0.31613427669E+03  0.00000000000E+00 0. -1.
         22   -1    0    0    0    0 -0.00000000000E+00 -0.00000000000E+00 -0.16022599082E+04  0.16022599082E+04  0.00000000000E+00 0. -1.
        -24    2    1    2    0    0 -0.31127559031E+02 -0.74568823218E+02 -0.15209792375E+04  0.15252064157E+04  0.79670165385E+02 0.  0.
         25    2    1    2    0    0 -0.49323472569E+02  0.60260921562E+02  0.18800639178E+02  0.14854364669E+03  0.12509023673E+03 0.  0.
         24    2    1    2    0    0  0.80451031601E+02  0.14307901656E+02  0.21605296682E+03  0.24464412250E+03  0.80590183435E+02 0.  0.
        -13    1    5    5    0    0 -0.76074470841E+01 -0.51011097647E+01  0.85431945970E+02  0.85921545401E+02  0.00000000000E+00 0.  1.
         14    1    5    5    0    0  0.88058478685E+02  0.19409011421E+02  0.13062102085E+03  0.15872257710E+03  0.00000000000E+00 0. -1.
         13    1    3    3    0    0 -0.71281725352E+01 -0.74467785923E+02 -0.13922994102E+04  0.13943076811E+04  0.00000000000E+00 0. -1.
        -14    1    3    3    0    0 -0.23999386496E+02 -0.10103729545E+00 -0.12867982738E+03  0.13089873466E+03  0.00000000000E+00 0.  1.
          5    1    4    4  501    0 -0.24121036677E+02  0.68452761202E+02  0.63424129002E+02  0.96476408859E+02  0.41800000000E+01 0. -1.
         -5    1    4    4    0  501 -0.25202435892E+02 -0.81918396400E+01 -0.44623489824E+02  0.52067237834E+02  0.41800000000E+01 0. -1.
</event>
<event>
11    1  0.1078607E-008  0.1557688E+03  0.7561462E-02  0.1091126E+00
         22   -1    0    0    0    0  0.00000000000E+00  0.00000000000E+00  0.35710594830E+03  0.35710594830E+03  0.00000000000E+00 0. -1.
         22   -1    0    0    0    0 -0.00000000000E+00 -0.00000000000E+00 -0.22209110049E+04  0.22209110049E+04  0.00000000000E+00 0.  1.
        -24    2    1    2    0    0 -0.26382458760E+02  0.83713292971E+02 -0.12498846248E+04  0.12555591186E+04  0.80704246656E+02 0.  0.
         25    2    1    2    0    0 -0.40461518503E+02 -0.11707094439E+03 -0.95134911277E+03  0.96749961458E+03  0.12509048465E+03 0.  0.
         24    2    1    2    0    0  0.66843977263E+02  0.33357651414E+02  0.33742868098E+03  0.35495822002E+03  0.80971433260E+02 0.  0.
        -13    1    5    5    0    0  0.46066382949E+02 -0.21992937906E+02  0.15606180398E+03  0.16419831795E+03  0.00000000000E+00 0.  1.
         14    1    5    5    0    0  0.20777594314E+02  0.55350589321E+02  0.18136687700E+03  0.19075990207E+03  0.00000000000E+00 0. -1.
         11    1    3    3    0    0 -0.33544599717E+02  0.21630774788E+02 -0.20757356229E+03  0.21137623885E+03  0.00000000000E+00 0. -1.
        -12    1    3    3    0    0  0.71621409564E+01  0.62082518184E+02 -0.10423110625E+04  0.10441828798E+04  0.00000000000E+00 0.  1.
          5    1    4    4  501    0 -0.42842327746E+02 -0.83286874000E+02 -0.90552340048E+03  0.91036381170E+03  0.41800000000E+01 0. -1.
         -5    1    4    4    0  501  0.23808092431E+01 -0.33784070386E+02 -0.45825712284E+02  0.57135802880E+02  0.41800000000E+01 0. -1.
</event>
<event>
11    1  0.1078607E-008  0.2189327E+03  0.7561462E-02  0.1041888E+00
         22   -1    0    0    0    0  0.00000000000E+00  0.00000000000E+00  0.39661593929E+02  0.39661593929E+02  0.00000000000E+00 0.  1.
         22   -1    0    0    0    0 -0.00000000000E+00 -0.00000000000E+00 -0.24140627201E+04  0.24140627201E+04  0.00000000000E+00 0. -1.
         24    2    1    2    0    0 -0.16801418691E+03  0.81546119613E+02 -0.14955118879E+04  0.15092595844E+04  0.80188214070E+02 0.  0.
         25    2    1    2    0    0  0.14964720856E+03 -0.72227741546E+02 -0.81132663515E+03  0.83756167984E+03  0.12509006735E+03 0.  0.
        -24    2    1    2    0    0  0.18366978346E+02 -0.93183780667E+01 -0.67562603155E+02  0.10690304981E+03  0.80245739137E+02 0.  0.
        -13    1    3    3    0    0 -0.84771420152E+01  0.12017444057E+02 -0.29584067791E+02  0.33037826282E+02  0.00000000000E+00 0.  1.
         14    1    3    3    0    0 -0.15953704490E+03  0.69528675556E+02 -0.14659278201E+04  0.14762217581E+04  0.00000000000E+00 0. -1.
         11    1    5    5    0    0  0.20646204634E+02 -0.35785612108E+02 -0.68863502454E+02  0.80306025739E+02  0.00000000000E+00 0. -1.
        -12    1    5    5    0    0 -0.22792262880E+01  0.26467234042E+02  0.13008992990E+01  0.26597024068E+02  0.00000000000E+00 0.  1.
          5    1    4    4  501    0  0.36271229184E+02 -0.62669592045E+02 -0.15129145699E+03  0.16777859575E+03  0.41800000000E+01 0.  1.
         -5    1    4    4    0  501  0.11337597938E+03 -0.95581495019E+01 -0.66003517816E+03  0.66978308409E+03  0.41800000000E+01 0.  1.
</event>
<event>
11    1  0.1078607E-008  0.2150488E+03  0.7561462E-02  0.1044364E+00
         22   -1    0    0    0    0  0.00000000000E+00  0.00000000000E+00  0.55618751012E+03  0.55618751012E+03  0.00000000000E+00 0.  1.
         22   -1    0    0    0    0 -0.00000000000E+00 -0.00000000000E+00 -0.15231589287E+03  0.15231589287E+03  0.00000000000E+00 0. -1.
        -24    2    1    2    0    0 -0.37644900806E+02  0.14152357106E+03  0.22527083999E+03  0.28113861481E+03  0.82740012487E+02 0.  0.
         25    2    1    2    0    0 -0.63075051156E+02 -0.19226723715E+03  0.61278455946E+02  0.24565854676E+03  0.12509164590E+03 0.  0.
         24    2    1    2    0    0  0.10071995196E+03  0.50743666089E+02  0.11732232131E+03  0.18170624142E+03  0.80828229735E+02 0.  0.
        -11    1    5    5    0    0  0.36987091375E+02  0.10499909535E+02  0.95938843672E+02  0.10335644515E+03  0.00000000000E+00 0.  1.
         12    1    5    5    0    0  0.63732860587E+02  0.40243756555E+02  0.21383477643E+02  0.78349796275E+02  0.00000000000E+00 0. -1.
         13    1    3    3    0    0  0.14616685063E+02  0.63919040885E+02  0.49995836172E+02  0.82455290336E+02  0.00000000000E+00 0. -1.
        -14    1    3    3    0    0 -0.52261585869E+02  0.77604530172E+02  0.17527500382E+03  0.19868332448E+03  0.00000000000E+00 0.  1.
          5    1    4    4  501    0  0.92994017606E+01 -0.15498736306E+03  0.51070797122E+02  0.16350308957E+03  0.41800000000E+01 0. -1.
         -5    1    4    4    0  501 -0.72374452917E+02 -0.37279874091E+02  0.10207658823E+02  0.82155457189E+02  0.41800000000E+01 0. -1.
</event>
<event>
11    1  0.1078607E-008  0.2671139E+03  0.7561462E-02  0.1015158E+00
         22   -1    0    0    0    0  0.00000000000E+00  0.00000000000E+00  0.16815019749E+04  0.16815019749E+04  0.00000000000E+00 0. -1.
         22   -1    0    0    0    0 -0.00000000000E+00 -0.00000000000E+00 -0.69868963682E+03  0.69868963682E+03  0.00000000000E+00 0.  1.
         24    2    1    2    0    0 -0.23336776620E+03  0.30120493354E+02 -0.61868962119E+03  0.66680899531E+03  0.80558242539E+02 0.  0.
         25    2    1    2    0    0  0.25179245916E+03  0.25449420258E+02  0.31483403889E+03  0.42286548444E+03  0.12509048888E+03 0.  0.
        -24    2    1    2    0    0 -0.18424692953E+02 -0.55569913612E+02  0.12866679204E+04  0.12905171320E+04  0.80576956620E+02 0.  0.
        -11    1    3    3    0    0 -0.22638314961E+03  0.23017243720E+02 -0.51987816024E+03  0.56749663033E+03  0.00000000000E+00 0.  1.
         12    1    3    3    0    0 -0.69846165878E+01  0.71032496336E+01 -0.98811460949E+02  0.99312364986E+02  0.00000000000E+00 0. -1.
         11    1    5    5    0    0 -0.48387165453E+02 -0.48129492133E+02  0.94220745781E+03  0.94467595468E+03  0.00000000000E+00 0. -1.
        -12    1    5    5    0    0  0.29962472500E+02 -0.74404214787E+01  0.34446046259E+03  0.34584117730E+03  0.00000000000E+00 0.  1.
          5    1    4    4  501    0  0.10767456938E+03  0.73351468052E+02  0.14804947002E+03  0.19725711325E+03  0.41800000000E+01 0. -1.
         -5    1    4    4    0  501  0.14411788978E+03 -0.47902047794E+02  0.16678456888E+03  0.22560837119E+03  0.41800000000E+01 0. -1.
</event>
<event>
11    1  0.1078607E-008  0.1781603E+03  0.7561462E-02  0.1071141E+00
         22   -1    0    0    0    0  0.00000000000E+00  0.00000000000E+00  0.25593802888E+03  0.25593802888E+03  0.00000000000E+00 0. -1.
         22   -1    0    0    0    0 -0.00000000000E+00 -0.00000000000E+00 -0.20606818000E+04  0.20606818000E+04  0.00000000000E+00 0.  1.
         24    2    1    2    0    0  0.39996906688E+02  0.97616021806E+02 -0.14635510004E+04  0.14695504582E+04  0.80426227159E+02 0.  0.
         25    2    1    2    0    0 -0.73723433813E+02 -0.21535194969E+03 -0.53963892526E+03  0.59888996794E+03  0.12508963632E+03 0.  0.
        -24    2    1    2    0    0  0.33726527125E+02  0.11773592788E+03  0.19844615457E+03  0.24817940276E+03  0.84928866383E+02 0.  0.
        -13    1    3    3    0    0  0.60338750195E+02  0.92844380498E+02 -0.12907665552E+04  0.12955072921E+04  0.00000000000E+00 0.  1.
         14    1    3    3    0    0 -0.20341843508E+02  0.47716413075E+01 -0.17278444521E+03  0.17404316609E+03  0.00000000000E+00 0. -1.
         11    1    5    5    0    0  0.51119761189E+02  0.99440514806E+02  0.19190537491E+03  0.22210204612E+03  0.00000000000E+00 0. -1.
        -12    1    5    5    0    0 -0.17393234063E+02  0.18295413079E+02  0.65407796505E+01  0.26077356640E+02  0.00000000000E+00 0.  1.
          5    1    4    4  501    0 -0.19380523227E+02 -0.93146758532E+02 -0.37411130288E+03  0.38604230681E+03  0.41800000000E+01 0.  1.
         -5    1    4    4    0  501 -0.54342910586E+02 -0.12220519116E+03 -0.16552762238E+03  0.21284766113E+03  0.41800000000E+01 0.  1.
</event>
<event>
11    1  0.1078607E-008  0.1333106E+03  0.7561462E-02  0.1115267E+00
         22   -1    0    0    0    0  0.00000000000E+00  0.00000000000E+00  0.47813834979E+02  0.47813834979E+02  0.00000000000E+00 0.  1.
         22   -1    0    0    0    0 -0.00000000000E+00 -0.00000000000E+00 -0.23077248905E+04  0.23077248905E+04  0.00000000000E+00 0. -1.
        -24    2    1    2    0    0  0.34329174330E+02 -0.15642044585E+02 -0.19213371200E+04  0.19228090451E+04  0.65077873093E+02 0.  0.
         25    2    1    2    0    0 -0.67851973924E+02 -0.10952340748E+02 -0.30390873703E+03  0.33575698306E+03  0.12509351340E+03 0.  0.
         24    2    1    2    0    0  0.33522799594E+02  0.26594385334E+02 -0.34665198474E+02  0.96972697278E+02  0.79818472851E+02 0.  0.
        -13    1    5    5    0    0  0.48593713293E+02 -0.42256249690E+00  0.24474022194E+01  0.48657140363E+02  0.00000000000E+00 0.  1.
         14    1    5    5    0    0 -0.15070913699E+02  0.27016947830E+02 -0.37112600693E+02  0.48315556915E+02  0.00000000000E+00 0. -1.
         13    1    3    3    0    0 -0.94134230991E+01 -0.20381294122E+02 -0.11492645326E+04  0.11494837865E+04  0.00000000000E+00 0. -1.
        -14    1    3    3    0    0  0.43742597429E+02  0.47392495364E+01 -0.77207258741E+03  0.77332525858E+03  0.00000000000E+00 0.  1.
          5    1    4    4  501    0 -0.87163772057E+02  0.29422699503E+02 -0.24443474355E+03  0.26120688096E+03  0.41800000000E+01 0. -1.
         -5    1    4    4    0  501  0.19311798133E+02 -0.40375040251E+02 -0.59473993479E+02  0.74550102097E+02  0.41800000000E+01 0. -1.
</event>
<event>
11    1  0.1078607E-008  0.1816179E+03  0.7561462E-02  0.1068342E+00
         22   -1    0    0    0    0  0.00000000000E+00  0.00000000000E+00  0.18232180199E+03  0.18232180199E+03  0.00000000000E+00 0. -1.
         22   -1    0    0    0    0 -0.00000000000E+00 -0.00000000000E+00 -0.94525292855E+03  0.94525292855E+03  0.00000000000E+00 0.  1.
        -24    2    1    2    0    0  0.12486497273E+03  0.59036329959E+02 -0.75469913742E+03  0.77143364991E+03  0.80389915581E+02 0.  0.
         25    2    1    2    0    0 -0.68264678319E+02 -0.84409995143E+02 -0.12048638794E+03  0.20481584762E+03  0.12508976045E+03 0.  0.
         24    2    1    2    0    0 -0.56600294413E+02  0.25373665184E+02  0.11225439880E+03  0.15132523302E+03  0.80317245261E+02 0.  0.
        -13    1    5    5    0    0 -0.13874405022E+02 -0.28129965822E+01 -0.10959008059E+02  0.17902846760E+02  0.00000000000E+00 0.  1.
         14    1    5    5    0    0 -0.42725889391E+02  0.28186661767E+02  0.12321340686E+03  0.13342238626E+03  0.00000000000E+00 0. -1.
         11    1    3    3    0    0  0.12940514178E+01  0.74032307092E+01 -0.33260703573E+01  0.82185849164E+01  0.00000000000E+00 0. -1.
        -12    1    3    3    0    0  0.12357092131E+03  0.51633099249E+02 -0.75137306706E+03  0.76321506499E+03  0.00000000000E+00 0.  1.
          5    1    4    4  501    0 -0.64638643417E+02 -0.93689503619E+01 -0.11115910516E+03  0.12899515694E+03  0.41800000000E+01 0. -1.
         -5    1    4    4    0  501 -0.36260349026E+01 -0.75041044781E+02 -0.93272827840E+01  0.75820690679E+02  0.41800000000E+01 0. -1.
</event>
<event>
11    1  0.1078607E-008  0.1427730E+03  0.7561462E-02  0.1104501E+00
         22   -1    0    0    0    0  0.00000000000E+00  0.00000000000E+00  0.31962914121E+03  0.31962914121E+03  0.00000000000E+00 0. -1.
         22   -1    0    0    0    0 -0.00000000000E+00 -0.00000000000E+00 -0.64370495808E+03  0.64370495808E+03  0.00000000000E+00 0. -1.
         24    2    1    2    0    0 -0.23693180238E+02 -0.21350653365E+01 -0.57457898497E+03  0.58055734667E+03  0.79623473340E+02 0.  0.
         25    2    1    2    0    0  0.39246899532E+02  0.67532300325E+02  0.48596835813E+02  0.15527437807E+03  0.12509016478E+03 0.  0.
        -24    2    1    2    0    0 -0.15553719294E+02 -0.65397234989E+02  0.20190633229E+03  0.22750237455E+03  0.80451518809E+02 0.  0.
        -11    1    3    3    0    0 -0.15764173428E+02 -0.26842663044E+02 -0.89026947505E+02  0.94312433460E+02  0.00000000000E+00 0.  1.
         12    1    3    3    0    0 -0.79290068095E+01  0.24707597707E+02 -0.48555203747E+03  0.48624491321E+03  0.00000000000E+00 0. -1.
         11    1    5    5    0    0 -0.15684947592E+02 -0.80479992692E+02  0.19368097969E+03  0.21032205947E+03  0.00000000000E+00 0. -1.
        -12    1    5    5    0    0  0.13122829783E+00  0.15082757704E+02  0.82253525926E+01  0.17180315075E+02  0.00000000000E+00 0.  1.
          5    1    4    4  501    0 -0.10989156478E+02  0.33492804865E+02 -0.36342805520E+02  0.50801589059E+02  0.41800000000E+01 0. -1.
         -5    1    4    4    0  501  0.50236056010E+02  0.34039495461E+02  0.84939641333E+02  0.10447278901E+03  0.41800000000E+01 0. -1.
</event>
<event>
11    1  0.1078607E-008  0.1547897E+03  0.7561462E-02  0.1092083E+00
         22   -1    0    0    0    0  0.00000000000E+00  0.00000000000E+00  0.46182336135E+03  0.46182336135E+03  0.00000000000E+00 0. -1.
         22   -1    0    0    0    0 -0.00000000000E+00 -0.00000000000E+00 -0.10076361034E+03  0.10076361034E+03  0.00000000000E+00 0.  1.
         24    2    1    2    0    0 -0.85153070770E+02  0.10530124138E+02  0.63359603290E+01  0.12095513300E+03  0.85018061783E+02 0.  0.
         25    2    1    2    0    0  0.10472703817E+03 -0.36604371412E+02  0.17970753580E+03  0.24545735005E+03  0.12508748833E+03 0.  0.
        -24    2    1    2    0    0 -0.19573967399E+02  0.26074247274E+02  0.17501625489E+03  0.19617448865E+03  0.82405909687E+02 0.  0.
        -13    1    3    3    0    0 -0.25940608386E+02 -0.34560566704E+02 -0.10884463612E+02  0.44562534515E+02  0.00000000000E+00 0.  1.
         14    1    3    3    0    0 -0.59212462384E+02  0.45090690842E+02  0.17220423941E+02  0.76392598483E+02  0.00000000000E+00 0. -1.
         13    1    5    5    0    0 -0.51823374101E+02  0.12313590174E+02  0.97629088041E+02  0.11121477167E+03  0.00000000000E+00 0. -1.
        -14    1    5    5    0    0  0.32249406702E+02  0.13760657100E+02  0.77387166844E+02  0.84959716976E+02  0.00000000000E+00 0.  1.
          5    1    4    4  501    0  0.67547861424E+02  0.27984892200E+02  0.31918532500E+02  0.79888252524E+02  0.41800000000E+01 0.  1.
         -5    1    4    4    0  501  0.37179176745E+02 -0.64589263612E+02  0.14778900330E+03  0.16556909752E+03  0.41800000000E+01 0.  1.
</event>
<event>
11    1  0.1078607E-008  0.1499178E+03  0.7561462E-02  0.1096963E+00
         22   -1    0    0    0    0  0.00000000000E+00  0.00000000000E+00  0.14731230358E+03  0.14731230358E+03  0.00000000000E+00 0. -1.
         22   -1    0    0    0    0 -0.00000000000E+00 -0.00000000000E+00 -0.14419105131E+04  0.14419105131E+04  0.00000000000E+00 0.  1.
        -24    2    1    2    0    0  0.46052223843E+02 -0.55698612773E+02 -0.68997595638E+03  0.69854517733E+03  0.81703130921E+02 0.  0.
         25    2    1    2    0    0 -0.80388426593E+02  0.68558518258E+02 -0.72476806121E+03  0.74303369389E+03  0.12509099947E+03 0.  0.
         24    2    1    2    0    0  0.34336202749E+02 -0.12859905485E+02  0.12014580804E+03  0.14764394549E+03  0.77584582624E+02 0.  0.
        -13    1    5    5    0    0  0.34160680788E+02 -0.36954149529E+02  0.41000730595E+02  0.64912411668E+02  0.00000000000E+00 0.  1.
         14    1    5    5    0    0  0.17552196103E+00  0.24094244044E+02  0.79145077448E+02  0.82731533821E+02  0.00000000000E+00 0. -1.
         11    1    3    3    0    0  0.14185594702E+02  0.18789165434E+02 -0.25530900389E+03  0.25639218261E+03  0.00000000000E+00 0. -1.
        -12    1    3    3    0    0  0.31866629141E+02 -0.74487778207E+02 -0.43466695248E+03  0.44215299472E+03  0.00000000000E+00 0.  1.
          5    1    4    4  501    0 -0.50947720663E+02 -0.26253053392E+02 -0.37677742342E+03  0.38113461172E+03  0.41800000000E+01 0. -1.
         -5    1    4    4    0  501 -0.29440705929E+02  0.94811571650E+02 -0.34799063778E+03  0.36189908216E+03  0.41800000000E+01 0. -1.
</event>
<event>
11    1  0.1078607E-008  0.1581279E+03  0.7561462E-02  0.1088851E+00
         22   -1    0    0    0    0  0.00000000000E+00  0.00000000000E+00  0.16122434823E+03  0.16122434823E+03  0.00000000000E+00 0. -1.
         22   -1    0    0    0    0 -0.00000000000E+00 -0.00000000000E+00 -0.15628060009E+04  0.15628060009E+04  0.00000000000E+00 0.  1.
        -24    2    1    2    0    0  0.27942551124E+02  0.70299966321E+01 -0.10446571137E+04  0.10486692912E+04  0.86997643790E+02 0.  0.
         25    2    1    2    0    0  0.52536615415E+02  0.49090852160E+02 -0.47900480068E+03  0.50026285445E+03  0.12508923514E+03 0.  0.
         24    2    1    2    0    0 -0.80479166539E+02 -0.56120848792E+02  0.12208026173E+03  0.17509820348E+03  0.78290131178E+02 0.  0.
        -13    1    5    5    0    0 -0.37259458036E+02  0.16073497260E+02  0.49251115002E+02  0.63814550505E+02  0.00000000000E+00 0.  1.
         14    1    5    5    0    0 -0.43219708503E+02 -0.72194346052E+02  0.72829146730E+02  0.11128365297E+03  0.00000000000E+00 0. -1.
         13    1    3    3    0    0  0.48676116210E+02 -0.18858657554E+02 -0.80991511773E+03  0.81159565745E+03  0.00000000000E+00 0. -1.
        -14    1    3    3    0    0 -0.20733565086E+02  0.25888654186E+02 -0.23474199600E+03  0.23707363376E+03  0.00000000000E+00 0.  1.
          5    1    4    4  501    0  0.35513644046E+02  0.90972578082E+02 -0.35485452004E+03  0.36807123179E+03  0.41800000000E+01 0. -1.
         -5    1    4    4    0  501  0.17022971368E+02 -0.41881725923E+02 -0.12415028064E+03  0.13219162266E+03  0.41800000000E+01 0. -1.
</event>
<event>
11    1  0.1078607E-008  0.1313895E+03  0.7561462E-02  0.1117573E+00
         22   -1    0    0    0    0  0.00000000000E+00  0.00000000000E+00  0.17841954663E+04  0.17841954663E+04  0.00000000000E+00 0.  1.
         22   -1    0    0    0    0 -0.00000000000E+00 -0.00000000000E+00 -0.31262535912E+03  0.31262535912E+03  0.00000000000E+00 0.  1.
        -24    2    1    2    0    0 -0.23235214744E+02 -0.15145474563E+02 -0.26301559710E+03  0.27643002957E+03  0.80418258676E+02 0.  0.
         25    2    1    2    0    0  0.62684138919E+02  0.11735022854E+02  0.76503016375E+02  0.15989300234E+03  0.12508416627E+03 0.  0.
         24    2    1    2    0    0 -0.39448924174E+02  0.34104517086E+01  0.16580826879E+04  0.16604977935E+04  0.80292424944E+02 0.  0.
        -11    1    5    5    0    0 -0.32367257489E+02  0.30306193373E+02  0.14354388853E+04  0.14361235664E+04  0.00000000000E+00 0.  1.
         12    1    5    5    0    0 -0.70816666855E+01 -0.26895741664E+02  0.22264380257E+03  0.22437422701E+03  0.00000000000E+00 0. -1.
         13    1    3    3    0    0 -0.22083246623E+02 -0.12252679411E+02 -0.17110451869E+02  0.30505171649E+02  0.00000000000E+00 0. -1.
        -14    1    3    3    0    0 -0.11519681211E+01 -0.28927951513E+01 -0.24590514523E+03  0.24592485792E+03  0.00000000000E+00 0.  1.
          5    1    4    4  501    0 -0.18257914267E+02 -0.33336509964E+01 -0.23535616156E+02  0.30263216785E+02  0.41800000000E+01 0. -1.
         -5    1    4    4    0  501  0.80942053186E+02  0.15068673850E+02  0.10003863253E+03  0.12962978556E+03  0.41800000000E+01 0. -1.
</event>
<event>
11    1  0.1078607E-008  0.1278533E+03  0.7561462E-02  0.1121935E+00
         22   -1    0    0    0    0  0.00000000000E+00  0.00000000000E+00  0.63946414978E+02  0.63946414978E+02  0.00000000000E+00 0. -1.
         22   -1    0    0    0    0 -0.00000000000E+00 -0.00000000000E+00 -0.89497636608E+03  0.89497636608E+03  0.00000000000E+00 0. -1.
        -24    2    1    2    0    0  0.22910946131E+02  0.87592310368E+01 -0.62306945010E+03  0.62884451747E+03  0.81414076981E+02 0.  0.
         25    2    1    2    0    0 -0.67996218964E+01  0.15905475868E+02 -0.20919585390E+03  0.24435549120E+03  0.12508989475E+03 0.  0.
         24    2    1    2    0    0 -0.16111324234E+02 -0.24664706905E+02  0.12353528943E+01  0.85722772392E+02  0.80491894465E+02 0.  0.
        -13    1    5    5    0    0  0.82902947552E+01 -0.45919202400E+02 -0.15657531573E+02  0.49218496839E+02  0.00000000000E+00 0.  1.
         14    1    5    5    0    0 -0.24401618989E+02  0.21254495495E+02  0.16892884467E+02  0.36504275553E+02  0.00000000000E+00 0. -1.
         11    1    3    3    0    0 -0.90233587873E+01 -0.16441110211E+02 -0.47263185326E+03  0.47300380530E+03  0.00000000000E+00 0. -1.
        -12    1    3    3    0    0  0.31934304918E+02  0.25200341248E+02 -0.15043759684E+03  0.15584071218E+03  0.00000000000E+00 0.  1.
          5    1    4    4  501    0  0.20883362961E+02  0.50640055360E+02 -0.36418655959E+02  0.65911463018E+02  0.41800000000E+01 0. -1.
         -5    1    4    4    0  501 -0.27682984857E+02 -0.34734579491E+02 -0.17277719795E+03  0.17844402818E+03  0.41800000000E+01 0. -1.
</event>
<event>
11    1  0.1078607E-008  0.1313560E+03  0.7561462E-02  0.1117614E+00
         22   -1    0    0    0    0  0.00000000000E+00  0.00000000000E+00  0.17534756330E+04  0.17534756330E+04  0.00000000000E+00 0.  1.
         22   -1    0    0    0    0 -0.00000000000E+00 -0.00000000000E+00 -0.56169424672E+02  0.56169424672E+02  0.00000000000E+00 0. -1.
         24    2    1    2    0    0  0.41998523846E+00 -0.91889210708E+01 -0.46892843716E+00  0.81776595877E+02  0.81256255644E+02 0.  0.
         25    2    1    2    0    0  0.31362508753E+02 -0.16166465937E+02  0.29739270402E+03  0.32455500613E+03  0.12509424457E+03 0.  0.
        -24    2    1    2    0    0 -0.31782493992E+02  0.25355387008E+02  0.14003824327E+04  0.14033134557E+04  0.81022677909E+02 0.  0.
        -11    1    3    3    0    0  0.38706922785E+02 -0.10091474031E+01  0.12249655897E+02  0.40611554016E+02  0.00000000000E+00 0.  1.
         12    1    3    3    0    0 -0.38286937546E+02 -0.81797736677E+01 -0.12718584335E+02  0.41165041861E+02  0.00000000000E+00 0. -1.
         13    1    5    5    0    0 -0.24092249520E+02  0.26503912265E+02  0.21932265238E+03  0.22222808036E+03  0.00000000000E+00 0. -1.
        -14    1    5    5    0    0 -0.76902444718E+01 -0.11485252573E+01  0.11810597804E+04  0.11810853753E+04  0.00000000000E+00 0.  1.
          5    1    4    4  501    0 -0.30435354101E+02 -0.50370490908E+02  0.12587682333E+03  0.13901778370E+03  0.41800000000E+01 0.  1.
         -5    1    4    4    0  501  0.61797862854E+02  0.34204024971E+02  0.17151588069E+03  0.18553722243E+03  0.41800000000E+01 0.  1.
</event>
<event>
11    1  0.1078607E-008  0.1816149E+03  0.7561462E-02  0.1068344E+00
         22   -1    0    0    0    0  0.00000000000E+00  0.00000000000E+00  0.13713784340E+04  0.13713784340E+04  0.00000000000E+00 0. -1.
         22   -1    0    0    0    0 -0.00000000000E+00 -0.00000000000E+00 -0.14678586508E+03  0.14678586508E+03  0.00000000000E+00 0.  1.
         24    2    1    2    0    0 -0.10755047160E+02 -0.12674902699E+03 -0.54018676859E+02  0.16233377393E+03  0.85166013332E+02 0.  0.
         25    2    1    2    0    0  0.22826103661E+02  0.15235841488E+03  0.23179311851E+03  0.30513801935E+03  0.12508814280E+03 0.  0.
        -24    2    1    2    0    0 -0.12071056502E+02 -0.25609387895E+02  0.10468181273E+04  0.10506925058E+04  0.85586208094E+02 0.  0.
        -13    1    3    3    0    0 -0.13666653103E+01 -0.12352852313E+03 -0.71131256188E+02  0.14255111157E+03  0.00000000000E+00 0.  1.
         14    1    3    3    0    0 -0.93883818494E+01 -0.32205038508E+01  0.17112579329E+02  0.19782662361E+02  0.00000000000E+00 0. -1.
         13    1    5    5    0    0 -0.27392195225E+02 -0.22485123648E+02  0.10108685816E+04  0.10114895958E+04  0.00000000000E+00 0. -1.
        -14    1    5    5    0    0  0.15321138723E+02 -0.31242642469E+01  0.35949545672E+02  0.39202910005E+02  0.00000000000E+00 0.  1.
          5    1    4    4  501    0  0.71336845172E+02  0.10541048544E+03  0.17721228732E+03  0.21822461616E+03  0.41800000000E+01 0.  1.
         -5    1    4    4    0  501 -0.48510741511E+02  0.46947929444E+02  0.54580831187E+02  0.86913403190E+02  0.41800000000E+01 0.  1.
</event>
<event>
11    1  0.1078607E-008  0.1299246E+03  0.7561462E-02  0.1119362E+00
         22   -1    0    0    0    0  0.00000000000E+00  0.00000000000E+00  0.15734451893E+03  0.15734451893E+03  0.00000000000E+00 0. -1.
         22   -1    0    0    0    0 -0.00000000000E+00 -0.00000000000E+00 -0.98948501876E+03  0.98948501876E+03  0.00000000000E+00 0.  1.
        -24    2    1    2    0    0 -0.38594250620E+02 -0.56792079004E+01 -0.76717818454E+03  0.77308422043E+03  0.87034909423E+02 0.  0.
         25    2    1    2    0    0  0.85453005364E+01  0.83072061731E+01 -0.18672935979E+03  0.22507310551E+03  0.12509203484E+03 0.  0.
         24    2    1    2    0    0  0.30048950083E+02 -0.26279982727E+01  0.12176704450E+03  0.14867221176E+03  0.79789520909E+02 0.  0.
        -11    1    5    5    0    0  0.31212742734E+02  0.27766238999E+02  0.28501357371E+02  0.50571995305E+02  0.00000000000E+00 0.  1.
         12    1    5    5    0    0 -0.11637926502E+01 -0.30394237272E+02  0.93265687128E+02  0.98100216453E+02  0.00000000000E+00 0. -1.
         11    1    3    3    0    0 -0.10242071960E+02  0.39272429641E+02 -0.26307976105E+03  0.26619200672E+03  0.00000000000E+00 0. -1.
        -12    1    3    3    0    0 -0.28352178660E+02 -0.44951637541E+02 -0.50409842350E+03  0.50689221372E+03  0.00000000000E+00 0.  1.
          5    1    4    4  501    0  0.22425250504E+02 -0.54503311380E+02 -0.68907225706E+02  0.90769934263E+02  0.41800000000E+01 0. -1.
         -5    1    4    4    0  501 -0.13879949968E+02  0.62810517553E+02 -0.11782213408E+03  0.13430317124E+03  0.41800000000E+01 0. -1.
</event>
<event>
11    1  0.1078607E-008  0.1301980E+03  0.7561462E-02  0.1119026E+00
         22   -1    0    0    0    0  0.00000000000E+00  0.00000000000E+00  0.14599502503E+04  0.14599502503E+04  0.00000000000E+00 0.  1.
         22   -1    0    0    0    0 -0.00000000000E+00 -0.00000000000E+00 -0.28729914683E+03  0.28729914683E+03  0.00000000000E+00 0. -1.
         24    2    1    2    0    0  0.25784334820E+02 -0.29497655583E+02 -0.20035918380E+03  0.21921563169E+03  0.79854536740E+02 0.  0.
         25    2    1    2    0    0  0.34674646802E+01  0.26634475757E+02 -0.22404769310E+02  0.12988870697E+03  0.12509070269E+03 0.  0.
        -24    2    1    2    0    0 -0.29251799500E+02  0.28631798258E+01  0.13954150565E+04  0.13981450584E+04  0.82234778735E+02 0.  0.
        -13    1    3    3    0    0 -0.20059234911E+02  0.18572320910E+01 -0.13433763858E+02  0.24213389430E+02  0.00000000000E+00 0.  1.
         14    1    3    3    0    0  0.45843569732E+02 -0.31354887674E+02 -0.18692541994E+03  0.19500224226E+03  0.00000000000E+00 0. -1.
         13    1    5    5    0    0 -0.33635370663E+02  0.38139360005E+02  0.91884016149E+03  0.92024626666E+03  0.00000000000E+00 0. -1.
        -14    1    5    5    0    0  0.43835711624E+01 -0.35276180180E+02  0.47657489505E+03  0.47789879177E+03  0.00000000000E+00 0.  1.
          5    1    4    4  501    0  0.28195663143E+02  0.58566253661E+02 -0.48863691708E+02  0.81425636352E+02  0.41800000000E+01 0. -1.
         -5    1    4    4    0  501 -0.24728198463E+02 -0.31931777904E+02  0.26458922398E+02  0.48463070619E+02  0.41800000000E+01 0. -1.
</event>
<event>
11    1  0.1078607E-008  0.1346408E+03  0.7561462E-02  0.1113695E+00
         22   -1    0    0    0    0  0.00000000000E+00  0.00000000000E+00  0.47625120735E+02  0.47625120735E+02  0.00000000000E+00 0. -1.
         22   -1    0    0    0    0 -0.00000000000E+00 -0.00000000000E+00 -0.17967447938E+04  0.17967447938E+04  0.00000000000E+00 0.  1.
         24    2    1    2    0    0  0.51910909696E+02 -0.67087319795E-01 -0.14514008908E+04  0.14547070267E+04  0.83145901254E+02 0.  0.
         25    2    1    2    0    0 -0.31382290472E+02 -0.47014471676E+01 -0.27373486920E+03  0.30263070396E+03  0.12509041773E+03 0.  0.
        -24    2    1    2    0    0 -0.20528619223E+02  0.47685344874E+01 -0.23983913117E+02  0.87032183842E+02  0.80964250182E+02 0.  0.
        -13    1    3    3    0    0  0.24538646204E+01 -0.40626096593E+01 -0.10795375825E+04  0.10795480157E+04  0.00000000000E+00 0.  1.
         14    1    3    3    0    0  0.49457045075E+02  0.39955223395E+01 -0.37186330831E+03  0.37515901105E+03  0.00000000000E+00 0. -1.
         13    1    5    5    0    0  0.14433256822E+02 -0.46880492880E+01  0.23094375664E+02  0.27634161755E+02  0.00000000000E+00 0. -1.
        -14    1    5    5    0    0 -0.34961876045E+02  0.94565837753E+01 -0.47078288781E+02  0.59398022087E+02  0.00000000000E+00 0.  1.
          5    1    4    4  501    0  0.35350335399E+02 -0.39597966313E+02 -0.12491981008E+03  0.13579424325E+03  0.41800000000E+01 0.  1.
         -5    1    4    4    0  501 -0.66732625871E+02  0.34896519145E+02 -0.14881505911E+03  0.16683646071E+03  0.41800000000E+01 0.  1.
</event>
<event>
11    1  0.1078607E-008  0.3343545E+03  0.7561462E-02  0.9866161E-01
         22   -1    0    0    0    0  0.00000000000E+00  0.00000000000E+00  0.81901221380E+03  0.81901221380E+03  0.00000000000E+00 0. -1.
         22   -1    0    0    0    0 -0.00000000000E+00 -0.00000000000E+00 -0.51930113526E+03  0.51930113526E+03  0.00000000000E+00 0. -1.
        -24    2    1    2    0    0 -0.75163613520E+02 -0.36039918652E+03 -0.33463433582E+03  0.50292981933E+03  0.73628269174E+02 0.  0.
         25    2    1    2    0    0 -0.17412224059E+02  0.19891747151E+03  0.87929605069E+02  0.25149030987E+03  0.12507763386E+03 0.  0.
         24    2    1    2    0    0  0.92575837579E+02  0.16148171501E+03  0.54641580929E+03  0.58389321985E+03  0.87831802658E+02 0.  0.
        -13    1    5    5    0    0  0.55431618154E+01  0.26180654373E+01  0.12556413733E+03  0.12571369652E+03  0.00000000000E+00 0.  1.
         14    1    5    5    0    0  0.87032675763E+02  0.15886364957E+03  0.42085167196E+03  0.45817952333E+03  0.00000000000E+00 0. -1.
         11    1    3    3    0    0 -0.54513314245E+02 -0.25075894282E+03 -0.18531574145E+03  0.31653384157E+03  0.00000000000E+00 0. -1.
        -12    1    3    3    0    0 -0.20650299275E+02 -0.10964024370E+03 -0.14931859437E+03  0.18639597776E+03  0.00000000000E+00 0.  1.
          5    1    4    4  501    0 -0.52775001764E+02  0.25962668031E+02  0.19339722132E+02  0.62054477636E+02  0.41800000000E+01 0. -1.
         -5    1    4    4    0  501  0.35362777705E+02  0.17295480348E+03  0.68589882937E+02  0.18943583223E+03  0.41800000000E+01 0. -1.
</event>
<event>
11    1  0.1078607E-008  0.1331090E+03  0.7561462E-02  0.1115507E+00
         22   -1    0    0    0    0  0.00000000000E+00  0.00000000000E+00  0.93277931819E+03  0.93277931819E+03  0.00000000000E+00 0. -1.
         22   -1    0    0    0    0 -0.00000000000E+00 -0.00000000000E+00 -0.23081509992E+04  0.23081509992E+04  0.00000000000E+00 0.  1.
        -24    2    1    2    0    0  0.40669246559E+02  0.11149825438E+02 -0.20841926983E+04  0.20861777069E+04  0.80622051369E+02 0.  0.
         25    2    1    2    0    0 -0.79678527258E+02 -0.33743217456E+02 -0.19436810869E+03  0.24680482948E+03  0.12508552974E+03 0.  0.
         24    2    1    2    0    0  0.39009280698E+02  0.22593392018E+02  0.90318912595E+03  0.90794778097E+03  0.81156579456E+02 0.  0.
        -11    1    5    5    0    0 -0.55532478186E+01 -0.21569342626E+02  0.10716379019E+03  0.10945388540E+03  0.00000000000E+00 0.  1.
         12    1    5    5    0    0  0.44562528517E+02  0.44162734644E+02  0.79602533576E+03  0.79849389557E+03  0.00000000000E+00 0. -1.
         13    1    3    3    0    0 -0.16852406030E+02 -0.10635520205E+02 -0.20208005020E+03  0.20306024862E+03  0.00000000000E+00 0. -1.
        -14    1    3    3    0    0  0.57521652589E+02  0.21785345644E+02 -0.18821126481E+04  0.18831174583E+04  0.00000000000E+00 0.  1.
          5    1    4    4  501    0 -0.49635858464E+02  0.43942623699E+02 -0.10763731116E+03  0.12648294658E+03  0.41800000000E+01 0. -1.
         -5    1    4    4    0  501 -0.30042668794E+02 -0.77685841156E+02 -0.86730797530E+02  0.12032188290E+03  0.41800000000E+01 0. -1.
</event>
<event>
11    1  0.1078607E-008  0.4040315E+03  0.7561462E-02  0.9637937E-01
         22   -1    0    0    0    0  0.00000000000E+00  0.00000000000E+00  0.12567645355E+03  0.12567645355E+03  0.00000000000E+00 0.  1.
         22   -1    0    0    0    0 -0.00000000000E+00 -0.00000000000E+00 -0.18148584538E+04  0.18148584538E+04  0.00000000000E+00 0. -1.
        -24    2    1    2    0    0  0.97289629886E+00  0.39825648625E+02 -0.24694230326E+03  0.26276171696E+03  0.80474778308E+02 0.  0.
         25    2    1    2    0    0 -0.38015226019E+03  0.32422372591E+02 -0.10389617921E+04  0.11138473548E+04  0.12508946066E+03 0.  0.
         24    2    1    2    0    0  0.37917936389E+03 -0.72248021216E+02 -0.40327790490E+03  0.56392583560E+03  0.79890630915E+02 0.  0.
        -11    1    5    5    0    0  0.20624727299E+03 -0.91970133448E+01 -0.17470115550E+03  0.27044965595E+03  0.00000000000E+00 0.  1.
         12    1    5    5    0    0  0.17293209090E+03 -0.63051007871E+02 -0.22857674940E+03  0.29347617965E+03  0.00000000000E+00 0. -1.
         11    1    3    3    0    0  0.13488394831E+02  0.44865212792E+02 -0.24462675561E+03  0.24907242657E+03  0.00000000000E+00 0. -1.
        -12    1    3    3    0    0 -0.12515498533E+02 -0.50395641668E+01 -0.23155476470E+01  0.13689290391E+02  0.00000000000E+00 0.  1.
          5    1    4    4  501    0 -0.18705847466E+03 -0.44974778303E+02 -0.53876468602E+03  0.57210004626E+03  0.41800000000E+01 0. -1.
         -5    1    4    4    0  501 -0.19309378553E+03  0.77397150894E+02 -0.50019710608E+03  0.54174730854E+03  0.41800000000E+01 0. -1.
</event>
<event>
11    1  0.1078607E-008  0.1275437E+03  0.7561462E-02  0.1122324E+00
         22   -1    0    0    0    0  0.00000000000E+00  0.00000000000E+00  0.58233489575E+03  0.58233489575E+03  0.00000000000E+00 0.  1.
         22   -1    0    0    0    0 -0.00000000000E+00 -0.00000000000E+00 -0.27757803483E+03  0.27757803483E+03  0.00000000000E+00 0.  1.
         24    2    1    2    0    0 -0.77938800105E+01  0.11260838186E+02 -0.23859554406E+03  0.25179199835E+03  0.79270585622E+02 0.  0.
         25    2    1    2    0    0 -0.10417209009E+02  0.81046689555E+01  0.11204991620E+03  0.16846326466E+03  0.12510189414E+03 0.  0.
        -24    2    1    2    0    0  0.18211089019E+02 -0.19365507141E+02  0.43130248878E+03  0.43965766757E+03  0.81057764577E+02 0.  0.
        -13    1    3    3    0    0 -0.13262165068E+02  0.31622804484E+02 -0.22286281827E+03  0.22548552626E+03  0.00000000000E+00 0.  1.
         14    1    3    3    0    0  0.54682850573E+01 -0.20361966298E+02 -0.15732725792E+02  0.26306472090E+02  0.00000000000E+00 0. -1.
         13    1    5    5    0    0 -0.10638164148E+02 -0.44706736288E+02  0.26715899050E+03  0.27108262395E+03  0.00000000000E+00 0. -1.
        -14    1    5    5    0    0  0.28849253168E+02  0.25341229147E+02  0.16414349828E+03  0.16857504362E+03  0.00000000000E+00 0.  1.
          5    1    4    4  501    0  0.29879346125E+02  0.33446165374E+02 -0.17087289632E+01  0.45075641512E+02  0.41800000000E+01 0.  1.
         -5    1    4    4    0  501 -0.40296555133E+02 -0.25341496418E+02  0.11375864517E+03  0.12338762315E+03  0.41800000000E+01 0.  1.
</event>
<event>
11    1  0.1078607E-008  0.1305509E+03  0.7561462E-02  0.1118594E+00
         22   -1    0    0    0    0  0.00000000000E+00  0.00000000000E+00  0.23328228699E+03  0.23328228699E+03  0.00000000000E+00 0.  1.
         22   -1    0    0    0    0 -0.00000000000E+00 -0.00000000000E+00 -0.10659276026E+04  0.10659276026E+04  0.00000000000E+00 0.  1.
        -24    2    1    2    0    0  0.15286123990E+02  0.34145386773E+02 -0.99299424241E+03  0.99703749189E+03  0.81526816163E+02 0.  0.
         25    2    1    2    0    0  0.10366980343E+02 -0.43517372948E+02  0.13223580461E+02  0.13350432234E+03  0.12508918808E+03 0.  0.
         24    2    1    2    0    0 -0.25653104333E+02  0.93719861755E+01  0.14712534630E+03  0.16866807540E+03  0.77827605955E+02 0.  0.
        -13    1    5    5    0    0 -0.41001194201E+02  0.17592182152E+02  0.39331840366E+02  0.59477529079E+02  0.00000000000E+00 0.  1.
         14    1    5    5    0    0  0.15348089868E+02 -0.82201959770E+01  0.10779350593E+03  0.10919054632E+03  0.00000000000E+00 0. -1.
         13    1    3    3    0    0  0.83116884625E+01  0.28800837557E+02 -0.11033541090E+03  0.11433492602E+03  0.00000000000E+00 0. -1.
        -14    1    3    3    0    0  0.69744355279E+01  0.53445492159E+01 -0.88265883151E+03  0.88270256588E+03  0.00000000000E+00 0.  1.
          5    1    4    4  501    0  0.41323984875E+02 -0.91895825110E+01  0.56040873632E+02  0.70357459236E+02  0.41800000000E+01 0. -1.
         -5    1    4    4    0  501 -0.30957004533E+02 -0.34327790437E+02 -0.42817293171E+02  0.63146863109E+02  0.41800000000E+01 0. -1.
</event>
<event>
11    1  0.1078607E-008  0.1271986E+03  0.7561462E-02  0.1122760E+00
         22   -1    0    0    0    0  0.00000000000E+00  0.00000000000E+00  0.21879131224E+03  0.21879131224E+03  0.00000000000E+00 0.  1.
         22   -1    0    0    0    0 -0.00000000000E+00 -0.00000000000E+00 -0.41954477610E+03  0.41954477610E+03  0.00000000000E+00 0. -1.
        -24    2    1    2    0    0  0.22088624344E+01  0.60656753622E+01 -0.23991572949E+03  0.25325791117E+03  0.80860007560E+02 0.  0.
         25    2    1    2    0    0 -0.97982964142E+01  0.16018463196E+02 -0.13893763481E+03  0.18789158494E+03  0.12508790330E+03 0.  0.
         24    2    1    2    0    0  0.75894339798E+01 -0.22084138558E+02  0.17809990044E+03  0.19718659223E+03  0.81349056155E+02 0.  0.
        -13    1    5    5    0    0  0.38814912823E+02 -0.21345988733E+02  0.14526430173E+03  0.15186825227E+03  0.00000000000E+00 0.  1.
         14    1    5    5    0    0 -0.31225478843E+02 -0.73814982559E+00  0.32835598710E+02  0.45318339960E+02  0.00000000000E+00 0. -1.
         11    1    3    3    0    0  0.76819351320E+00  0.42517229335E+02 -0.15729809426E+03  0.16294476171E+03  0.00000000000E+00 0. -1.
        -12    1    3    3    0    0  0.14406689212E+01 -0.36451553973E+02 -0.82617635231E+02  0.90313149459E+02  0.00000000000E+00 0.  1.
          5    1    4    4  501    0  0.25271131200E+01  0.37355419832E+01  0.23591725512E+02  0.24379960772E+02  0.41800000000E+01 0.  1.
         -5    1    4    4    0  501 -0.12325409534E+02  0.12282921213E+02 -0.16252936032E+03  0.16351162417E+03  0.41800000000E+01 0.  1.
</event>
<event>
11    1  0.1078607E-008  0.1573710E+03  0.7561462E-02  0.1089576E+00
         22   -1    0    0    0    0  0.00000000000E+00  0.00000000000E+00  0.76713035301E+02  0.76713035301E+02  0.00000000000E+00 0.  1.
         22   -1    0    0    0    0 -0.00000000000E+00 -0.00000000000E+00 -0.53314032175E+03  0.53314032175E+03  0.00000000000E+00 0. -1.
        -24    2    1    2    0    0 -0.22613989651E+02 -0.47107931695E+02 -0.21323292936E+03  0.23379694675E+03  0.80387688040E+02 0.  0.
         25    2    1    2    0    0  0.12145905363E+02 -0.68342141344E+02 -0.14972305564E+03  0.20708118137E+03  0.12508977171E+03 0.  0.
         24    2    1    2    0    0  0.10468084288E+02  0.11545007304E+03 -0.93471301440E+02  0.16897522893E+03  0.79858898348E+02 0.  0.
        -11    1    5    5    0    0 -0.12738569051E+02  0.30197383297E+02  0.86899511259E+01  0.33906759651E+02  0.00000000000E+00 0.  1.
         12    1    5    5    0    0  0.23206653339E+02  0.85252689743E+02 -0.10216125257E+03  0.13506846928E+03  0.00000000000E+00 0. -1.
         13    1    3    3    0    0 -0.23825736738E+02 -0.47637043651E+02 -0.22027946067E+03  0.22662743534E+03  0.00000000000E+00 0. -1.
        -14    1    3    3    0    0  0.12117470871E+01  0.52911195523E+00  0.70465313011E+01  0.71695114089E+01  0.00000000000E+00 0.  1.
          5    1    4    4  501    0  0.33550809624E+02 -0.82016835221E+02 -0.45449521399E+02  0.99677226493E+02  0.41800000000E+01 0.  1.
         -5    1    4    4    0  501 -0.21404904260E+02  0.13674693877E+02 -0.10427353424E+03  0.10740395487E+03  0.41800000000E+01 0.  1.
</event>
<event>
11    1  0.1078607E-008  0.2102342E+03  0.7561462E-02  0.1047513E+00
         22   -1    0    0    0    0  0.00000000000E+00  0.00000000000E+00  0.10236077767E+04  0.10236077767E+04  0.00000000000E+00 0.  1.
         22   -1    0    0    0    0 -0.00000000000E+00 -0.00000000000E+00 -0.35071236451E+03  0.35071236451E+03  0.00000000000E+00 0.  1.
         24    2    1    2    0    0  0.11220470476E+03  0.24559796381E+02 -0.24268973563E+03  0.28031577890E+03  0.80532904776E+02 0.  0.
         25    2    1    2    0    0 -0.25693944950E+03  0.38028962153E+02  0.18575761078E+03  0.34295603971E+03  0.12509545371E+03 0.  0.
        -24    2    1    2    0    0  0.14473474473E+03 -0.62588758533E+02  0.72982753701E+03  0.75104832258E+03  0.80992901191E+02 0.  0.
        -13    1    3    3    0    0  0.82700409058E+02  0.14607634408E+02 -0.84660886136E+02  0.11924850642E+03  0.00000000000E+00 0.  1.
         14    1    3    3    0    0  0.29504295704E+02  0.99521619733E+01 -0.15802884950E+03  0.16106727249E+03  0.00000000000E+00 0. -1.
         13    1    5    5    0    0  0.64714225491E+02 -0.52727056135E+02  0.22831719901E+03  0.24309836855E+03  0.00000000000E+00 0. -1.
        -14    1    5    5    0    0  0.80020519244E+02 -0.98617023987E+01  0.50151033801E+03  0.50794995403E+03  0.00000000000E+00 0.  1.
          5    1    4    4  501    0 -0.14429555089E+03  0.55243704672E+02  0.43366143205E+02  0.16053400789E+03  0.41800000000E+01 0. -1.
         -5    1    4    4    0  501 -0.11264389860E+03 -0.17214742519E+02  0.14239146758E+03  0.18242203181E+03  0.41800000000E+01 0. -1.
</event>
<event>
11    1  0.1078607E-008  0.1401338E+03  0.7561462E-02  0.1107409E+00
         22   -1    0    0    0    0  0.00000000000E+00  0.00000000000E+00  0.47576195470E+03  0.47576195470E+03  0.00000000000E+00 0.  1.
         22   -1    0    0    0    0 -0.00000000000E+00 -0.00000000000E+00 -0.10399344337E+03  0.10399344337E+03  0.00000000000E+00 0.  1.
        -24    2    1    2    0    0 -0.33099999297E+00 -0.20681419038E+02 -0.46534085435E+02  0.95468755656E+02  0.80752904249E+02 0.  0.
         25    2    1    2    0    0 -0.62764555447E+02  0.17687413515E+02  0.22532874650E+03  0.26584378158E+03  0.12509051999E+03 0.  0.
         24    2    1    2    0    0  0.63095555440E+02  0.29940055227E+01  0.19297385026E+03  0.21844286083E+03  0.80550377898E+02 0.  0.
        -13    1    5    5    0    0  0.46989365946E+02  0.36443283076E+02  0.81065429541E+02  0.10053714368E+03  0.00000000000E+00 0.  1.
         14    1    5    5    0    0  0.16106189494E+02 -0.33449277553E+02  0.11190842072E+03  0.11790571715E+03  0.00000000000E+00 0. -1.
         11    1    3    3    0    0  0.24196213531E+02 -0.17991882594E+02  0.11606509457E+02  0.32309064523E+02  0.00000000000E+00 0. -1.
        -12    1    3    3    0    0 -0.24527213524E+02 -0.26895364433E+01 -0.58140594893E+02  0.63159691133E+02  0.00000000000E+00 0.  1.
          5    1    4    4  501    0 -0.86598141947E+01  0.56567834927E+02  0.43074343628E+02  0.71748057877E+02  0.41800000000E+01 0. -1.
         -5    1    4    4    0  501 -0.54104741253E+02 -0.38880421412E+02  0.18225440287E+03  0.19409572371E+03  0.41800000000E+01 0. -1.
</event>
<event>
11    1  0.1078607E-008  0.2855762E+03  0.7561462E-02  0.1006487E+00
         22   -1    0    0    0    0  0.00000000000E+00  0.00000000000E+00  0.27589098620E+03  0.27589098620E+03  0.00000000000E+00 0.  1.
         22   -1    0    0    0    0 -0.00000000000E+00 -0.00000000000E+00 -0.15233783463E+04  0.15233783463E+04  0.00000000000E+00 0. -1.
        -24    2    1    2    0    0 -0.15048841064E+03 -0.20683363648E+03 -0.13685317596E+04  0.13944103854E+04  0.77937351567E+02 0.  0.
         25    2    1    2    0    0  0.17077116832E+03  0.20994326385E+03  0.68623758341E+02  0.30593398125E+03  0.12508962669E+03 0.  0.
         24    2    1    2    0    0 -0.20282757679E+02 -0.31096273778E+01  0.52420641194E+02  0.98924965880E+02  0.81345960008E+02 0.  0.
        -13    1    5    5    0    0  0.25721150559E+02 -0.21703402499E+02  0.27153627867E+02  0.43242742425E+02  0.00000000000E+00 0.  1.
         14    1    5    5    0    0 -0.46003908238E+02  0.18593775121E+02  0.25267013327E+02  0.55682223455E+02  0.00000000000E+00 0. -1.
         11    1    3    3    0    0 -0.98837631697E+02 -0.16893036116E+03 -0.11553311220E+04  0.11717919380E+04  0.00000000000E+00 0. -1.
        -12    1    3    3    0    0 -0.51650778945E+02 -0.37903275319E+02 -0.21320063760E+03  0.22261844739E+03  0.00000000000E+00 0.  1.
          5    1    4    4  501    0  0.18011274203E+03  0.17789042234E+03  0.86849843699E+02  0.26766764831E+03  0.41800000000E+01 0. -1.
         -5    1    4    4    0  501 -0.93415737137E+01  0.32052841517E+02 -0.18226085358E+02  0.38266332934E+02  0.41800000000E+01 0. -1.
</event>
<event>
11    1  0.1078607E-008  0.1464181E+03  0.7561462E-02  0.1100596E+00
         22   -1    0    0    0    0  0.00000000000E+00  0.00000000000E+00  0.96461099056E+03  0.96461099056E+03  0.00000000000E+00 0. -1.
         22   -1    0    0    0    0 -0.00000000000E+00 -0.00000000000E+00 -0.32713334107E+03  0.32713334107E+03  0.00000000000E+00 0.  1.
         24    2    1    2    0    0 -0.55474376882E+02 -0.48492241884E+02 -0.22270898267E+03  0.24808292087E+03  0.80727570599E+02 0.  0.
         25    2    1    2    0    0 -0.22638300473E+02  0.40783598425E+02 -0.37454838384E+02  0.13865454715E+03  0.12508566656E+03 0.  0.
        -24    2    1    2    0    0  0.78112677355E+02  0.77086434591E+01  0.89764147055E+03  0.90500686360E+03  0.84357572122E+02 0.  0.
        -13    1    3    3    0    0 -0.73669860972E+02 -0.52517543231E+02 -0.17892599273E+03  0.20049900657E+03  0.00000000000E+00 0.  1.
         14    1    3    3    0    0  0.18195484090E+02  0.40253013464E+01 -0.43782989942E+02  0.47583914304E+02  0.00000000000E+00 0. -1.
         11    1    5    5    0    0  0.10394514672E+02 -0.27163134652E+02  0.44936558051E+03  0.45030579251E+03  0.00000000000E+00 0. -1.
        -12    1    5    5    0    0  0.67718162683E+02  0.34871778111E+02  0.44827589004E+03  0.45470107110E+03  0.00000000000E+00 0.  1.
          5    1    4    4  501    0 -0.19521249015E+02  0.84999158372E+02 -0.34996815689E+02  0.94064794666E+02  0.41800000000E+01 0. -1.
         -5    1    4    4    0  501 -0.31170514574E+01 -0.44215559947E+02 -0.24580226945E+01  0.44589752486E+02  0.41800000000E+01 0. -1.
</event>
<event>
11    1  0.1078607E-008  0.1606798E+03  0.7561462E-02  0.1086440E+00
         22   -1    0    0    0    0  0.00000000000E+00  0.00000000000E+00  0.29965185507E+04  0.29965185507E+04  0.00000000000E+00 0. -1.
         22   -1    0    0    0    0 -0.00000000000E+00 -0.00000000000E+00 -0.47742667270E+02  0.47742667270E+02  0.00000000000E+00 0.  1.
         24    2    1    2    0    0  0.39711068121E+02 -0.98392220731E+02  0.93323147774E+02  0.16246574027E+03  0.80174240364E+02 0.  0.
         25    2    1    2    0    0 -0.66602475536E+02  0.58981207118E+02  0.46437387259E+03  0.48908552127E+03  0.12508749352E+03 0.  0.
        -24    2    1    2    0    0  0.26891407414E+02  0.39411013613E+02  0.23910788630E+04  0.23927099564E+04  0.74339965097E+02 0.  0.
        -13    1    3    3    0    0  0.10362457730E+02 -0.10957250238E+02 -0.14263543529E+02  0.20757903000E+02  0.00000000000E+00 0.  1.
         14    1    3    3    0    0  0.29348610391E+02 -0.87434970493E+02  0.10758669130E+03  0.14170783727E+03  0.00000000000E+00 0. -1.
         13    1    5    5    0    0 -0.16564517315E+02  0.29784708081E+02  0.16123360892E+04  0.16126962444E+04  0.00000000000E+00 0. -1.
        -14    1    5    5    0    0  0.43455924730E+02  0.96263055315E+01  0.77874277385E+03  0.78001371204E+03  0.00000000000E+00 0.  1.
          5    1    4    4  501    0  0.12921221196E+02 -0.27575628047E+02  0.15692515666E+03  0.15990731819E+03  0.41800000000E+01 0.  1.
         -5    1    4    4    0  501 -0.79523696732E+02  0.86556835164E+02  0.30744871593E+03  0.32917820308E+03  0.41800000000E+01 0.  1.
</event>
<event>
11    1  0.1078607E-008  0.1603984E+03  0.7561462E-02  0.1086703E+00
         22   -1    0    0    0    0  0.00000000000E+00  0.00000000000E+00  0.10498635463E+04  0.10498635463E+04  0.00000000000E+00 0.  1.
         22   -1    0    0    0    0 -0.00000000000E+00 -0.00000000000E+00 -0.97117439914E+03  0.97117439914E+03  0.00000000000E+00 0. -1.
        -24    2    1    2    0    0  0.27429011287E+01 -0.84638607928E+01 -0.92195105820E+03  0.92543523652E+03  0.79733699491E+02 0.  0.
         25    2    1    2    0    0  0.20819533121E+02  0.10530778389E+03  0.11600349520E+03  0.20155206854E+03  0.12507295121E+03 0.  0.
         24    2    1    2    0    0 -0.23562434250E+02 -0.96843923099E+02  0.88463671015E+03  0.89405064036E+03  0.82525782848E+02 0.  0.
        -13    1    5    5    0    0  0.20173193666E+02 -0.67041406719E+02  0.63611541570E+03  0.63995650637E+03  0.00000000000E+00 0.  1.
         14    1    5    5    0    0 -0.43735627916E+02 -0.29802516380E+02  0.24852129445E+03  0.25409413399E+03  0.00000000000E+00 0. -1.
         13    1    3    3    0    0  0.21799374979E+02  0.28745960703E+02 -0.31822766362E+03  0.32026612200E+03  0.00000000000E+00 0. -1.
        -14    1    3    3    0    0 -0.19056473851E+02 -0.37209821496E+02 -0.60372339458E+03  0.60516911452E+03  0.00000000000E+00 0.  1.
          5    1    4    4  501    0  0.90462358625E+01  0.12815570961E+03  0.11921382274E+03  0.17531436969E+03  0.41800000000E+01 0.  1.
         -5    1    4    4    0  501  0.11773297259E+02 -0.22847925716E+02 -0.32103275355E+01  0.26237698846E+02  0.41800000000E+01 0.  1.
</event>
<event>
11    1  0.1078607E-008  0.1331861E+03  0.7561462E-02  0.1115415E+00
         22   -1    0    0    0    0  0.00000000000E+00  0.00000000000E+00  0.97292545550E+02  0.97292545550E+02  0.00000000000E+00 0. -1.
         22   -1    0    0    0    0 -0.00000000000E+00 -0.00000000000E+00 -0.97953564855E+03  0.97953564855E+03  0.00000000000E+00 0. -1.
         24    2    1    2    0    0 -0.34724630719E+02 -0.27090701020E+02 -0.82181112654E+03  0.82760215529E+03  0.87247313334E+02 0.  0.
         25    2    1    2    0    0  0.78539456013E+02  0.22946530753E+02 -0.49441140831E+02  0.15744781661E+03  0.12510155524E+03 0.  0.
        -24    2    1    2    0    0 -0.43814825294E+02  0.41441702668E+01 -0.10990835629E+02  0.91778222196E+02  0.79784275010E+02 0.  0.
        -11    1    3    3    0    0  0.88087145961E+01 -0.25025692325E+02 -0.75613649079E+02  0.80133030994E+02  0.00000000000E+00 0.  1.
         12    1    3    3    0    0 -0.43533345316E+02 -0.20650086951E+01 -0.74619747746E+03  0.74746912430E+03  0.00000000000E+00 0. -1.
         13    1    5    5    0    0 -0.27782331847E+02 -0.30786862651E+02  0.16387141200E+02  0.44589542176E+02  0.00000000000E+00 0. -1.
        -14    1    5    5    0    0 -0.16032493446E+02  0.34931032918E+02 -0.27377976829E+02  0.47188680020E+02  0.00000000000E+00 0.  1.
          5    1    4    4  501    0  0.74242187731E+02 -0.38589797972E+02 -0.45881332654E+02  0.95517768152E+02  0.41800000000E+01 0. -1.
         -5    1    4    4    0  501  0.42972682823E+01  0.61536328725E+02 -0.35598081773E+01  0.61930048457E+02  0.41800000000E+01 0. -1.
</event>
<event>
11    1  0.1078607E-008  0.1398024E+03  0.7561462E-02  0.1107779E+00
         22   -1    0    0    0    0  0.00000000000E+00  0.00000000000E+00  0.35368813140E+04  0.35368813140E+04  0.00000000000E+00 0. -1.
         22   -1    0    0    0    0 -0.00000000000E+00 -0.00000000000E+00 -0.24823450101E+02  0.24823450101E+02  0.00000000000E+00 0.  1.
         24    2    1    2    0    0 -0.53640891378E+02  0.57479993726E+02  0.26966031215E+03  0.29209133598E+03  0.80120969160E+02 0.  0.
         25    2    1    2    0    0 -0.54638129184E+01 -0.53586442145E+02  0.35408977011E+03  0.37937922378E+03  0.12509064756E+03 0.  0.
        -24    2    1    2    0    0  0.59104704296E+02 -0.38935515807E+01  0.28883077817E+04  0.28902342044E+04  0.87312018875E+02 0.  0.
        -11    1    3    3    0    0 -0.25849540702E+02  0.67320550184E+02  0.12371480324E+03  0.14319779248E+03  0.00000000000E+00 0.  1.
         12    1    3    3    0    0 -0.27791350676E+02 -0.98405564582E+01  0.14594550891E+03  0.14889354349E+03  0.00000000000E+00 0. -1.
         13    1    5    5    0    0  0.38282408173E+02  0.30628390991E+02  0.23112116938E+04  0.23117316312E+04  0.00000000000E+00 0. -1.
        -14    1    5    5    0    0  0.20822296123E+02 -0.34521942572E+02  0.57709608782E+03  0.57850257313E+03  0.00000000000E+00 0.  1.
          5    1    4    4  501    0 -0.22860945080E+02 -0.58150626714E+02  0.67048773603E+02  0.91744910698E+02  0.41800000000E+01 0. -1.
         -5    1    4    4    0  501  0.17397132162E+02  0.45641845691E+01  0.28704099651E+03  0.28763431309E+03  0.41800000000E+01 0. -1.
</event>
<event>
11    1  0.1078607E-008  0.2029199E+03  0.7561462E-02  0.1052478E+00
         22   -1    0    0    0    0  0.00000000000E+00  0.00000000000E+00  0.26057180838E+03  0.26057180838E+03  0.00000000000E+00 0.  1.
         22   -1    0    0    0    0 -0.00000000000E+00 -0.00000000000E+00 -0.43977209135E+03  0.43977209135E+03  0.00000000000E+00 0.  1.
        -24    2    1    2    0    0 -0.14034832334E+03 -0.24446234804E+02 -0.22081995330E+03  0.27591217558E+03  0.84088088319E+02 0.  0.
         25    2    1    2    0    0  0.21279749778E+03  0.57728311814E+02 -0.72608950118E+02  0.26369499466E+03  0.12509059728E+03 0.  0.
         24    2    1    2    0    0 -0.72449174433E+02 -0.33282077010E+02  0.11422862045E+03  0.16073672949E+03  0.80196876191E+02 0.  0.
        -13    1    5    5    0    0 -0.64451689633E+02 -0.47185908902E+02  0.11959972097E+03  0.14382149892E+03  0.00000000000E+00 0.  1.
         14    1    5    5    0    0 -0.79974848009E+01  0.13903831892E+02 -0.53711005202E+01  0.16915230569E+02  0.00000000000E+00 0. -1.
         13    1    3    3    0    0 -0.53857071376E+02 -0.26237914154E+02 -0.31324390549E+02  0.67603474168E+02  0.00000000000E+00 0. -1.
        -14    1    3    3    0    0 -0.86491251968E+02  0.17916793505E+01 -0.18949556275E+03  0.20830870141E+03  0.00000000000E+00 0.  1.
          5    1    4    4  501    0  0.19347605198E+03  0.21466370839E+02 -0.18442693343E+02  0.19557963366E+03  0.41800000000E+01 0. -1.
         -5    1    4    4    0  501  0.19321445800E+02  0.36261940975E+02 -0.54166256775E+02  0.68115360999E+02  0.41800000000E+01 0. -1.
</event>
<event>
11    1  0.1078607E-008  0.1892750E+03  0.7561462E-02  0.1062378E+00
         22   -1    0    0    0    0  0.00000000000E+00  0.00000000000E+00  0.13959394838E+04  0.13959394838E+04  0.00000000000E+00 0.  1.
         22   -1    0    0    0    0 -0.00000000000E+00 -0.00000000000E+00 -0.44649815156E+02  0.44649815156E+02  0.00000000000E+00 0.  1.
        -24    2    1    2    0    0 -0.10047618749E+03  0.11601850190E+03  0.23270802728E+03  0.29005250827E+03  0.80135351461E+02 0.  0.
         25    2    1    2    0    0  0.97955484762E+02 -0.57811659522E+02  0.74545872580E+03  0.76439178871E+03  0.12509448356E+03 0.  0.
         24    2    1    2    0    0  0.25207027289E+01 -0.58206842376E+02  0.37312291557E+03  0.38614500198E+03  0.80578297267E+02 0.  0.
        -13    1    5    5    0    0  0.52228829658E+00 -0.78201455044E+02  0.31796736897E+03  0.32744310663E+03  0.00000000000E+00 0.  1.
         14    1    5    5    0    0  0.19984144324E+01  0.19994612669E+02  0.55155546601E+02  0.58701895343E+02  0.00000000000E+00 0. -1.
         13    1    3    3    0    0 -0.40552985929E+02  0.18987081207E+02  0.12658207451E+03  0.13426866912E+03  0.00000000000E+00 0. -1.
        -14    1    3    3    0    0 -0.59923201562E+02  0.97031420691E+02  0.10612595278E+03  0.15578383915E+03  0.00000000000E+00 0.  1.
          5    1    4    4  501    0  0.12754809675E+02 -0.61112086427E+02  0.51211077739E+03  0.51591888218E+03  0.41800000000E+01 0.  1.
         -5    1    4    4    0  501  0.85200675087E+02  0.33004269046E+01  0.23334794841E+03  0.24847290653E+03  0.41800000000E+01 0.  1.
</event>
<event>
11    1  0.1078607E-008  0.1798853E+03  0.7561462E-02  0.1069736E+00
         22   -1    0    0    0    0  0.00000000000E+00  0.00000000000E+00  0.48125010667E+03  0.48125010667E+03  0.00000000000E+00 0. -1.
         22   -1    0    0    0    0 -0.00000000000E+00 -0.00000000000E+00 -0.55226618338E+03  0.55226618338E+03  0.00000000000E+00 0. -1.
         24    2    1    2    0    0  0.10122949632E+03 -0.74143201802E+02 -0.45564319848E+03  0.47963911563E+03  0.81843335831E+02 0.  0.
         25    2    1    2    0    0 -0.16856336195E+03  0.75440969399E+02  0.87842382695E+02  0.23973028009E+03  0.12509746655E+03 0.  0.
        -24    2    1    2    0    0  0.67333865626E+02 -0.12977675969E+01  0.29678473908E+03  0.31414689433E+03  0.77920191269E+02 0.  0.
        -13    1    3    3    0    0  0.26256604047E+02  0.99575436454E+01 -0.17476373510E+03  0.17700543788E+03  0.00000000000E+00 0.  1.
         14    1    3    3    0    0  0.74972892274E+02 -0.84100745448E+02 -0.28087946338E+03  0.30263367775E+03  0.00000000000E+00 0. -1.
         13    1    5    5    0    0  0.59269150029E+02 -0.17697789626E+02  0.10783870063E+03  0.12431906232E+03  0.00000000000E+00 0. -1.
        -14    1    5    5    0    0  0.80647155976E+01  0.16400022029E+02  0.18894603846E+03  0.18982783202E+03  0.00000000000E+00 0.  1.
          5    1    4    4  501    0 -0.37043547137E+02  0.75658408738E+02  0.55412624903E+01  0.84525719088E+02  0.41800000000E+01 0. -1.
         -5    1    4    4    0  501 -0.13151981481E+03 -0.21743933928E+00  0.82301120205E+02  0.15520456100E+03  0.41800000000E+01 0. -1.
</event>
<event>
11    1  0.1078607E-008  0.2541275E+03  0.7561462E-02  0.1021723E+00
         22   -1    0    0    0    0  0.00000000000E+00  0.00000000000E+00  0.16884408941E+04  0.16884408941E+04  0.00000000000E+00 0. -1.
         22   -1    0    0    0    0 -0.00000000000E+00 -0.00000000000E+00 -0.10733826480E+04  0.10733826480E+04  0.00000000000E+00 0. -1.
         24    2    1    2    0    0 -0.18220893579E+03 -0.13093333892E+02 -0.96108228650E+03  0.98319745444E+03  0.98114939303E+02 0.  0.
         25    2    1    2    0    0  0.38540524489E+03  0.43713350222E+01  0.35830590306E+03  0.54091278772E+03  0.12508881800E+03 0.  0.
        -24    2    1    2    0    0 -0.20319630910E+03  0.87219988695E+01  0.12178346295E+04  0.12377133000E+04  0.86303040862E+02 0.  0.
        -13    1    3    3    0    0 -0.13083216455E+02  0.28979465838E+02 -0.11271003208E+03  0.11710905740E+03  0.00000000000E+00 0.  1.
         14    1    3    3    0    0 -0.16912571934E+03 -0.42072799730E+02 -0.84837225442E+03  0.86608839704E+03  0.00000000000E+00 0. -1.
         13    1    5    5    0    0 -0.12568996343E+03  0.16807428613E+02  0.96060689416E+03  0.96894069048E+03  0.00000000000E+00 0. -1.
        -14    1    5    5    0    0 -0.77506345666E+02 -0.80854297438E+01  0.25722773535E+03  0.26877260952E+03  0.00000000000E+00 0.  1.
          5    1    4    4  501    0  0.25998559028E+03 -0.53761116853E+02  0.21386656689E+03  0.34093862449E+03  0.41800000000E+01 0.  1.
         -5    1    4    4    0  501  0.12541965462E+03  0.58132451875E+02  0.14443933617E+03  0.19997416323E+03  0.41800000000E+01 0.  1.
</event>
<event>
11    1  0.1078607E-008  0.1690700E+03  0.7561462E-02  0.1078844E+00
         22   -1    0    0    0    0  0.00000000000E+00  0.00000000000E+00  0.73191045496E+03  0.73191045496E+03  0.00000000000E+00 0. -1.
         22   -1    0    0    0    0 -0.00000000000E+00 -0.00000000000E+00 -0.98905967131E+03  0.98905967131E+03  0.00000000000E+00 0. -1.
         24    2    1    2    0    0  0.10824638554E+03 -0.37027620489E+02 -0.92120039785E+03  0.93231186206E+03  0.86642428847E+02 0.  0.
         25    2    1    2    0    0 -0.96783868846E+02  0.28178826183E+02  0.48762990742E+02  0.16789238910E+03  0.12509540974E+03 0.  0.
        -24    2    1    2    0    0 -0.11462516698E+02  0.88487943058E+01  0.61528819076E+03  0.62076587510E+03  0.81000145369E+02 0.  0.
        -13    1    3    3    0    0 -0.11635974565E+02 -0.69708630446E+00 -0.19800122074E+03  0.19834405776E+03  0.00000000000E+00 0.  1.
         14    1    3    3    0    0  0.11988236011E+03 -0.36330534185E+02 -0.72319917712E+03  0.73396780431E+03  0.00000000000E+00 0. -1.
         11    1    5    5    0    0  0.17907530633E+02  0.16212889474E+02  0.52460972888E+03  0.52516559776E+03  0.00000000000E+00 0. -1.
        -12    1    5    5    0    0 -0.29370047331E+02 -0.73640951678E+01  0.90678461878E+02  0.95600277334E+02  0.00000000000E+00 0.  1.
          5    1    4    4  501    0 -0.54229140341E+02  0.73151468690E+02  0.53431268432E+02  0.10566129793E+03  0.41800000000E+01 0.  1.
         -5    1    4    4    0  501 -0.42554728505E+02 -0.44972642506E+02 -0.46682776899E+01  0.62231091175E+02  0.41800000000E+01 0.  1.
</event>
<event>
11    1  0.1078607E-008  0.1816030E+03  0.7561462E-02  0.1068354E+00
         22   -1    0    0    0    0  0.00000000000E+00  0.00000000000E+00  0.67498759162E+03  0.67498759162E+03  0.00000000000E+00 0. -1.
         22   -1    0    0    0    0 -0.00000000000E+00 -0.00000000000E+00 -0.34160978212E+04  0.34160978212E+04  0.00000000000E+00 0. -1.
         24    2    1    2    0    0 -0.68125872747E+02  0.27390237465E+02 -0.30455530601E+04  0.30475108146E+04  0.80853965958E+02 0.  0.
         25    2    1    2    0    0 -0.96385066331E+01  0.80726020861E+02 -0.34497979498E+03  0.37585820149E+03  0.12509491366E+03 0.  0.
        -24    2    1    2    0    0  0.77764379380E+02 -0.10811625833E+03  0.64942262553E+03  0.66771639666E+03  0.79743437348E+02 0.  0.
        -11    1    3    3    0    0  0.14930998126E+02 -0.99723107097E+01 -0.57184979866E+03  0.57213160541E+03  0.00000000000E+00 0.  1.
         12    1    3    3    0    0 -0.83056870872E+02  0.37362548174E+02 -0.24737032614E+04  0.24753792092E+04  0.00000000000E+00 0. -1.
         13    1    5    5    0    0  0.54790977487E+02 -0.99021725678E+02  0.61510715510E+03  0.62543118376E+03  0.00000000000E+00 0. -1.
        -14    1    5    5    0    0  0.22973401893E+02 -0.90945326469E+01  0.34315470435E+02  0.42285212897E+02  0.00000000000E+00 0.  1.
          5    1    4    4  501    0 -0.22879317950E+02 -0.17977070277E+02 -0.18533733550E+03  0.18765403959E+03  0.41800000000E+01 0. -1.
         -5    1    4    4    0  501  0.13240811317E+02  0.98703091138E+02 -0.15964245949E+03  0.18820416190E+03  0.41800000000E+01 0. -1.
</event>
<event>
11    1  0.1078607E-008  0.1682641E+03  0.7561462E-02  0.1079552E+00
         22   -1    0    0    0    0  0.00000000000E+00  0.00000000000E+00  0.30626729770E+04  0.30626729770E+04  0.00000000000E+00 0. -1.
         22   -1    0    0    0    0 -0.00000000000E+00 -0.00000000000E+00 -0.10835983511E+03  0.10835983511E+03  0.00000000000E+00 0. -1.
        -24    2    1    2    0    0 -0.29860982590E+01  0.42523560461E+02 -0.54733769841E+02  0.10525122216E+03  0.79150895305E+02 0.  0.
         25    2    1    2    0    0  0.61290284372E+02 -0.13605966730E+03  0.32939048159E+03  0.38264155363E+03  0.12509091566E+03 0.  0.
         24    2    1    2    0    0 -0.58304186113E+02  0.93536106834E+02  0.26796564301E+04  0.26831400363E+04  0.80830003688E+02 0.  0.
        -13    1    5    5    0    0 -0.20195195211E+02  0.13728180288E+02  0.15301712262E+03  0.15495337575E+03  0.00000000000E+00 0.  1.
         14    1    5    5    0    0 -0.38108990902E+02  0.79807926546E+02  0.25266393075E+04  0.25281866606E+04  0.00000000000E+00 0. -1.
         11    1    3    3    0    0 -0.16260314311E+02  0.62901675551E+02 -0.45118289151E+02  0.79099169556E+02  0.00000000000E+00 0. -1.
        -12    1    3    3    0    0  0.13274216052E+02 -0.20378115089E+02 -0.96154806892E+01  0.26152052601E+02  0.00000000000E+00 0.  1.
          5    1    4    4  501    0  0.28763959099E+02 -0.87422598594E+02  0.30586744257E+03  0.31944082537E+03  0.41800000000E+01 0.  1.
         -5    1    4    4    0  501  0.32526325273E+02 -0.48637068702E+02  0.23523039012E+02  0.63200728256E+02  0.41800000000E+01 0.  1.
</event>
<event>
11    1  0.1078607E-008  0.2066916E+03  0.7561462E-02  0.1049890E+00
         22   -1    0    0    0    0  0.00000000000E+00  0.00000000000E+00  0.59478193383E+03  0.59478193383E+03  0.00000000000E+00 0.  1.
         22   -1    0    0    0    0 -0.00000000000E+00 -0.00000000000E+00 -0.22324098870E+04  0.22324098870E+04  0.00000000000E+00 0. -1.
         24    2    1    2    0    0 -0.16718309902E+03  0.13159886516E+02 -0.15806775615E+04  0.15916144169E+04  0.81064958798E+02 0.  0.
         25    2    1    2    0    0  0.14521566753E+03 -0.81351674795E+02 -0.62442226205E+03  0.65822263923E+03  0.12509275104E+03 0.  0.
        -24    2    1    2    0    0  0.21967431491E+02  0.68191788280E+02  0.56747187033E+03  0.57735476471E+03  0.78622596514E+02 0.  0.
        -13    1    3    3    0    0 -0.38685548085E+02  0.36434423666E+02 -0.58521433796E+03  0.58762220875E+03  0.00000000000E+00 0.  1.
         14    1    3    3    0    0 -0.12849755093E+03 -0.23274537150E+02 -0.99546322353E+03  0.10039922082E+04  0.00000000000E+00 0. -1.
         13    1    5    5    0    0  0.58161912126E+00  0.80984233137E+00 -0.26682797669E+01  0.28484807036E+01  0.00000000000E+00 0. -1.
        -14    1    5    5    0    0  0.21385812370E+02  0.67381945948E+02  0.57014015010E+03  0.57450628401E+03  0.00000000000E+00 0.  1.
          5    1    4    4  501    0  0.99451571930E+02 -0.13189134398E+02 -0.49364780670E+03  0.50375608967E+03  0.41800000000E+01 0. -1.
         -5    1    4    4    0  501  0.45764095597E+02 -0.68162540397E+02 -0.13077445536E+03  0.15446654956E+03  0.41800000000E+01 0. -1.
</event>
<event>
11    1  0.1078607E-008  0.1367628E+03  0.7561462E-02  0.1111228E+00
         22   -1    0    0    0    0  0.00000000000E+00  0.00000000000E+00  0.18566214336E+04  0.18566214336E+04  0.00000000000E+00 0. -1.
         22   -1    0    0    0    0 -0.00000000000E+00 -0.00000000000E+00 -0.14630743891E+03  0.14630743891E+03  0.00000000000E+00 0. -1.
        -24    2    1    2    0    0  0.98104475496E+01 -0.43646488361E+02 -0.12146593026E+03  0.15192881846E+03  0.79543276504E+02 0.  0.
         25    2    1    2    0    0  0.47523213474E+02  0.31765188966E+02  0.61858063228E+03  0.63368483210E+03  0.12508790806E+03 0.  0.
         24    2    1    2    0    0 -0.57333661024E+02  0.11881299395E+02  0.12131992927E+04  0.12173152219E+04  0.81089530224E+02 0.  0.
        -13    1    5    5    0    0 -0.45124775546E+02 -0.22242072722E+02  0.37840379546E+03  0.38173339858E+03  0.00000000000E+00 0.  1.
         14    1    5    5    0    0 -0.12208885478E+02  0.34123372117E+02  0.83479549720E+03  0.83558182337E+03  0.00000000000E+00 0. -1.
         11    1    3    3    0    0  0.31229717479E+02 -0.54676517243E+02 -0.10602451436E+03  0.12331266941E+03  0.00000000000E+00 0. -1.
        -12    1    3    3    0    0 -0.21419269929E+02  0.11030028881E+02 -0.15441415898E+02  0.28616149048E+02  0.00000000000E+00 0.  1.
          5    1    4    4  501    0 -0.19893199132E+02  0.60105060777E+02  0.25270880534E+03  0.26055243311E+03  0.41800000000E+01 0.  1.
         -5    1    4    4    0  501  0.67416412606E+02 -0.28339871810E+02  0.36587182695E+03  0.37313239899E+03  0.41800000000E+01 0.  1.
</event>
<event>
11    1  0.1078607E-008  0.1548671E+03  0.7561462E-02  0.1092007E+00
         22   -1    0    0    0    0  0.00000000000E+00  0.00000000000E+00  0.16841653339E+04  0.16841653339E+04  0.00000000000E+00 0. -1.
         22   -1    0    0    0    0 -0.00000000000E+00 -0.00000000000E+00 -0.11676108075E+04  0.11676108075E+04  0.00000000000E+00 0. -1.
         24    2    1    2    0    0  0.32742071204E+02 -0.23248747187E+02 -0.10963015667E+04  0.10999411429E+04  0.79880192485E+02 0.  0.
         25    2    1    2    0    0  0.31386223531E+01 -0.61879940985E+02  0.50845030888E+01  0.13968360270E+03  0.12508668452E+03 0.  0.
        -24    2    1    2    0    0 -0.35880693557E+02  0.85128688172E+02  0.16077715900E+04  0.16121513959E+04  0.74621176852E+02 0.  0.
        -11    1    3    3    0    0  0.19461396335E+02 -0.79044166491E+01 -0.62403339714E+02  0.65843773870E+02  0.00000000000E+00 0.  1.
         12    1    3    3    0    0  0.13280674869E+02 -0.15344330538E+02 -0.10338982270E+04  0.10340973690E+04  0.00000000000E+00 0. -1.
         13    1    5    5    0    0 -0.50871783695E+02  0.58982857442E+02  0.79142914579E+03  0.79525279544E+03  0.00000000000E+00 0. -1.
        -14    1    5    5    0    0  0.14991090137E+02  0.26145830730E+02  0.81634244417E+03  0.81689860044E+03  0.00000000000E+00 0.  1.
          5    1    4    4  501    0  0.49805409095E+02  0.10895810329E+02  0.12964842721E+02  0.52771744377E+02  0.41800000000E+01 0. -1.
         -5    1    4    4    0  501 -0.46666786742E+02 -0.72775751314E+02 -0.78803396317E+01  0.86911858321E+02  0.41800000000E+01 0. -1.
</event>
<event>
11    1  0.1078607E-008  0.1995752E+03  0.7561462E-02  0.1054824E+00
         22   -1    0    0    0    0  0.00000000000E+00  0.00000000000E+00  0.27576996551E+03  0.27576996551E+03  0.00000000000E+00 0. -1.
         22   -1    0    0    0    0 -0.00000000000E+00 -0.00000000000E+00 -0.70064251467E+03  0.70064251467E+03  0.00000000000E+00 0.  1.
         24    2    1    2    0    0  0.10119682690E+03 -0.11903679684E+03 -0.57605045000E+03  0.60256387062E+03  0.82695468181E+02 0.  0.
         25    2    1    2    0    0 -0.14055810010E+03  0.75261749787E+02  0.13401622762E+02  0.20309314599E+03  0.12508521882E+03 0.  0.
        -24    2    1    2    0    0  0.39361273205E+02  0.43775047057E+02  0.13777627807E+03  0.17075546358E+03  0.81911909812E+02 0.  0.
        -11    1    3    3    0    0  0.88280315023E+02 -0.10925445927E+03 -0.36819809265E+03  0.39408093879E+03  0.00000000000E+00 0.  1.
         12    1    3    3    0    0  0.12916511875E+02 -0.97823375753E+01 -0.20785235735E+03  0.20848293183E+03  0.00000000000E+00 0. -1.
         13    1    5    5    0    0  0.54696778224E+02  0.50687380371E+02  0.13424642154E+03  0.15356773676E+03  0.00000000000E+00 0. -1.
        -14    1    5    5    0    0 -0.15335505018E+02 -0.69123333143E+01  0.35298565301E+01  0.17187726817E+02  0.00000000000E+00 0.  1.
          5    1    4    4  501    0 -0.11318032268E+03  0.93055410207E+02  0.49048784086E+02  0.15457150588E+03  0.41800000000E+01 0. -1.
         -5    1    4    4    0  501 -0.27377777424E+02 -0.17793660421E+02 -0.35647161324E+02  0.48521640103E+02  0.41800000000E+01 0. -1.
</event>
<event>
11    1  0.1078607E-008  0.1529814E+03  0.7561462E-02  0.1093871E+00
         22   -1    0    0    0    0  0.00000000000E+00  0.00000000000E+00  0.44541523021E+03  0.44541523021E+03  0.00000000000E+00 0. -1.
         22   -1    0    0    0    0 -0.00000000000E+00 -0.00000000000E+00 -0.14653419616E+04  0.14653419616E+04  0.00000000000E+00 0. -1.
        -24    2    1    2    0    0  0.64938997344E+02 -0.59676898044E+02 -0.14253722750E+04  0.14302347355E+04  0.78146468620E+02 0.  0.
         25    2    1    2    0    0 -0.52613995671E+02  0.59574390718E+02  0.14295334805E+03  0.20591275368E+03  0.12508821623E+03 0.  0.
         24    2    1    2    0    0 -0.12325001673E+02  0.10250732602E+00  0.26249219559E+03  0.27460970268E+03  0.79727159018E+02 0.  0.
        -11    1    5    5    0    0 -0.42962170447E+02  0.11238670872E+02  0.10909416648E+03  0.11778621725E+03  0.00000000000E+00 0.  1.
         12    1    5    5    0    0  0.30637168774E+02 -0.11136163546E+02  0.15339802911E+03  0.15682348543E+03  0.00000000000E+00 0. -1.
         11    1    3    3    0    0  0.52443482397E+02 -0.37916127579E+02 -0.45930316232E+03  0.46383978538E+03  0.00000000000E+00 0. -1.
        -12    1    3    3    0    0  0.12495514947E+02 -0.21760770465E+02 -0.96606911273E+03  0.96639495010E+03  0.00000000000E+00 0.  1.
          5    1    4    4  501    0  0.27420282720E+02  0.43650608661E+01  0.91740078557E+02  0.95940815477E+02  0.41800000000E+01 0.  1.
         -5    1    4    4    0  501 -0.80034278391E+02  0.55209329852E+02  0.51213269491E+02  0.10997193820E+03  0.41800000000E+01 0.  1.
</event>
<event>
11    1  0.1078607E-008  0.1302190E+03  0.7561462E-02  0.1119000E+00
         22   -1    0    0    0    0  0.00000000000E+00  0.00000000000E+00  0.58990171242E+03  0.58990171242E+03  0.00000000000E+00 0.  1.
         22   -1    0    0    0    0 -0.00000000000E+00 -0.00000000000E+00 -0.12687641839E+03  0.12687641839E+03  0.00000000000E+00 0.  1.
        -24    2    1    2    0    0  0.22241248096E+02 -0.13515681334E+02 -0.80180202541E+02  0.11808318983E+03  0.82688742171E+02 0.  0.
         25    2    1    2    0    0 -0.46783060428E+00  0.42617905479E+02  0.17139409270E+03  0.21642233193E+03  0.12508471535E+03 0.  0.
         24    2    1    2    0    0 -0.21773417492E+02 -0.29102224145E+02  0.37181140388E+03  0.38227260905E+03  0.81040770089E+02 0.  0.
        -11    1    5    5    0    0 -0.97900027907E+01 -0.10867822501E+02  0.35345778663E+03  0.35376031526E+03  0.00000000000E+00 0.  1.
         12    1    5    5    0    0 -0.11983414701E+02 -0.18234401643E+02  0.18353617242E+02  0.28512293788E+02  0.00000000000E+00 0. -1.
         13    1    3    3    0    0 -0.11521567931E+02 -0.55715767072E+01  0.13250648141E+02  0.18421961642E+02  0.00000000000E+00 0. -1.
        -14    1    3    3    0    0  0.33762816027E+02 -0.79441046268E+01 -0.93430850683E+02  0.99661228187E+02  0.00000000000E+00 0.  1.
          5    1    4    4  501    0  0.26164847791E+02 -0.41018702180E+01  0.15877902483E+03  0.16102694100E+03  0.41800000000E+01 0.  1.
         -5    1    4    4    0  501 -0.26632678395E+02  0.46719775697E+02  0.12615067866E+02  0.55395390935E+02  0.41800000000E+01 0.  1.
</event>
<event>
11    1  0.1078607E-008  0.1429901E+03  0.7561462E-02  0.1104265E+00
         22   -1    0    0    0    0  0.00000000000E+00  0.00000000000E+00  0.48266804199E+02  0.48266804199E+02  0.00000000000E+00 0. -1.
         22   -1    0    0    0    0 -0.00000000000E+00 -0.00000000000E+00 -0.25072544326E+04  0.25072544326E+04  0.00000000000E+00 0. -1.
         24    2    1    2    0    0 -0.10045543724E+01  0.10889814252E+02 -0.21183330853E+04  0.21199614521E+04  0.82352298803E+02 0.  0.
         25    2    1    2    0    0  0.35623856320E+02 -0.67692355896E+02 -0.26092646969E+03  0.29930288913E+03  0.12509309600E+03 0.  0.
        -24    2    1    2    0    0 -0.34619301948E+02  0.56802541644E+02 -0.79728073422E+02  0.13625689554E+03  0.88228969657E+02 0.  0.
        -11    1    3    3    0    0 -0.31346252996E+02  0.10084415743E+02 -0.39775773299E+03  0.39911839994E+03  0.00000000000E+00 0.  1.
         12    1    3    3    0    0  0.30341698623E+02  0.80539850961E+00 -0.17205753523E+04  0.17208430522E+04  0.00000000000E+00 0. -1.
         11    1    5    5    0    0 -0.27508629915E+02  0.72292494187E+02 -0.28774384741E+02  0.82528144610E+02  0.00000000000E+00 0. -1.
        -12    1    5    5    0    0 -0.71106720328E+01 -0.15489952543E+02 -0.50953688682E+02  0.53728750933E+02  0.00000000000E+00 0.  1.
          5    1    4    4  501    0  0.45483149386E+02  0.22789075140E+02 -0.60624530079E+02  0.79251907681E+02  0.41800000000E+01 0.  1.
         -5    1    4    4    0  501 -0.98592930657E+01 -0.90481431036E+02 -0.20030193961E+03  0.22005098145E+03  0.41800000000E+01 0.  1.
</event>
<event>
11    1  0.1078607E-008  0.1333198E+03  0.7561462E-02  0.1115256E+00
         22   -1    0    0    0    0  0.00000000000E+00  0.00000000000E+00  0.11748635947E+03  0.11748635947E+03  0.00000000000E+00 0. -1.
         22   -1    0    0    0    0 -0.00000000000E+00 -0.00000000000E+00 -0.10457795703E+04  0.10457795703E+04  0.00000000000E+00 0.  1.
         24    2    1    2    0    0 -0.11426318558E+02 -0.19565173518E+02 -0.77702779747E+03  0.78161516799E+03  0.81466042188E+02 0.  0.
         25    2    1    2    0    0  0.56472510208E+02  0.20928575257E+02 -0.22437188461E+03  0.26385344078E+03  0.12509494768E+03 0.  0.
        -24    2    1    2    0    0 -0.45046191650E+02 -0.13634017383E+01  0.73106471282E+02  0.11779732097E+03  0.80626512008E+02 0.  0.
        -13    1    3    3    0    0 -0.43210416771E+02  0.14551361733E+01 -0.51775682149E+03  0.51955883568E+03  0.00000000000E+00 0.  1.
         14    1    3    3    0    0  0.31784098213E+02 -0.21020309692E+02 -0.25927097598E+03  0.26205633231E+03  0.00000000000E+00 0. -1.
         13    1    5    5    0    0 -0.44986785367E+02 -0.75330880856E+01  0.89405900003E+02  0.10036918466E+03  0.00000000000E+00 0. -1.
        -14    1    5    5    0    0 -0.59406282795E-01  0.61696863473E+01 -0.16299428721E+02  0.17428136314E+02  0.00000000000E+00 0.  1.
          5    1    4    4  501    0  0.37473223367E+02  0.50452841077E+02 -0.21926144788E+03  0.22812888149E+03  0.41800000000E+01 0.  1.
         -5    1    4    4    0  501  0.18999286840E+02 -0.29524265820E+02 -0.51104367263E+01  0.35724559286E+02  0.41800000000E+01 0.  1.
</event>
<event>
11    1  0.1078607E-008  0.1520732E+03  0.7561462E-02  0.1094779E+00
         22   -1    0    0    0    0  0.00000000000E+00  0.00000000000E+00  0.84208260130E+02  0.84208260130E+02  0.00000000000E+00 0. -1.
         22   -1    0    0    0    0 -0.00000000000E+00 -0.00000000000E+00 -0.20145095882E+04  0.20145095882E+04  0.00000000000E+00 0. -1.
         24    2    1    2    0    0  0.30916120767E+02 -0.61184657440E+02 -0.16514711518E+04  0.16548295142E+04  0.80027413867E+02 0.  0.
         25    2    1    2    0    0  0.50141479624E+02  0.92458650118E+02 -0.28158864555E+03  0.32557969037E+03  0.12508876656E+03 0.  0.
        -24    2    1    2    0    0 -0.81057600391E+02 -0.31273992678E+02  0.27584692867E+01  0.11830864376E+03  0.80255397559E+02 0.  0.
        -13    1    3    3    0    0 -0.16739651187E+02 -0.51808482793E+02 -0.69691711638E+03  0.69904062966E+03  0.00000000000E+00 0.  1.
         14    1    3    3    0    0  0.47655771954E+02 -0.93761746469E+01 -0.95455403542E+03  0.95578888453E+03  0.00000000000E+00 0. -1.
         13    1    5    5    0    0 -0.83051517804E+02 -0.23078783610E+02  0.28841661615E+02  0.90895689156E+02  0.00000000000E+00 0. -1.
        -14    1    5    5    0    0  0.19939174129E+01 -0.81952090677E+01 -0.26083192328E+02  0.27412954608E+02  0.00000000000E+00 0.  1.
          5    1    4    4  501    0 -0.27538066572E+02  0.58653016569E+02 -0.18981068584E+03  0.20060929770E+03  0.41800000000E+01 0. -1.
         -5    1    4    4    0  501  0.77679546195E+02  0.33805633549E+02 -0.91777959711E+02  0.12497039268E+03  0.41800000000E+01 0. -1.
</event>
<event>
11    1  0.1078607E-008  0.1470269E+03  0.7561462E-02  0.1099956E+00
         22   -1    0    0    0    0  0.00000000000E+00  0.00000000000E+00  0.40383160637E+03  0.40383160637E+03  0.00000000000E+00 0. -1.
         22   -1    0    0    0    0 -0.00000000000E+00 -0.00000000000E+00 -0.61623448017E+03  0.61623448017E+03  0.00000000000E+00 0.  1.
         24    2    1    2    0    0  0.65125497326E+00 -0.15592466153E+02 -0.54497171969E+03  0.55075326560E+03  0.78047646785E+02 0.  0.
         25    2    1    2    0    0 -0.44928639079E+02  0.76516194454E+02  0.42937526644E+02  0.15926040892E+03  0.12508771336E+03 0.  0.
        -24    2    1    2    0    0  0.44277384106E+02 -0.60923728301E+02  0.28963131925E+03  0.31005241202E+03  0.81080266981E+02 0.  0.
        -13    1    3    3    0    0 -0.38567133664E+02 -0.10633040577E+02 -0.28442410126E+03  0.28722387563E+03  0.00000000000E+00 0.  1.
         14    1    3    3    0    0  0.39218388637E+02 -0.49594255762E+01 -0.26054761843E+03  0.26352938997E+03  0.00000000000E+00 0. -1.
         11    1    5    5    0    0  0.42199834422E+02  0.55613648968E+01  0.88431464360E+02  0.98142135160E+02  0.00000000000E+00 0. -1.
        -12    1    5    5    0    0  0.20775496838E+01 -0.66485093198E+02  0.20119985489E+03  0.21191027686E+03  0.00000000000E+00 0.  1.
          5    1    4    4  501    0  0.36582959240E+02  0.78840014673E+01  0.36475547118E+02  0.52425264172E+02  0.41800000000E+01 0. -1.
         -5    1    4    4    0  501 -0.81511598319E+02  0.68632192987E+02  0.64619795250E+01  0.10683514475E+03  0.41800000000E+01 0. -1.
</event>
<event>
11    1  0.1078607E-008  0.2319098E+03  0.7561462E-02  0.1034003E+00
         22   -1    0    0    0    0  0.00000000000E+00  0.00000000000E+00  0.69509104338E+03  0.69509104338E+03  0.00000000000E+00 0.  1.
         22   -1    0    0    0    0 -0.00000000000E+00 -0.00000000000E+00 -0.71739603084E+03  0.71739603084E+03  0.00000000000E+00 0.  1.
        -24    2    1    2    0    0  0.13500237934E+03 -0.92622978653E+02 -0.53741601141E+03  0.56644742128E+03  0.72402024546E+02 0.  0.
         25    2    1    2    0    0 -0.24980703763E+03 -0.63213033959E+02 -0.37186542353E+01  0.28646443301E+03  0.12509436148E+03 0.  0.
         24    2    1    2    0    0  0.11480465830E+03  0.15583601261E+03  0.51882967818E+03  0.55957521992E+03  0.80468747931E+02 0.  0.
        -13    1    5    5    0    0  0.54136660262E+02  0.75214416782E+02  0.35730061226E+03  0.36912289823E+03  0.00000000000E+00 0.  1.
         14    1    5    5    0    0  0.60667998037E+02  0.80621595829E+02  0.16152906592E+03  0.19045232169E+03  0.00000000000E+00 0. -1.
         13    1    3    3    0    0  0.20817126239E+02 -0.28828809459E+02 -0.22444221201E+03  0.22724163248E+03  0.00000000000E+00 0. -1.
        -14    1    3    3    0    0  0.11418525310E+03 -0.63794169194E+02 -0.31297379940E+03  0.33920578880E+03  0.00000000000E+00 0.  1.
          5    1    4    4  501    0 -0.24124654961E+03 -0.88053483574E+02 -0.15613381548E+02  0.25732190686E+03  0.41800000000E+01 0.  1.
         -5    1    4    4    0  501 -0.85604880255E+01  0.24840449615E+02  0.11894727313E+02  0.29142526146E+02  0.41800000000E+01 0.  1.
</event>
<event>
11    1  0.1078607E-008  0.1458741E+03  0.7561462E-02  0.1101171E+00
         22   -1    0    0    0    0  0.00000000000E+00  0.00000000000E+00  0.90403364134E+02  0.90403364134E+02  0.00000000000E+00 0.  1.
         22   -1    0    0    0    0 -0.00000000000E+00 -0.00000000000E+00 -0.11968162009E+04  0.11968162009E+04  0.00000000000E+00 0. -1.
         24    2    1    2    0    0 -0.32551640745E+02  0.11616709472E+01 -0.92438316266E+03  0.92831825794E+03  0.78927801386E+02 0.  0.
         25    2    1    2    0    0 -0.47430605852E+02 -0.12033019949E+02 -0.20240241692E+03  0.24291537743E+03  0.12508671503E+03 0.  0.
        -24    2    1    2    0    0  0.79982246597E+02  0.10871349001E+02  0.20372742780E+02  0.11598592969E+03  0.80761013107E+02 0.  0.
        -11    1    3    3    0    0  0.13377155737E+02 -0.27837477088E+02 -0.36476917555E+03  0.36607434335E+03  0.00000000000E+00 0.  1.
         12    1    3    3    0    0 -0.45928796482E+02  0.28999148035E+02 -0.55961398710E+03  0.56224391459E+03  0.00000000000E+00 0. -1.
         13    1    5    5    0    0  0.69423063400E+02  0.20679506313E+02 -0.18301470843E+02  0.74713770807E+02  0.00000000000E+00 0. -1.
        -14    1    5    5    0    0  0.10559183197E+02 -0.98081573113E+01  0.38674213622E+02  0.41272158884E+02  0.00000000000E+00 0.  1.
          5    1    4    4  501    0 -0.59762955398E+02  0.41412073446E+02 -0.77039827044E+02  0.10601498958E+03  0.41800000000E+01 0. -1.
         -5    1    4    4    0  501  0.12332349546E+02 -0.53445093395E+02 -0.12536258988E+03  0.13690038785E+03  0.41800000000E+01 0. -1.
</event>
<event>
11    1  0.1078607E-008  0.1475061E+03  0.7561462E-02  0.1099455E+00
         22   -1    0    0    0    0  0.00000000000E+00  0.00000000000E+00  0.71782224252E+03  0.71782224252E+03  0.00000000000E+00 0. -1.
         22   -1    0    0    0    0 -0.00000000000E+00 -0.00000000000E+00 -0.92302470197E+03  0.92302470197E+03  0.00000000000E+00 0. -1.
         24    2    1    2    0    0  0.77202288702E+01 -0.59464624848E+02 -0.55353303401E+03  0.56255770880E+03  0.80478024580E+02 0.  0.
         25    2    1    2    0    0 -0.60629919086E+02  0.12890506429E+01 -0.34715158434E+03  0.37395131925E+03  0.12509083868E+03 0.  0.
        -24    2    1    2    0    0  0.52909690216E+02  0.58175574205E+02  0.69548215890E+03  0.70433791644E+03  0.78820266661E+02 0.  0.
        -11    1    3    3    0    0 -0.27560695691E+02 -0.19301256309E+02 -0.92386958369E+02  0.98323346763E+02  0.00000000000E+00 0.  1.
         12    1    3    3    0    0  0.35280924561E+02 -0.40163368540E+02 -0.46114607564E+03  0.46423436203E+03  0.00000000000E+00 0. -1.
         11    1    5    5    0    0  0.34224834713E+02  0.67411985658E+02  0.64909726249E+03  0.65348524948E+03  0.00000000000E+00 0. -1.
        -12    1    5    5    0    0  0.18684855503E+02 -0.92364114530E+01  0.46384896406E+02  0.50852666954E+02  0.00000000000E+00 0.  1.
          5    1    4    4  501    0 -0.29754003542E+02  0.42686064903E+02 -0.29798970044E+03  0.30252724643E+03  0.41800000000E+01 0. -1.
         -5    1    4    4    0  501 -0.30875915544E+02 -0.41397014260E+02 -0.49161883898E+02  0.71424072823E+02  0.41800000000E+01 0. -1.
</event>
<event>
11    1  0.1078607E-008  0.1621823E+03  0.7561462E-02  0.1085043E+00
         22   -1    0    0    0    0  0.00000000000E+00  0.00000000000E+00  0.54569002160E+03  0.54569002160E+03  0.00000000000E+00 0.  1.
         22   -1    0    0    0    0 -0.00000000000E+00 -0.00000000000E+00 -0.81599346348E+03  0.81599346348E+03  0.00000000000E+00 0. -1.
         24    2    1    2    0    0  0.28363688778E+02 -0.40134647821E+01 -0.74321757882E+03  0.74827529370E+03  0.81993529971E+02 0.  0.
         25    2    1    2    0    0  0.69438571209E+02 -0.39617812279E+02  0.30911860659E+02  0.15163956894E+03  0.12509088503E+03 0.  0.
        -24    2    1    2    0    0 -0.97802259988E+02  0.43631277061E+02  0.44200227628E+03  0.46176862244E+03  0.79970482253E+02 0.  0.
        -13    1    3    3    0    0  0.30501213604E+02 -0.22281749368E+02 -0.14704569265E+03  0.15181974875E+03  0.00000000000E+00 0.  1.
         14    1    3    3    0    0 -0.21375248260E+01  0.18268284586E+02 -0.59617188617E+03  0.59645554495E+03  0.00000000000E+00 0. -1.
         11    1    5    5    0    0 -0.46996069923E+02  0.44921563206E+02  0.12679591199E+03  0.14249133562E+03  0.00000000000E+00 0. -1.
        -12    1    5    5    0    0 -0.50806190064E+02 -0.12902861451E+01  0.31520636429E+03  0.31927728682E+03  0.00000000000E+00 0.  1.
          5    1    4    4  501    0  0.19668294031E+02  0.44684517890E+02  0.36478153066E+00  0.49001565228E+02  0.41800000000E+01 0. -1.
         -5    1    4    4    0  501  0.49770277178E+02 -0.84302330169E+02  0.30547079128E+02  0.10263800371E+03  0.41800000000E+01 0. -1.
</event>
<event>
11    1  0.1078607E-008  0.1432062E+03  0.7561462E-02  0.1104030E+00
         22   -1    0    0    0    0  0.00000000000E+00  0.00000000000E+00  0.21207642394E+03  0.21207642394E+03  0.00000000000E+00 0. -1.
         22   -1    0    0    0    0 -0.00000000000E+00 -0.00000000000E+00 -0.55273872987E+03  0.55273872987E+03  0.00000000000E+00 0. -1.
         24    2    1    2    0    0  0.39668048629E+02 -0.16691237490E+01 -0.33655657897E+03  0.34825576826E+03  0.80221002392E+02 0.  0.
         25    2    1    2    0    0 -0.49226399163E+01  0.63589389849E+02 -0.16884343990E+03  0.21961010625E+03  0.12511054586E+03 0.  0.
        -24    2    1    2    0    0 -0.34745408713E+02 -0.61920266100E+02  0.16473771294E+03  0.19694927929E+03  0.81296628270E+02 0.  0.
        -13    1    3    3    0    0  0.85764063310E+01 -0.77362359075E+01 -0.14333605819E+01  0.11638668916E+02  0.00000000000E+00 0.  1.
         14    1    3    3    0    0  0.31091642298E+02  0.60671121585E+01 -0.33512321839E+03  0.33661709935E+03  0.00000000000E+00 0. -1.
         11    1    5    5    0    0 -0.36296671164E+02 -0.76718325340E+02  0.16036829577E+03  0.18144183660E+03  0.00000000000E+00 0. -1.
        -12    1    5    5    0    0  0.15512624515E+01  0.14798059240E+02  0.43694171740E+01  0.15507442694E+02  0.00000000000E+00 0.  1.
          5    1    4    4  501    0 -0.36363775321E+02  0.54510781853E+01  0.13020487181E+01  0.37029800699E+02  0.41800000000E+01 0. -1.
         -5    1    4    4    0  501  0.31441135404E+02  0.58138311663E+02 -0.17014548862E+03  0.18258030555E+03  0.41800000000E+01 0. -1.
</event>
<event>
11    1  0.1078607E-008  0.3332874E+03  0.7561462E-02  0.9870110E-01
         22   -1    0    0    0    0  0.00000000000E+00  0.00000000000E+00  0.73345415508E+03  0.73345415508E+03  0.00000000000E+00 0.  1.
         22   -1    0    0    0    0 -0.00000000000E+00 -0.00000000000E+00 -0.34443266729E+03  0.34443266729E+03  0.00000000000E+00 0. -1.
         24    2    1    2    0    0 -0.31089681489E+03 -0.11624229069E+03 -0.12336277831E+03  0.36026536244E+03  0.66360053100E+02 0.  0.
         25    2    1    2    0    0  0.27405982235E+03 -0.24998477194E+02  0.19639248777E+03  0.36049017662E+03  0.12509775417E+03 0.  0.
        -24    2    1    2    0    0  0.36836992537E+02  0.14124076789E+03  0.31599177833E+03  0.35713128332E+03  0.79912646196E+02 0.  0.
        -13    1    3    3    0    0 -0.32945188620E+02 -0.35946498722E+02 -0.24123404911E+02  0.54401055946E+02  0.00000000000E+00 0.  1.
         14    1    3    3    0    0 -0.27795162627E+03 -0.80295791972E+02 -0.99239373396E+02  0.30586430649E+03  0.00000000000E+00 0. -1.
         11    1    5    5    0    0  0.10037525961E+02  0.27642803233E+02  0.12472788748E+02  0.31944435465E+02  0.00000000000E+00 0. -1.
        -12    1    5    5    0    0  0.26799466576E+02  0.11359796466E+03  0.30351898958E+03  0.32518684785E+03  0.00000000000E+00 0.  1.
          5    1    4    4  501    0  0.81794174081E+02  0.21819961771E+02  0.12303818135E+03  0.14940637241E+03  0.41800000000E+01 0. -1.
         -5    1    4    4    0  501  0.19226564827E+03 -0.46818438965E+02  0.73354306417E+02  0.21108380421E+03  0.41800000000E+01 0. -1.
</event>
<event>
11    1  0.1078607E-008  0.1484317E+03  0.7561462E-02  0.1098492E+00
         22   -1    0    0    0    0  0.00000000000E+00  0.00000000000E+00  0.15010860005E+04  0.15010860005E+04  0.00000000000E+00 0. -1.
         22   -1    0    0    0    0 -0.00000000000E+00 -0.00000000000E+00 -0.36146253743E+03  0.36146253743E+03  0.00000000000E+00 0. -1.
         24    2    1    2    0    0 -0.66675965375E+02  0.38421083283E+02 -0.30035136681E+03  0.31864328784E+03  0.73489709109E+02 0.  0.
         25    2    1    2    0    0  0.11353780389E+03 -0.70762423529E+02  0.11792429110E+03  0.21784056559E+03  0.12510083968E+03 0.  0.
        -24    2    1    2    0    0 -0.46861838517E+02  0.32341340246E+02  0.13220505387E+04  0.13260646845E+04  0.85953046376E+02 0.  0.
        -11    1    3    3    0    0 -0.57433149873E+02  0.19062563701E+02 -0.98138671886E+02  0.11529591042E+03  0.00000000000E+00 0.  1.
         12    1    3    3    0    0 -0.92428155020E+01  0.19358519582E+02 -0.20221269492E+03  0.20334737743E+03  0.00000000000E+00 0. -1.
         11    1    5    5    0    0  0.16655604286E+02 -0.12521843460E+02  0.47352356700E+03  0.47398182900E+03  0.00000000000E+00 0. -1.
        -12    1    5    5    0    0 -0.63517442802E+02  0.44863183706E+02  0.84852697174E+03  0.85208285546E+03  0.00000000000E+00 0.  1.
          5    1    4    4  501    0 -0.17150166782E+02  0.13777760127E+02 -0.20984039108E+00  0.22393555496E+02  0.41800000000E+01 0.  1.
         -5    1    4    4    0  501  0.13068797067E+03 -0.84540183656E+02  0.11813413149E+03  0.19544701009E+03  0.41800000000E+01 0.  1.
</event>
<event>
11    1  0.1078607E-008  0.4636921E+03  0.7561462E-02  0.9478525E-01
         22   -1    0    0    0    0  0.00000000000E+00  0.00000000000E+00  0.18507530750E+04  0.18507530750E+04  0.00000000000E+00 0. -1.
         22   -1    0    0    0    0 -0.00000000000E+00 -0.00000000000E+00 -0.81567573801E+03  0.81567573801E+03  0.00000000000E+00 0. -1.
        -24    2    1    2    0    0  0.25334053276E+03 -0.17049595663E+03 -0.42049142498E+03  0.52577645008E+03  0.79859502928E+02 0.  0.
         25    2    1    2    0    0  0.17343808627E+03  0.34767739909E+03 -0.17490654079E+03  0.44406947303E+03  0.12508019532E+03 0.  0.
         24    2    1    2    0    0 -0.42677861903E+03 -0.17718144246E+03  0.16304753028E+04  0.16965828899E+04  0.80065824228E+02 0.  0.
        -11    1    5    5    0    0 -0.23624774786E+03 -0.11978759454E+03  0.10522116863E+04  0.10850398606E+04  0.00000000000E+00 0.  1.
         12    1    5    5    0    0 -0.19053087117E+03 -0.57393847918E+02  0.57826361644E+03  0.61154302935E+03  0.00000000000E+00 0. -1.
         11    1    3    3    0    0  0.22996354829E+03 -0.12475002228E+03 -0.37444605200E+03  0.45678840556E+03  0.00000000000E+00 0. -1.
        -12    1    3    3    0    0  0.23376984472E+02 -0.45745934355E+02 -0.46045372981E+02  0.68988044515E+02  0.00000000000E+00 0.  1.
          5    1    4    4  501    0  0.48191381274E+02  0.16921588552E+03 -0.21177359183E+02  0.17726358364E+03  0.41800000000E+01 0.  1.
         -5    1    4    4    0  501  0.12524670499E+03  0.17846151356E+03 -0.15372918161E+03  0.26680588939E+03  0.41800000000E+01 0.  1.
</event>
<event>
11    1  0.1078607E-008  0.3103364E+03  0.7561462E-02  0.9959091E-01
         22   -1    0    0    0    0  0.00000000000E+00  0.00000000000E+00  0.48027129641E+03  0.48027129641E+03  0.00000000000E+00 0.  1.
         22   -1    0    0    0    0 -0.00000000000E+00 -0.00000000000E+00 -0.10979594725E+04  0.10979594725E+04  0.00000000000E+00 0. -1.
         24    2    1    2    0    0  0.28642583688E+03  0.81622469370E+02 -0.79340280257E+03  0.85129093087E+03  0.80661355747E+02 0.  0.
         25    2    1    2    0    0 -0.23858044709E+03 -0.73267543593E+02 -0.19749375187E+03  0.34196069832E+03  0.12507827345E+03 0.  0.
        -24    2    1    2    0    0 -0.47845389788E+02 -0.83549257770E+01  0.37320837836E+03  0.38497913973E+03  0.81027515342E+02 0.  0.
        -11    1    3    3    0    0  0.20917800874E+02 -0.48948098586E+01 -0.12607004582E+03  0.12788733327E+03  0.00000000000E+00 0.  1.
         12    1    3    3    0    0  0.26550803601E+03  0.86517279229E+02 -0.66733275675E+03  0.72340359760E+03  0.00000000000E+00 0. -1.
         13    1    5    5    0    0  0.11122723376E+02 -0.27444474074E+02  0.16889136014E+03  0.17146779775E+03  0.00000000000E+00 0. -1.
        -14    1    5    5    0    0 -0.58968113164E+02  0.19089548297E+02  0.20431701821E+03  0.21351134198E+03  0.00000000000E+00 0.  1.
          5    1    4    4  501    0 -0.50726862958E+02 -0.45265734193E+02 -0.26148673740E+00  0.68115652334E+02  0.41800000000E+01 0. -1.
         -5    1    4    4    0  501 -0.18785358413E+03 -0.28001809400E+02 -0.19723226513E+03  0.27384504598E+03  0.41800000000E+01 0. -1.
</event>
<event>
11    1  0.1078607E-008  0.1426268E+03  0.7561462E-02  0.1104660E+00
         22   -1    0    0    0    0  0.00000000000E+00  0.00000000000E+00  0.10744564919E+04  0.10744564919E+04  0.00000000000E+00 0.  1.
         22   -1    0    0    0    0 -0.00000000000E+00 -0.00000000000E+00 -0.11806693676E+03  0.11806693676E+03  0.00000000000E+00 0.  1.
        -24    2    1    2    0    0 -0.40413210721E+02 -0.50650802454E+02 -0.56092757129E+02  0.11852517542E+03  0.81872391049E+02 0.  0.
         25    2    1    2    0    0  0.10249415083E+03  0.36506404929E+02  0.23728709738E+03  0.28946559931E+03  0.12508956010E+03 0.  0.
         24    2    1    2    0    0 -0.62080940109E+02  0.14144397525E+02  0.77519521486E+03  0.78453265391E+03  0.10251710492E+03 0.  0.
        -11    1    5    5    0    0 -0.62177207700E+02 -0.11070845034E+02  0.73042222398E+03  0.73314745724E+03  0.00000000000E+00 0.  1.
         12    1    5    5    0    0  0.96267590268E-01  0.25215242559E+02  0.44772990883E+02  0.51385196675E+02  0.00000000000E+00 0. -1.
         13    1    3    3    0    0 -0.25410678228E+02 -0.53798417961E+02  0.90246552992E+00  0.59504510645E+02  0.00000000000E+00 0. -1.
        -14    1    3    3    0    0 -0.15002532494E+02  0.31476155067E+01 -0.56995222659E+02  0.59020664775E+02  0.00000000000E+00 0.  1.
          5    1    4    4  501    0  0.73178045681E+02 -0.21844029029E+02  0.20006267695E+03  0.21418388147E+03  0.41800000000E+01 0. -1.
         -5    1    4    4    0  501  0.29316105149E+02  0.58350433958E+02  0.37224420428E+02  0.75281717837E+02  0.41800000000E+01 0. -1.
</event>
<event>
11    1  0.1078607E-008  0.1604595E+03  0.7561462E-02  0.1086646E+00
         22   -1    0    0    0    0  0.00000000000E+00  0.00000000000E+00  0.16421101574E+04  0.16421101574E+04  0.00000000000E+00 0. -1.
         22   -1    0    0    0    0 -0.00000000000E+00 -0.00000000000E+00 -0.89592464231E+02  0.89592464231E+02  0.00000000000E+00 0. -1.
        -24    2    1    2    0    0  0.12093851100E+02 -0.80703419915E+02 -0.29096379657E+02  0.11491144679E+03  0.75489986586E+02 0.  0.
         25    2    1    2    0    0 -0.10565190386E+03  0.34287256230E+02  0.49074173497E+03  0.51847233397E+03  0.12509264536E+03 0.  0.
         24    2    1    2    0    0  0.93558052763E+02  0.46416163684E+02  0.10908723379E+04  0.10983188409E+04  0.73445552703E+02 0.  0.
        -13    1    5    5    0    0 -0.29210795822E+01  0.16579746088E+02  0.37280962582E+03  0.37318954673E+03  0.00000000000E+00 0.  1.
         14    1    5    5    0    0  0.96479132345E+02  0.29836417596E+02  0.71806271207E+03  0.72512929417E+03  0.00000000000E+00 0. -1.
         11    1    3    3    0    0  0.37938345323E+02 -0.15883799340E+02 -0.14569096608E+02  0.43633378316E+02  0.00000000000E+00 0. -1.
        -12    1    3    3    0    0 -0.25844494223E+02 -0.64819620575E+02 -0.14527283049E+02  0.71278068478E+02  0.00000000000E+00 0.  1.
          5    1    4    4  501    0 -0.94175702162E+02  0.72904335688E+02  0.42375362566E+03  0.44019167723E+03  0.41800000000E+01 0.  1.
         -5    1    4    4    0  501 -0.11476201701E+02 -0.38617079458E+02  0.66988109306E+02  0.78280656740E+02  0.41800000000E+01 0.  1.
</event>
<event>
11    1  0.1078607E-008  0.1357203E+03  0.7561462E-02  0.1112434E+00
         22   -1    0    0    0    0  0.00000000000E+00  0.00000000000E+00  0.50645820205E+03  0.50645820205E+03  0.00000000000E+00 0. -1.
         22   -1    0    0    0    0 -0.00000000000E+00 -0.00000000000E+00 -0.12038286486E+04  0.12038286486E+04  0.00000000000E+00 0. -1.
        -24    2    1    2    0    0  0.32878966179E+01  0.18737842696E+02 -0.11095423027E+04  0.11124991073E+04  0.78792292906E+02 0.  0.
         25    2    1    2    0    0 -0.50766660285E+02 -0.40003455042E+02 -0.31058913661E+02  0.14419672085E+03  0.12510199029E+03 0.  0.
         24    2    1    2    0    0  0.47478763667E+02  0.21265612346E+02  0.44323076973E+03  0.45359102251E+03  0.81147034433E+02 0.  0.
        -13    1    5    5    0    0 -0.13247349088E+02 -0.27047716717E+00  0.13000559632E+02  0.18562865256E+02  0.00000000000E+00 0.  1.
         14    1    5    5    0    0  0.60726112756E+02  0.21536089513E+02  0.43023021010E+03  0.43502815725E+03  0.00000000000E+00 0. -1.
         13    1    3    3    0    0 -0.14657472723E+02  0.22231302773E+02 -0.10470223223E+04  0.10473608813E+04  0.00000000000E+00 0. -1.
        -14    1    3    3    0    0  0.17945369341E+02 -0.34934600774E+01 -0.62519980343E+02  0.65138225998E+02  0.00000000000E+00 0.  1.
          5    1    4    4  501    0  0.16004603250E+02 -0.40557582792E+02 -0.57477975310E+02  0.72265170676E+02  0.41800000000E+01 0.  1.
         -5    1    4    4    0  501 -0.66771263536E+02  0.55412774986E+00  0.26419061649E+02  0.71931550172E+02  0.41800000000E+01 0.  1.
</event>
<event>
11    1  0.1078607E-008  0.1286997E+03  0.7561462E-02  0.1120877E+00
         22   -1    0    0    0    0  0.00000000000E+00  0.00000000000E+00  0.16781344208E+04  0.16781344208E+04  0.00000000000E+00 0. -1.
         22   -1    0    0    0    0 -0.00000000000E+00 -0.00000000000E+00 -0.89565564679E+02  0.89565564679E+02  0.00000000000E+00 0. -1.
        -24    2    1    2    0    0 -0.28180261863E+01  0.29772909090E+02 -0.59659979777E+02  0.10310993046E+03  0.78600109324E+02 0.  0.
         25    2    1    2    0    0  0.13037879683E+02 -0.38882986401E+02  0.66396872239E+03  0.67689479607E+03  0.12510087005E+03 0.  0.
         24    2    1    2    0    0 -0.10219853497E+02  0.91100773104E+01  0.98426011355E+03  0.98769525900E+03  0.81157344718E+02 0.  0.
        -13    1    5    5    0    0  0.20022346974E+02 -0.11097252909E+02  0.77214872031E+03  0.77248798676E+03  0.00000000000E+00 0.  1.
         14    1    5    5    0    0 -0.30242200470E+02  0.20207330220E+02  0.21211139324E+03  0.21520727224E+03  0.00000000000E+00 0. -1.
         13    1    3    3    0    0 -0.28001622919E+02 -0.59116175572E+00 -0.57075066020E+02  0.63576752980E+02  0.00000000000E+00 0. -1.
        -14    1    3    3    0    0  0.25183596733E+02  0.30364070846E+02 -0.25849137574E+01  0.39533177483E+02  0.00000000000E+00 0.  1.
          5    1    4    4  501    0 -0.40778422466E+02  0.24682980711E+02  0.26830955105E+03  0.27254287160E+03  0.41800000000E+01 0.  1.
         -5    1    4    4    0  501  0.53816302149E+02 -0.63565967112E+02  0.39565917134E+03  0.40435192446E+03  0.41800000000E+01 0.  1.
</event>
<event>
11    1  0.1078607E-008  0.1409872E+03  0.7561462E-02  0.1106461E+00
         22   -1    0    0    0    0  0.00000000000E+00  0.00000000000E+00  0.25243034513E+03  0.25243034513E+03  0.00000000000E+00 0. -1.
         22   -1    0    0    0    0 -0.00000000000E+00 -0.00000000000E+00 -0.37079329227E+03  0.37079329227E+03  0.00000000000E+00 0.  1.
         24    2    1    2    0    0  0.55945635190E+02  0.25475629446E+02 -0.23135373525E+03  0.25234345385E+03  0.79835744447E+02 0.  0.
         25    2    1    2    0    0 -0.59037189903E+02 -0.63487038280E+02 -0.70521265176E+02  0.16773949603E+03  0.12508915166E+03 0.  0.
        -24    2    1    2    0    0  0.30915547132E+01  0.38011408834E+02  0.18351205329E+03  0.20314068753E+03  0.78326498146E+02 0.  0.
        -13    1    3    3    0    0  0.76710547738E+02  0.19596192168E+02 -0.18073608131E+03  0.19731713045E+03  0.00000000000E+00 0.  1.
         14    1    3    3    0    0 -0.20764912549E+02  0.58794372783E+01 -0.50617653946E+02  0.55026323400E+02  0.00000000000E+00 0. -1.
         11    1    5    5    0    0  0.10716652130E+02  0.60011841661E+02  0.15345161336E+03  0.16511712635E+03  0.00000000000E+00 0. -1.
        -12    1    5    5    0    0 -0.76250974167E+01 -0.22000432827E+02  0.30060439936E+02  0.38023561173E+02  0.00000000000E+00 0.  1.
          5    1    4    4  501    0 -0.18844661010E+02 -0.97361524592E+02 -0.50208175001E+02  0.11123273330E+03  0.41800000000E+01 0. -1.
         -5    1    4    4    0  501 -0.40192528893E+02  0.33874486312E+02 -0.20313090175E+02  0.56506762730E+02  0.41800000000E+01 0. -1.
</event>
<event>
11    1  0.1078607E-008  0.1538501E+03  0.7561462E-02  0.1093008E+00
         22   -1    0    0    0    0  0.00000000000E+00  0.00000000000E+00  0.13124589160E+03  0.13124589160E+03  0.00000000000E+00 0.  1.
         22   -1    0    0    0    0 -0.00000000000E+00 -0.00000000000E+00 -0.11765845829E+04  0.11765845829E+04  0.00000000000E+00 0. -1.
        -24    2    1    2    0    0 -0.43215791925E+02 -0.49859592292E+01 -0.40450850642E+03  0.41478482345E+03  0.80788944409E+02 0.  0.
         25    2    1    2    0    0  0.72506521805E+02  0.88792572646E+02 -0.72583921537E+03  0.74540699582E+03  0.12509079181E+03 0.  0.
         24    2    1    2    0    0 -0.29290729880E+02 -0.83806613417E+02  0.85009030523E+02  0.14763865520E+03  0.81787174601E+02 0.  0.
        -13    1    5    5    0    0 -0.57430848520E+02 -0.52192892970E+02  0.62865338008E+02  0.99872174108E+02  0.00000000000E+00 0.  1.
         14    1    5    5    0    0  0.28140118640E+02 -0.31613720446E+02  0.22143692516E+02  0.47766481091E+02  0.00000000000E+00 0. -1.
         11    1    3    3    0    0 -0.52413875337E+02 -0.18374943800E+02 -0.38674888082E+03  0.39071671286E+03  0.00000000000E+00 0. -1.
        -12    1    3    3    0    0  0.91980834117E+01  0.13388984571E+02 -0.17759625596E+02  0.24068110595E+02  0.00000000000E+00 0.  1.
          5    1    4    4  501    0  0.55254706092E+02 -0.29358455124E+01 -0.46578234569E+03  0.46907607879E+03  0.41800000000E+01 0.  1.
         -5    1    4    4    0  501  0.17251815713E+02  0.91728418158E+02 -0.26005686968E+03  0.27633091704E+03  0.41800000000E+01 0.  1.
</event>
<event>
11    1  0.1078607E-008  0.1525679E+03  0.7561462E-02  0.1094283E+00
         22   -1    0    0    0    0  0.00000000000E+00  0.00000000000E+00  0.10725620285E+03  0.10725620285E+03  0.00000000000E+00 0.  1.
         22   -1    0    0    0    0 -0.00000000000E+00 -0.00000000000E+00 -0.75839071339E+03  0.75839071339E+03  0.00000000000E+00 0. -1.
        -24    2    1    2    0    0 -0.21953681904E+02 -0.80606564509E+02 -0.55322199742E+03  0.56529064764E+03  0.80743764403E+02 0.  0.
         25    2    1    2    0    0  0.68139666493E+02 -0.20331895550E+02 -0.72667307141E+02  0.16119292570E+03  0.12508485777E+03 0.  0.
         24    2    1    2    0    0 -0.46185984589E+02  0.10093846006E+03 -0.25245205984E+02  0.13916334289E+03  0.80046222198E+02 0.  0.
        -11    1    5    5    0    0 -0.49177912314E+02  0.94302366544E+02  0.65392896698E+01  0.10655592759E+03  0.00000000000E+00 0.  1.
         12    1    5    5    0    0  0.29919277249E+01  0.66360935149E+01 -0.31784495654E+02  0.32607415301E+02  0.00000000000E+00 0. -1.
         13    1    3    3    0    0 -0.36070980055E+02 -0.76270492432E+02 -0.53601807638E+03  0.54261743598E+03  0.00000000000E+00 0. -1.
        -14    1    3    3    0    0  0.14117298151E+02 -0.43360720762E+01 -0.17203921044E+02  0.22673211670E+02  0.00000000000E+00 0.  1.
          5    1    4    4  501    0  0.89080830367E+02 -0.37091845921E+02 -0.87441531942E+02  0.13028696512E+03  0.41800000000E+01 0. -1.
         -5    1    4    4    0  501 -0.20941163875E+02  0.16759950371E+02  0.14774224801E+02  0.30905960579E+02  0.41800000000E+01 0. -1.
</event>
<event>
11    1  0.1078607E-008  0.1598016E+03  0.7561462E-02  0.1087264E+00
         22   -1    0    0    0    0  0.00000000000E+00  0.00000000000E+00  0.39639097221E+03  0.39639097221E+03  0.00000000000E+00 0. -1.
         22   -1    0    0    0    0 -0.00000000000E+00 -0.00000000000E+00 -0.11070628534E+04  0.11070628534E+04  0.00000000000E+00 0. -1.
        -24    2    1    2    0    0  0.31049959036E+02  0.20004267336E+02 -0.73720913591E+03  0.74245389392E+03  0.79976270641E+02 0.  0.
         25    2    1    2    0    0  0.62159954951E+02 -0.56464945195E+02 -0.34028871555E+03  0.37215083006E+03  0.12509068849E+03 0.  0.
         24    2    1    2    0    0 -0.93209913987E+02  0.36460677859E+02  0.36682597027E+03  0.38884910163E+03  0.81393256960E+02 0.  0.
        -11    1    5    5    0    0 -0.72128159706E+01 -0.13349184355E+01 -0.25112981393E+01  0.77532792932E+01  0.00000000000E+00 0.  1.
         12    1    5    5    0    0 -0.85997098017E+02  0.37795596294E+02  0.36933726841E+03  0.38109582234E+03  0.00000000000E+00 0. -1.
         13    1    3    3    0    0 -0.17013737519E+02  0.16249112273E+02 -0.49133219480E+03  0.49189513777E+03  0.00000000000E+00 0. -1.
        -14    1    3    3    0    0  0.48063696555E+02  0.37551550624E+01 -0.24587694110E+03  0.25055875615E+03  0.00000000000E+00 0.  1.
          5    1    4    4  501    0 -0.37971880664E+02 -0.24549969781E+02 -0.97225576770E+02  0.10730726870E+03  0.41800000000E+01 0. -1.
         -5    1    4    4    0  501  0.10013183562E+03 -0.31914975414E+02 -0.24306313878E+03  0.26484356136E+03  0.41800000000E+01 0. -1.
</event>
<event>
11    1  0.1078607E-008  0.1469681E+03  0.7561462E-02  0.1100018E+00
         22   -1    0    0    0    0  0.00000000000E+00  0.00000000000E+00  0.18586886548E+03  0.18586886548E+03  0.00000000000E+00 0.  1.
         22   -1    0    0    0    0 -0.00000000000E+00 -0.00000000000E+00 -0.24098560499E+04  0.24098560499E+04  0.00000000000E+00 0.  1.
        -24    2    1    2    0    0 -0.76531329021E+02 -0.11411267952E+02 -0.23088480326E+04  0.23115128719E+04  0.79531490631E+02 0.  0.
         25    2    1    2    0    0  0.70644388754E+02 -0.76670047655E+01 -0.20530391608E+02  0.14529644675E+03  0.12506057666E+03 0.  0.
         24    2    1    2    0    0  0.58869402668E+01  0.19078272718E+02  0.10539123977E+03  0.13891559674E+03  0.88270000804E+02 0.  0.
        -13    1    5    5    0    0  0.10972374185E+02 -0.15863626359E+02  0.10158616208E+03  0.10340114101E+03  0.00000000000E+00 0.  1.
         14    1    5    5    0    0 -0.50854339186E+01  0.34941899077E+02  0.38050776861E+01  0.35514455725E+02  0.00000000000E+00 0. -1.
         11    1    3    3    0    0 -0.30057745487E+02  0.29307806940E+02 -0.55895883149E+03  0.56053313097E+03  0.00000000000E+00 0. -1.
        -12    1    3    3    0    0 -0.46473583534E+02 -0.40719074892E+02 -0.17498892011E+04  0.17509797410E+04  0.00000000000E+00 0.  1.
          5    1    4    4  501    0  0.10194002796E+03 -0.55417997373E+01 -0.38163106487E+02  0.10907050903E+03  0.41800000000E+01 0. -1.
         -5    1    4    4    0  501 -0.31295639203E+02 -0.21252050282E+01  0.17632714878E+02  0.36225937718E+02  0.41800000000E+01 0. -1.
</event>
<event>
11    1  0.1078607E-008  0.1503577E+03  0.7561462E-02  0.1096514E+00
         22   -1    0    0    0    0  0.00000000000E+00  0.00000000000E+00  0.77755532012E+02  0.77755532012E+02  0.00000000000E+00 0. -1.
         22   -1    0    0    0    0 -0.00000000000E+00 -0.00000000000E+00 -0.10736635380E+04  0.10736635380E+04  0.00000000000E+00 0. -1.
         24    2    1    2    0    0 -0.20168060662E+02 -0.82490741471E+02 -0.75355443911E+03  0.76268117472E+03  0.81405211585E+02 0.  0.
         25    2    1    2    0    0  0.38778060617E+01  0.78215547616E+02 -0.26634255689E+03  0.30449867110E+03  0.12509346035E+03 0.  0.
        -24    2    1    2    0    0  0.16290254601E+02  0.42751938545E+01  0.23988990024E+02  0.84239224177E+02  0.78975474485E+02 0.  0.
        -13    1    3    3    0    0 -0.24784094232E+02  0.87427848117E+01 -0.17132274554E+03  0.17332677448E+03  0.00000000000E+00 0.  1.
         14    1    3    3    0    0  0.46160335696E+01 -0.91233526283E+02 -0.58223169357E+03  0.58935440024E+03  0.00000000000E+00 0. -1.
         11    1    5    5    0    0 -0.32024428691E+02 -0.68134049101E+00  0.12066036157E+02  0.34228898411E+02  0.00000000000E+00 0. -1.
        -12    1    5    5    0    0  0.48314683292E+02  0.49565343455E+01  0.11922953867E+02  0.50010325766E+02  0.00000000000E+00 0.  1.
          5    1    4    4  501    0  0.55748432068E+02  0.98725262694E+01 -0.69566480950E+02  0.89790434484E+02  0.41800000000E+01 0. -1.
         -5    1    4    4    0  501 -0.51870626007E+02  0.68343021347E+02 -0.19677607594E+03  0.21470823662E+03  0.41800000000E+01 0. -1.
</event>
<event>
11    1  0.1078607E-008  0.1569532E+03  0.7561462E-02  0.1089978E+00
         22   -1    0    0    0    0  0.00000000000E+00  0.00000000000E+00  0.15508601787E+03  0.15508601787E+03  0.00000000000E+00 0.  1.
         22   -1    0    0    0    0 -0.00000000000E+00 -0.00000000000E+00 -0.28692739678E+04  0.28692739678E+04  0.00000000000E+00 0. -1.
        -24    2    1    2    0    0 -0.81765479866E+02 -0.49756726344E+02 -0.26693164281E+04  0.26722731884E+04  0.81440006715E+02 0.  0.
         25    2    1    2    0    0  0.77491144333E+02  0.18926884389E+02 -0.15461537467E+03  0.21428415617E+03  0.12509468853E+03 0.  0.
         24    2    1    2    0    0  0.42743355328E+01  0.30829841955E+02  0.10974385284E+03  0.13780264108E+03  0.77311742671E+02 0.  0.
        -13    1    5    5    0    0  0.94482202790E+01  0.33910099076E+02  0.12046685044E+03  0.12550468414E+03  0.00000000000E+00 0.  1.
         14    1    5    5    0    0 -0.51738847462E+01 -0.30802571205E+01 -0.10722997606E+02  0.12297956942E+02  0.00000000000E+00 0. -1.
         13    1    3    3    0    0 -0.74140307195E+02 -0.31663317818E+02 -0.11468152584E+04  0.11496454183E+04  0.00000000000E+00 0. -1.
        -14    1    3    3    0    0 -0.76251726715E+01 -0.18093408526E+02 -0.15225011697E+04  0.15226277701E+04  0.00000000000E+00 0.  1.
          5    1    4    4  501    0  0.88809002009E+02  0.33418548339E+02 -0.48765723691E+02  0.10676800278E+03  0.41800000000E+01 0. -1.
         -5    1    4    4    0  501 -0.11317857676E+02 -0.14491663950E+02 -0.10584965098E+03  0.10751615339E+03  0.41800000000E+01 0. -1.
</event>
<event>
11    1  0.1078607E-008  0.1383319E+03  0.7561462E-02  0.1109436E+00
         22   -1    0    0    0    0  0.00000000000E+00  0.00000000000E+00  0.16969007699E+03  0.16969007699E+03  0.00000000000E+00 0.  1.
         22   -1    0    0    0    0 -0.00000000000E+00 -0.00000000000E+00 -0.71565735603E+03  0.71565735603E+03  0.00000000000E+00 0. -1.
        -24    2    1    2    0    0  0.11972219687E+02 -0.54219026472E+02 -0.35128372996E+03  0.36464995328E+03  0.80537523030E+02 0.  0.
         25    2    1    2    0    0  0.31651378112E+02  0.70447584987E+02 -0.32725895349E+03  0.35876240211E+03  0.12508943427E+03 0.  0.
         24    2    1    2    0    0 -0.43623597799E+02 -0.16228558515E+02  0.13257540440E+03  0.16193507763E+03  0.80500603222E+02 0.  0.
        -11    1    5    5    0    0 -0.61667300834E+02  0.54937741125E+01  0.10806094657E+03  0.12453997639E+03  0.00000000000E+00 0.  1.
         12    1    5    5    0    0  0.18043703035E+02 -0.21722332627E+02  0.24514457832E+02  0.37395101240E+02  0.00000000000E+00 0. -1.
         11    1    3    3    0    0  0.11933898438E+02 -0.47443551284E+02 -0.35398956782E+03  0.35735405778E+03  0.00000000000E+00 0. -1.
        -12    1    3    3    0    0  0.38321249286E-01 -0.67754751888E+01  0.27058378588E+01  0.72958954948E+01  0.00000000000E+00 0.  1.
          5    1    4    4  501    0  0.75245435623E+01 -0.16191945254E+02 -0.21062169630E+03  0.21141846939E+03  0.41800000000E+01 0.  1.
         -5    1    4    4    0  501  0.24126834550E+02  0.86639530242E+02 -0.11663725719E+03  0.14734393272E+03  0.41800000000E+01 0.  1.
</event>
<event>
11    1  0.1078607E-008  0.1435871E+03  0.7561462E-02  0.1103618E+00
         22   -1    0    0    0    0  0.00000000000E+00  0.00000000000E+00  0.40378402713E+03  0.40378402713E+03  0.00000000000E+00 0.  1.
         22   -1    0    0    0    0 -0.00000000000E+00 -0.00000000000E+00 -0.73619866390E+03  0.73619866390E+03  0.00000000000E+00 0. -1.
         24    2    1    2    0    0 -0.26210032361E+02 -0.28965998050E+02 -0.43431238324E+03  0.44345166601E+03  0.80598629105E+02 0.  0.
         25    2    1    2    0    0  0.52401330358E+02  0.93439208530E+02 -0.26649363249E+03  0.31327539300E+03  0.12508329461E+03 0.  0.
        -24    2    1    2    0    0 -0.26191297997E+02 -0.64473210480E+02  0.36839137896E+03  0.38325563202E+03  0.79560621046E+02 0.  0.
        -13    1    3    3    0    0  0.58312963065E+01 -0.34195998080E+02 -0.74531474662E+02  0.82208947303E+02  0.00000000000E+00 0.  1.
         14    1    3    3    0    0 -0.32041328667E+02  0.52300000308E+01 -0.35978090857E+03  0.36124271871E+03  0.00000000000E+00 0. -1.
         13    1    5    5    0    0  0.57690083707E-01 -0.44228660551E+02  0.68501027398E+02  0.81538754570E+02  0.00000000000E+00 0. -1.
        -14    1    5    5    0    0 -0.26248988080E+02 -0.20244549929E+02  0.29989035156E+03  0.30171687745E+03  0.00000000000E+00 0.  1.
          5    1    4    4  501    0  0.92270594279E+02  0.58580611427E+02 -0.15422570947E+03  0.18907298185E+03  0.41800000000E+01 0.  1.
         -5    1    4    4    0  501 -0.39869263922E+02  0.34858597103E+02 -0.11226792302E+03  0.12420241116E+03  0.41800000000E+01 0.  1.
</event>
<event>
11    1  0.1078607E-008  0.1614802E+03  0.7561462E-02  0.1085693E+00
         22   -1    0    0    0    0  0.00000000000E+00  0.00000000000E+00  0.15973307738E+03  0.15973307738E+03  0.00000000000E+00 0.  1.
         22   -1    0    0    0    0 -0.00000000000E+00 -0.00000000000E+00 -0.40418444742E+04  0.40418444742E+04  0.00000000000E+00 0.  1.
        -24    2    1    2    0    0  0.24726480620E+02 -0.10128155522E+03 -0.35522187252E+04  0.35547287978E+04  0.83484139210E+02 0.  0.
         25    2    1    2    0    0 -0.27693795319E+02  0.77389342711E+02 -0.46496678018E+03  0.48847117853E+03  0.12511566215E+03 0.  0.
         24    2    1    2    0    0  0.29673146992E+01  0.23892212511E+02  0.13507410857E+03  0.15837757532E+03  0.79112570330E+02 0.  0.
        -11    1    5    5    0    0  0.20747839477E+02  0.46515495388E+01  0.12995606123E+03  0.13168404462E+03  0.00000000000E+00 0.  1.
         12    1    5    5    0    0 -0.17780524778E+02  0.19240662972E+02  0.51180473377E+01  0.26693530705E+02  0.00000000000E+00 0. -1.
         11    1    3    3    0    0  0.26832988833E+02 -0.24170410338E+02 -0.22101040638E+04  0.22103991021E+04  0.00000000000E+00 0. -1.
        -12    1    3    3    0    0 -0.21065082127E+01 -0.77111144884E+02 -0.13421146614E+04  0.13443296956E+04  0.00000000000E+00 0.  1.
          5    1    4    4  501    0 -0.53000337469E+02  0.50841855838E+02 -0.11468687283E+03  0.13625153679E+03  0.41800000000E+01 0. -1.
         -5    1    4    4    0  501  0.25306542150E+02  0.26547486873E+02 -0.35027990735E+03  0.35221964174E+03  0.41800000000E+01 0. -1.
</event>
<event>
11    1  0.1078607E-008  0.3778361E+03  0.7561462E-02  0.9717516E-01
         22   -1    0    0    0    0  0.00000000000E+00  0.00000000000E+00  0.18559838612E+04  0.18559838612E+04  0.00000000000E+00 0. -1.
         22   -1    0    0    0    0 -0.00000000000E+00 -0.00000000000E+00 -0.56784073989E+03  0.56784073989E+03  0.00000000000E+00 0. -1.
        -24    2    1    2    0    0 -0.21684200803E+03  0.25572220870E+03 -0.28422609014E+03  0.44621888750E+03  0.76892917607E+02 0.  0.
         25    2    1    2    0    0  0.40827866340E+03 -0.20819572299E+03  0.94498120152E+02  0.48436965582E+03  0.12508853947E+03 0.  0.
         24    2    1    2    0    0 -0.19143665537E+03 -0.47526485708E+02  0.14778710913E+04  0.14932360578E+04  0.82123089675E+02 0.  0.
        -13    1    5    5    0    0 -0.65895442220E+02 -0.50839582198E+02  0.44076207114E+03  0.44855108491E+03  0.00000000000E+00 0.  1.
         14    1    5    5    0    0 -0.12554121315E+03  0.33130964908E+01  0.10371090202E+04  0.10446849729E+04  0.00000000000E+00 0. -1.
         13    1    3    3    0    0 -0.13789234971E+03  0.10826105115E+03 -0.16558156276E+03  0.24114727706E+03  0.00000000000E+00 0. -1.
        -14    1    3    3    0    0 -0.78949658321E+02  0.14746115754E+03 -0.11864452738E+03  0.20507161044E+03  0.00000000000E+00 0.  1.
          5    1    4    4  501    0 -0.39936170445E+01  0.76863657040E+01  0.29243054917E+01  0.10052519955E+02  0.41800000000E+01 0. -1.
         -5    1    4    4    0  501  0.41227228044E+03 -0.21588208869E+03  0.91573814660E+02  0.47431713586E+03  0.41800000000E+01 0. -1.
</event>
<event>
11    1  0.1078607E-008  0.2061289E+03  0.7561462E-02  0.1050272E+00
         22   -1    0    0    0    0  0.00000000000E+00  0.00000000000E+00  0.17882369686E+04  0.17882369686E+04  0.00000000000E+00 0.  1.
         22   -1    0    0    0    0 -0.00000000000E+00 -0.00000000000E+00 -0.13200508979E+03  0.13200508979E+03  0.00000000000E+00 0. -1.
         24    2    1    2    0    0  0.11004855879E+03 -0.11622340439E+03 -0.41162006237E+02  0.18406214011E+03  0.81030831435E+02 0.  0.
         25    2    1    2    0    0 -0.17024490336E+03  0.13597170967E+03  0.97056826747E+03  0.10025576730E+04  0.12508993905E+03 0.  0.
        -24    2    1    2    0    0  0.60196344569E+02 -0.19748305278E+02  0.72682561762E+03  0.73362224536E+03  0.76892945072E+02 0.  0.
        -13    1    3    3    0    0  0.58069296325E+02 -0.37781053921E+02  0.19662734917E+02  0.72014403806E+02  0.00000000000E+00 0.  1.
         14    1    3    3    0    0  0.51979262466E+02 -0.78442350470E+02 -0.60824741154E+02  0.11204773630E+03  0.00000000000E+00 0. -1.
         13    1    5    5    0    0  0.42996454929E+02  0.15409415883E+02  0.19165437528E+03  0.19702168611E+03  0.00000000000E+00 0. -1.
        -14    1    5    5    0    0  0.17199889640E+02 -0.35157721162E+02  0.53517124234E+03  0.53660055925E+03  0.00000000000E+00 0.  1.
          5    1    4    4  501    0  0.33686363020E+01  0.47784825785E+02  0.31561389348E+03  0.31925591529E+03  0.41800000000E+01 0.  1.
         -5    1    4    4    0  501 -0.17361353966E+03  0.88186883886E+02  0.65495437399E+03  0.68330175768E+03  0.41800000000E+01 0.  1.
</event>
<event>
11    1  0.3700281E-008  0.1723060E+03  0.7561462E-02  0.1076042E+00
         22   -1    0    0    0    0  0.00000000000E+00  0.00000000000E+00  0.20485220390E+04  0.20485220390E+04  0.00000000000E+00 0.  1.
         22   -1    0    0    0    0 -0.00000000000E+00 -0.00000000000E+00 -0.20992175418E+04  0.20992175418E+04  0.00000000000E+00 0. -1.
        -24    2    1    2    0    0  0.11265153294E+03 -0.17482378352E+02 -0.18049125813E+04  0.18101865869E+04  0.77910537773E+02 0.  0.
         25    2    1    2    0    0 -0.13217256196E+02  0.83304437807E+02 -0.26942907296E+03  0.30879008014E+03  0.12507982659E+03 0.  0.
         24    2    1    2    0    0 -0.99434276741E+02 -0.65822059455E+02  0.20236461515E+04  0.20287629137E+04  0.80718614791E+02 0.  0.
        -11    1    5    5    0    0 -0.83504441337E+02 -0.71891383566E+02  0.19523570448E+04  0.19554639841E+04  0.00000000000E+00 0.  1.
         12    1    5    5    0    0 -0.15929835404E+02  0.60693241109E+01  0.71289106719E+02  0.73298929651E+02  0.00000000000E+00 0. -1.
         11    1    3    3    0    0  0.94612247935E+02  0.18699766165E+02 -0.13745138985E+04  0.13778931801E+04  0.00000000000E+00 0. -1.
        -12    1    3    3    0    0  0.18039285001E+02 -0.36182144518E+02 -0.43039868281E+03  0.43229340679E+03  0.00000000000E+00 0.  1.
          5    1    4    4  501    0 -0.46556723241E+02  0.68661143888E+02 -0.78204796533E+02  0.11408480950E+03  0.41800000000E+01 0.  1.
         -5    1    4    4    0  501  0.33339467046E+02  0.14643293919E+02 -0.19122427642E+03  0.19470527063E+03  0.41800000000E+01 0.  1.
</event>
<event>
11    1  0.1092154E-008  0.2261157E+03  0.7561462E-02  0.1037453E+00
         22   -1    0    0    0    0  0.00000000000E+00  0.00000000000E+00  0.97187272291E+03  0.97187272291E+03  0.00000000000E+00 0.  1.
         22   -1    0    0    0    0 -0.00000000000E+00 -0.00000000000E+00 -0.63845310781E+03  0.63845310781E+03  0.00000000000E+00 0.  1.
        -24    2    1    2    0    0  0.71558226149E+02  0.27817648740E+02 -0.41778814423E+03  0.43247159252E+03  0.81180931044E+02 0.  0.
         25    2    1    2    0    0 -0.23991793192E+03  0.49757579148E+02 -0.10769342564E+03  0.29545281609E+03  0.12513217758E+03 0.  0.
         24    2    1    2    0    0  0.16835970577E+03 -0.77575227888E+02  0.85890118496E+03  0.88240142211E+03  0.80982206129E+02 0.  0.
        -11    1    5    5    0    0  0.16519394128E+03 -0.81054437159E+02  0.71098078895E+03  0.73440625152E+03  0.00000000000E+00 0.  1.
         12    1    5    5    0    0  0.31657644905E+01  0.34792092712E+01  0.14792039601E+03  0.14799517059E+03  0.00000000000E+00 0. -1.
         11    1    3    3    0    0  0.23737333922E+02  0.48772643185E+02 -0.14682454707E+03  0.15652373420E+03  0.00000000000E+00 0. -1.
        -12    1    3    3    0    0  0.47820892227E+02 -0.20954994446E+02 -0.27096359716E+03  0.27594785832E+03  0.00000000000E+00 0.  1.
          5    1    4    4  501    0 -0.14398770740E+03 -0.12021337880E+02 -0.10936864886E+03  0.18126209256E+03  0.41800000000E+01 0. -1.
         -5    1    4    4    0  501 -0.95930224526E+02  0.61778917028E+02  0.16752232161E+01  0.11419072353E+03  0.41800000000E+01 0. -1.
</event>
<event>
11    1  0.1078607E-008  0.1492185E+03  0.7561462E-02  0.1097680E+00
         22   -1    0    0    0    0  0.00000000000E+00  0.00000000000E+00  0.40187291084E+03  0.40187291084E+03  0.00000000000E+00 0.  1.
         22   -1    0    0    0    0 -0.00000000000E+00 -0.00000000000E+00 -0.94017634678E+03  0.94017634678E+03  0.00000000000E+00 0. -1.
        -24    2    1    2    0    0  0.63725346648E+02  0.51525252372E+02 -0.90000285492E+03  0.90738093843E+03  0.81358817135E+02 0.  0.
         25    2    1    2    0    0 -0.56342231331E+02 -0.15401771434E+02  0.14443414830E+03  0.19980120291E+03  0.12509051082E+03 0.  0.
         24    2    1    2    0    0 -0.73831153164E+01 -0.36123480938E+02  0.21726527067E+03  0.23486711627E+03  0.81233910391E+02 0.  0.
        -11    1    5    5    0    0 -0.68106046925E+01 -0.61983007396E+02  0.16847787441E+03  0.17964707542E+03  0.00000000000E+00 0.  1.
         12    1    5    5    0    0 -0.57251062394E+00  0.25859526458E+02  0.48787396269E+02  0.55220040853E+02  0.00000000000E+00 0. -1.
         11    1    3    3    0    0  0.60068111649E+02  0.23281901571E+02 -0.30659838602E+03  0.31329346512E+03  0.00000000000E+00 0. -1.
        -12    1    3    3    0    0  0.36572349990E+01  0.28243350800E+02 -0.59340446889E+03  0.59408747330E+03  0.00000000000E+00 0.  1.
          5    1    4    4  501    0  0.14439495227E+02 -0.17034292699E+02  0.12389851408E+03  0.12596420262E+03  0.41800000000E+01 0. -1.
         -5    1    4    4    0  501 -0.70781726558E+02  0.16325212650E+01  0.20535634225E+02  0.73837000300E+02  0.41800000000E+01 0. -1.
</event>
<event>
11    1  0.1078607E-008  0.1477236E+03  0.7561462E-02  0.1099228E+00
         22   -1    0    0    0    0  0.00000000000E+00  0.00000000000E+00  0.25253405425E+03  0.25253405425E+03  0.00000000000E+00 0. -1.
         22   -1    0    0    0    0 -0.00000000000E+00 -0.00000000000E+00 -0.46770296171E+03  0.46770296171E+03  0.00000000000E+00 0.  1.
        -24    2    1    2    0    0 -0.38114273974E+01 -0.10011021741E+02 -0.16992021976E+03  0.18883329217E+03  0.81672416462E+02 0.  0.
         25    2    1    2    0    0  0.78131635374E+02 -0.15397674857E+02 -0.25417782963E+03  0.29427552750E+03  0.12510026448E+03 0.  0.
         24    2    1    2    0    0 -0.74320207977E+02  0.25408696598E+02  0.20892914193E+03  0.23712819629E+03  0.80058103591E+02 0.  0.
        -11    1    5    5    0    0 -0.14428729704E+02  0.46214106088E+02  0.81444511938E+02  0.94747772360E+02  0.00000000000E+00 0.  1.
         12    1    5    5    0    0 -0.59891478273E+02 -0.20805409489E+02  0.12748462999E+03  0.14238042393E+03  0.00000000000E+00 0. -1.
         13    1    3    3    0    0  0.27599194723E+02  0.14236960129E+02 -0.29205452343E+02  0.42630564501E+02  0.00000000000E+00 0. -1.
        -14    1    3    3    0    0 -0.31410622120E+02 -0.24247981870E+02 -0.14071476742E+03  0.14620272766E+03  0.00000000000E+00 0.  1.
          5    1    4    4  501    0  0.37564661877E+01  0.94091802435E+00 -0.20151647097E+03  0.20159701594E+03  0.41800000000E+01 0.  1.
         -5    1    4    4    0  501  0.74375169187E+02 -0.16338592882E+02 -0.52661358666E+02  0.92678511562E+02  0.41800000000E+01 0.  1.
</event>
<event>
11    1  0.1078607E-008  0.1655532E+03  0.7561462E-02  0.1081968E+00
         22   -1    0    0    0    0  0.00000000000E+00  0.00000000000E+00  0.16125645835E+03  0.16125645835E+03  0.00000000000E+00 0.  1.
         22   -1    0    0    0    0 -0.00000000000E+00 -0.00000000000E+00 -0.28537765120E+04  0.28537765120E+04  0.00000000000E+00 0.  1.
         24    2    1    2    0    0  0.10314989406E+03 -0.45368760544E+02 -0.24573974866E+04  0.24613258773E+04  0.81390676536E+02 0.  0.
         25    2    1    2    0    0 -0.89952077797E+02 -0.28105949697E+02 -0.35584807703E+03  0.38878789634E+03  0.12508738429E+03 0.  0.
        -24    2    1    2    0    0 -0.13197816258E+02  0.73474710241E+02  0.12072550990E+03  0.16491919674E+03  0.83970097738E+02 0.  0.
        -11    1    3    3    0    0  0.99392197558E+02 -0.33864501737E+02 -0.24137150725E+04  0.24159979438E+04  0.00000000000E+00 0.  1.
         12    1    3    3    0    0  0.37576964974E+01 -0.11504258807E+02 -0.43682414061E+02  0.45327933461E+02  0.00000000000E+00 0. -1.
         13    1    5    5    0    0 -0.39829202314E+00 -0.18689430571E+02  0.14185417989E+02  0.23466562065E+02  0.00000000000E+00 0. -1.
        -14    1    5    5    0    0 -0.12799524235E+02  0.92164140812E+02  0.10654009192E+03  0.14145263468E+03  0.00000000000E+00 0.  1.
          5    1    4    4  501    0 -0.24268930895E+01  0.38012916535E+02 -0.44876951427E+02  0.59010887156E+02  0.41800000000E+01 0. -1.
         -5    1    4    4    0  501 -0.87525184708E+02 -0.66118866232E+02 -0.31097112560E+03  0.32977700918E+03  0.41800000000E+01 0. -1.
</event>
<event>
11    1  0.1078607E-008  0.1566231E+03  0.7561462E-02  0.1090297E+00
         22   -1    0    0    0    0  0.00000000000E+00  0.00000000000E+00  0.92913811537E+02  0.92913811537E+02  0.00000000000E+00 0. -1.
         22   -1    0    0    0    0 -0.00000000000E+00 -0.00000000000E+00 -0.82139894039E+03  0.82139894039E+03  0.00000000000E+00 0.  1.
         24    2    1    2    0    0 -0.65544048566E+00  0.77752619440E+02 -0.43619010940E+03  0.44998415642E+03  0.78600445698E+02 0.  0.
         25    2    1    2    0    0  0.68879262879E+02 -0.13000256697E+03 -0.28723562906E+03  0.34611666675E+03  0.12508964836E+03 0.  0.
        -24    2    1    2    0    0 -0.68223822393E+02  0.52249947527E+02 -0.50593903963E+01  0.11821192876E+03  0.81017996215E+02 0.  0.
        -11    1    3    3    0    0  0.10385708691E+02  0.82394415864E+02 -0.25047770872E+03  0.26388593232E+03  0.00000000000E+00 0.  1.
         12    1    3    3    0    0 -0.11041149176E+02 -0.46417964237E+01 -0.18571240068E+03  0.18609822411E+03  0.00000000000E+00 0. -1.
         13    1    5    5    0    0 -0.72920435921E+01  0.29600724499E+02  0.31330168905E+02  0.43714485863E+02  0.00000000000E+00 0. -1.
        -14    1    5    5    0    0 -0.60931778801E+02  0.22649223028E+02 -0.36389559301E+02  0.74497442894E+02  0.00000000000E+00 0.  1.
          5    1    4    4  501    0  0.99615785782E+02 -0.93093149750E+02 -0.25147540712E+03  0.28608913313E+03  0.41800000000E+01 0.  1.
         -5    1    4    4    0  501 -0.30736522903E+02 -0.36909417217E+02 -0.35760221942E+02  0.60027533623E+02  0.41800000000E+01 0.  1.
</event>
<event>
11    1  0.1078607E-008  0.1728020E+03  0.7561462E-02  0.1075619E+00
         22   -1    0    0    0    0  0.00000000000E+00  0.00000000000E+00  0.66892801275E+03  0.66892801275E+03  0.00000000000E+00 0. -1.
         22   -1    0    0    0    0 -0.00000000000E+00 -0.00000000000E+00 -0.89163639529E+03  0.89163639529E+03  0.00000000000E+00 0. -1.
         24    2    1    2    0    0 -0.37411344806E+02  0.11438153385E+02 -0.62043212593E+03  0.62480125781E+03  0.62531182598E+02 0.  0.
         25    2    1    2    0    0  0.13059463548E+03  0.61837235082E+02 -0.22589563850E+03  0.29589601709E+03  0.12508721350E+03 0.  0.
        -24    2    1    2    0    0 -0.93183290671E+02 -0.73275388468E+02  0.62361938189E+03  0.63986713314E+03  0.80476123070E+02 0.  0.
        -11    1    3    3    0    0 -0.44730282573E+00  0.30962872571E+02 -0.21477762148E+03  0.21699844756E+03  0.00000000000E+00 0.  1.
         12    1    3    3    0    0 -0.36964041980E+02 -0.19524719185E+02 -0.40565450446E+03  0.40780281025E+03  0.00000000000E+00 0. -1.
         13    1    5    5    0    0 -0.37050821129E+02 -0.39048242208E+02  0.46581941898E+03  0.46891924642E+03  0.00000000000E+00 0. -1.
        -14    1    5    5    0    0 -0.56132469542E+02 -0.34227146259E+02  0.15779996291E+03  0.17094788672E+03  0.00000000000E+00 0.  1.
          5    1    4    4  501    0  0.83124121728E+02 -0.29262408588E+02 -0.10866328620E+03  0.13996817616E+03  0.41800000000E+01 0.  1.
         -5    1    4    4    0  501  0.47470513748E+02  0.91099643671E+02 -0.11723235230E+03  0.15592784093E+03  0.41800000000E+01 0.  1.
</event>
<event>
11    1  0.1078607E-008  0.3402378E+03  0.7561462E-02  0.9844671E-01
         22   -1    0    0    0    0  0.00000000000E+00  0.00000000000E+00  0.14869149743E+04  0.14869149743E+04  0.00000000000E+00 0.  1.
         22   -1    0    0    0    0 -0.00000000000E+00 -0.00000000000E+00 -0.30127065351E+03  0.30127065351E+03  0.00000000000E+00 0.  1.
        -24    2    1    2    0    0  0.24537193717E+03 -0.18575016854E+03 -0.12945757585E+03  0.34312288211E+03  0.79142501954E+02 0.  0.
         25    2    1    2    0    0 -0.36040209594E+03  0.14314439409E+03  0.67806081998E+03  0.79107352756E+03  0.12510340563E+03 0.  0.
         24    2    1    2    0    0  0.11503015877E+03  0.42605774450E+02  0.63704107665E+03  0.65398921811E+03  0.82664228181E+02 0.  0.
        -13    1    5    5    0    0  0.45086651937E+02  0.12787283619E+02  0.44473425601E+03  0.44719668970E+03  0.00000000000E+00 0.  1.
         14    1    5    5    0    0  0.69943506831E+02  0.29818490830E+02  0.19230682064E+03  0.20679252841E+03  0.00000000000E+00 0. -1.
         11    1    3    3    0    0  0.32271198267E+02 -0.55619517994E+02 -0.48809604031E+02  0.80730034467E+02  0.00000000000E+00 0. -1.
        -12    1    3    3    0    0  0.21310073891E+03 -0.13013065055E+03 -0.80647971824E+02  0.26239284764E+03  0.00000000000E+00 0.  1.
          5    1    4    4  501    0 -0.16557093567E+03  0.11825637190E+03  0.42032371878E+03  0.46699872077E+03  0.41800000000E+01 0.  1.
         -5    1    4    4    0  501 -0.19483116027E+03  0.24888022191E+02  0.25773710120E+03  0.32407480679E+03  0.41800000000E+01 0.  1.
</event>
<event>
11    1  0.1078607E-008  0.1469824E+03  0.7561462E-02  0.1100003E+00
         22   -1    0    0    0    0  0.00000000000E+00  0.00000000000E+00  0.25855796984E+03  0.25855796984E+03  0.00000000000E+00 0. -1.
         22   -1    0    0    0    0 -0.00000000000E+00 -0.00000000000E+00 -0.31343126533E+03  0.31343126533E+03  0.00000000000E+00 0.  1.
         24    2    1    2    0    0  0.43575964788E+02 -0.11086674991E+02 -0.18912501310E+03  0.21041454220E+03  0.80524716199E+02 0.  0.
         25    2    1    2    0    0 -0.10180925454E+03  0.51500394431E+02 -0.22756566401E+02  0.17083363043E+03  0.12509537575E+03 0.  0.
        -24    2    1    2    0    0  0.58233289750E+02 -0.40413719440E+02  0.15700828401E+03  0.19074106254E+03  0.81891189627E+02 0.  0.
        -11    1    3    3    0    0  0.61144715833E+02  0.12684056322E+02 -0.12137039595E+03  0.13649298360E+03  0.00000000000E+00 0.  1.
         12    1    3    3    0    0 -0.17568751045E+02 -0.23770731312E+02 -0.67754617147E+02  0.73921558596E+02  0.00000000000E+00 0. -1.
         11    1    5    5    0    0  0.21591352843E+02 -0.53084251101E+02  0.13379691251E+03  0.14555321374E+03  0.00000000000E+00 0. -1.
        -12    1    5    5    0    0  0.36641936907E+02  0.12670531661E+02  0.23211371505E+02  0.45187848809E+02  0.00000000000E+00 0.  1.
          5    1    4    4  501    0 -0.44690545089E+02 -0.39136764199E+02  0.59322083353E+01  0.59846425358E+02  0.41800000000E+01 0.  1.
         -5    1    4    4    0  501 -0.57118709449E+02  0.90637158630E+02 -0.28688774737E+02  0.11098720507E+03  0.41800000000E+01 0.  1.
</event>
<event>
11    1  0.1078607E-008  0.1480417E+03  0.7561462E-02  0.1098897E+00
         22   -1    0    0    0    0  0.00000000000E+00  0.00000000000E+00  0.80328470403E+03  0.80328470403E+03  0.00000000000E+00 0. -1.
         22   -1    0    0    0    0 -0.00000000000E+00 -0.00000000000E+00 -0.10140660856E+04  0.10140660856E+04  0.00000000000E+00 0.  1.
         24    2    1    2    0    0 -0.28479990646E+02  0.79871153534E+01 -0.92667009188E+03  0.93029922600E+03  0.76578631633E+02 0.  0.
         25    2    1    2    0    0  0.19888766594E+02 -0.86418322019E+02 -0.84138536609E+01  0.15356454390E+03  0.12509031455E+03 0.  0.
        -24    2    1    2    0    0  0.85912240514E+01  0.78431206665E+02  0.72430256398E+03  0.73348701973E+03  0.84638883559E+02 0.  0.
        -13    1    3    3    0    0  0.98544702296E+01 -0.22032156621E+02 -0.54525832852E+03  0.54579224191E+03  0.00000000000E+00 0.  1.
         14    1    3    3    0    0 -0.38334460875E+02  0.30019271975E+02 -0.38141176337E+03  0.38450698409E+03  0.00000000000E+00 0. -1.
         13    1    5    5    0    0 -0.24747679554E+02  0.73370129383E+02  0.58794053889E+03  0.59301745404E+03  0.00000000000E+00 0. -1.
        -14    1    5    5    0    0  0.33338903606E+02  0.50610772829E+01  0.13636202509E+03  0.14046956568E+03  0.00000000000E+00 0.  1.
          5    1    4    4  501    0  0.18582830286E+02 -0.71153853234E+02 -0.62869096029E+02  0.96841045260E+02  0.41800000000E+01 0.  1.
         -5    1    4    4    0  501  0.13059363083E+01 -0.15264468784E+02  0.54455242369E+02  0.56723498643E+02  0.41800000000E+01 0.  1.
</event>
<event>
11    1  0.1078607E-008  0.2052491E+03  0.7561462E-02  0.1050873E+00
         22   -1    0    0    0    0  0.00000000000E+00  0.00000000000E+00  0.72473470030E+03  0.72473470030E+03  0.00000000000E+00 0.  1.
         22   -1    0    0    0    0 -0.00000000000E+00 -0.00000000000E+00 -0.25871772532E+03  0.25871772532E+03  0.00000000000E+00 0.  1.
        -24    2    1    2    0    0 -0.14046255689E+03  0.10223429365E+03 -0.18328250227E+03  0.26512451419E+03  0.80727638993E+02 0.  0.
         25    2    1    2    0    0  0.47971653156E+02 -0.91278734268E+02  0.23246402611E+03  0.28340791456E+03  0.12508971087E+03 0.  0.
         24    2    1    2    0    0  0.92490903736E+02 -0.10955559386E+02  0.41683545114E+03  0.43491999688E+03  0.82030596720E+02 0.  0.
        -13    1    5    5    0    0  0.10494559568E+03 -0.51086946014E+01  0.31271587600E+03  0.32989528023E+03  0.00000000000E+00 0.  1.
         14    1    5    5    0    0 -0.12454691948E+02 -0.58468647850E+01  0.10411957514E+03  0.10502471664E+03  0.00000000000E+00 0. -1.
         13    1    3    3    0    0 -0.99812494596E+01  0.36734876819E+02 -0.11680400828E+02  0.39818441446E+02  0.00000000000E+00 0. -1.
        -14    1    3    3    0    0 -0.13048130743E+03  0.65499416836E+02 -0.17160210144E+03  0.22530607274E+03  0.00000000000E+00 0.  1.
          5    1    4    4  501    0  0.37543417286E+02 -0.77354895492E+02  0.48961536081E+02  0.99035309125E+02  0.41800000000E+01 0. -1.
         -5    1    4    4    0  501  0.10428235869E+02 -0.13923838777E+02  0.18350249003E+03  0.18437260544E+03  0.41800000000E+01 0. -1.
</event>
<event>
11    1  0.1078607E-008  0.2379208E+03  0.7561462E-02  0.1030538E+00
         22   -1    0    0    0    0  0.00000000000E+00  0.00000000000E+00  0.25754091648E+04  0.25754091648E+04  0.00000000000E+00 0.  1.
         22   -1    0    0    0    0 -0.00000000000E+00 -0.00000000000E+00 -0.16642728277E+04  0.16642728277E+04  0.00000000000E+00 0. -1.
         24    2    1    2    0    0  0.12660535185E+02  0.65327783572E+01 -0.13867324967E+04  0.13891199577E+04  0.80151564250E+02 0.  0.
         25    2    1    2    0    0  0.11286901128E+03  0.15250163013E+03 -0.22404589282E+03  0.31912370302E+03  0.12508882778E+03 0.  0.
        -24    2    1    2    0    0 -0.12552954646E+03 -0.15903440849E+03  0.25219147266E+04  0.25314383317E+04  0.84122107726E+02 0.  0.
        -13    1    3    3    0    0 -0.17806823879E+02  0.15965304648E+02 -0.14356555735E+03  0.14554395620E+03  0.00000000000E+00 0.  1.
         14    1    3    3    0    0  0.30467359064E+02 -0.94325262907E+01 -0.12431669393E+04  0.12435760015E+04  0.00000000000E+00 0. -1.
         11    1    5    5    0    0  0.57978727415E+01  0.44498958760E+01  0.38628547512E+02  0.39313885391E+02  0.00000000000E+00 0. -1.
        -12    1    5    5    0    0 -0.13132741921E+03 -0.16348430436E+03  0.24832861791E+04  0.24921244463E+04  0.00000000000E+00 0.  1.
          5    1    4    4  501    0  0.47410547444E+02  0.15347924219E+03 -0.14536970993E+03  0.21668747716E+03  0.41800000000E+01 0. -1.
         -5    1    4    4    0  501  0.65458463835E+02 -0.97761206217E+00 -0.78676182894E+02  0.10243622586E+03  0.41800000000E+01 0. -1.
</event>
<event>
11    1  0.1634770E-008  0.1603112E+03  0.7561462E-02  0.1086785E+00
         22   -1    0    0    0    0  0.00000000000E+00  0.00000000000E+00  0.15908334478E+04  0.15908334478E+04  0.00000000000E+00 0.  1.
         22   -1    0    0    0    0 -0.00000000000E+00 -0.00000000000E+00 -0.14708806993E+04  0.14708806993E+04  0.00000000000E+00 0.  1.
        -24    2    1    2    0    0 -0.17977714407E+02  0.60214385471E+02 -0.11555702115E+04  0.11599786790E+04  0.79114167482E+02 0.  0.
         25    2    1    2    0    0 -0.65260959638E+02 -0.35803025850E+01 -0.29435895083E+03  0.32644604371E+03  0.12509203053E+03 0.  0.
         24    2    1    2    0    0  0.83238674045E+02 -0.56634082886E+02  0.15698819109E+04  0.15752894245E+04  0.82894273709E+02 0.  0.
        -13    1    5    5    0    0  0.84326513699E+02 -0.70852477576E+02  0.14956695338E+04  0.14997194367E+04  0.00000000000E+00 0.  1.
         14    1    5    5    0    0 -0.10878396540E+01  0.14218394690E+02  0.74212377073E+02  0.75569987783E+02  0.00000000000E+00 0. -1.
         11    1    3    3    0    0  0.21655117849E+02  0.28911534080E+02 -0.21180774594E+03  0.21486587019E+03  0.00000000000E+00 0. -1.
        -12    1    3    3    0    0 -0.39632832255E+02  0.31302851391E+02 -0.94376246559E+03  0.94511280880E+03  0.00000000000E+00 0.  1.
          5    1    4    4  501    0 -0.75293941620E+02 -0.51894375601E+02 -0.18587744518E+03  0.20719580326E+03  0.41800000000E+01 0.  1.
         -5    1    4    4    0  501  0.10032981982E+02  0.48314073015E+02 -0.10848150565E+03  0.11925024045E+03  0.41800000000E+01 0.  1.
</event>
<event>
11    1  0.1078607E-008  0.1259996E+03  0.7561462E-02  0.1124284E+00
         22   -1    0    0    0    0  0.00000000000E+00  0.00000000000E+00  0.28165891777E+03  0.28165891777E+03  0.00000000000E+00 0.  1.
         22   -1    0    0    0    0 -0.00000000000E+00 -0.00000000000E+00 -0.59814364597E+03  0.59814364597E+03  0.00000000000E+00 0. -1.
         24    2    1    2    0    0 -0.10030362985E+02 -0.10057830849E+02 -0.52082676482E+03  0.52782408611E+03  0.84474722742E+02 0.  0.
         25    2    1    2    0    0  0.33810263502E+02  0.12179088811E+02 -0.16920293969E+01  0.13015405810E+03  0.12508297948E+03 0.  0.
        -24    2    1    2    0    0 -0.23779900517E+02 -0.21212579628E+01  0.20603406602E+03  0.22182441952E+03  0.78651467442E+02 0.  0.
        -11    1    3    3    0    0 -0.36753101256E+02 -0.43031395456E+01 -0.10937197446E+03  0.11546227202E+03  0.00000000000E+00 0.  1.
         12    1    3    3    0    0  0.26722738271E+02 -0.57546913031E+01 -0.41145479036E+03  0.41236181410E+03  0.00000000000E+00 0. -1.
         11    1    5    5    0    0 -0.36272028617E+01  0.20147846409E+02  0.87433088056E+01  0.22260677537E+02  0.00000000000E+00 0. -1.
        -12    1    5    5    0    0 -0.20152697656E+02 -0.22269104372E+02  0.19729075722E+03  0.19956374198E+03  0.00000000000E+00 0.  1.
          5    1    4    4  501    0 -0.26678603080E+02  0.48163641766E+02 -0.17446839160E+02  0.57908106920E+02  0.41800000000E+01 0. -1.
         -5    1    4    4    0  501  0.60488866582E+02 -0.35984552954E+02  0.15754809763E+02  0.72245951183E+02  0.41800000000E+01 0. -1.
</event>
<event>
11    1  0.1078607E-008  0.1432665E+03  0.7561462E-02  0.1103965E+00
         22   -1    0    0    0    0  0.00000000000E+00  0.00000000000E+00  0.15053857836E+04  0.15053857836E+04  0.00000000000E+00 0.  1.
         22   -1    0    0    0    0 -0.00000000000E+00 -0.00000000000E+00 -0.30607863416E+03  0.30607863416E+03  0.00000000000E+00 0. -1.
         24    2    1    2    0    0  0.37812457810E+02  0.58531264084E+02 -0.28653302403E+03  0.30576443447E+03  0.80839499525E+02 0.  0.
         25    2    1    2    0    0 -0.52286937151E+02 -0.63069243505E+02  0.70549282278E+03  0.72116552195E+03  0.12509170154E+03 0.  0.
        -24    2    1    2    0    0  0.14474479341E+02  0.45379794211E+01  0.78034735066E+03  0.78453446130E+03  0.79512448549E+02 0.  0.
        -11    1    3    3    0    0  0.41937773212E+02  0.43335093229E+02 -0.88422804880E+02  0.10702943310E+03  0.00000000000E+00 0.  1.
         12    1    3    3    0    0 -0.41253154011E+01  0.15196170855E+02 -0.19811021915E+03  0.19873500137E+03  0.00000000000E+00 0. -1.
         11    1    5    5    0    0 -0.26872921885E+02 -0.12130725619E+02  0.16809404575E+03  0.17066023746E+03  0.00000000000E+00 0. -1.
        -12    1    5    5    0    0  0.41347401225E+02  0.16668705040E+02  0.61225330491E+03  0.61387422384E+03  0.00000000000E+00 0.  1.
          5    1    4    4  501    0 -0.54793574038E+02 -0.79442116735E+01  0.11109889756E+03  0.12420098105E+03  0.41800000000E+01 0. -1.
         -5    1    4    4    0  501  0.25066368869E+01 -0.55125031832E+02  0.59439392521E+03  0.59696454090E+03  0.41800000000E+01 0. -1.
</event>
<event>
11    1  0.1078607E-008  0.2967726E+03  0.7561462E-02  0.1001566E+00
         22   -1    0    0    0    0  0.00000000000E+00  0.00000000000E+00  0.11351211329E+04  0.11351211329E+04  0.00000000000E+00 0.  1.
         22   -1    0    0    0    0 -0.00000000000E+00 -0.00000000000E+00 -0.15187228978E+04  0.15187228978E+04  0.00000000000E+00 0.  1.
        -24    2    1    2    0    0 -0.76233761433E+01 -0.64372051534E+02 -0.12831652677E+04  0.12873298494E+04  0.80642172857E+02 0.  0.
         25    2    1    2    0    0 -0.31795120902E+02 -0.20722392010E+03 -0.14478108010E+03  0.28383396209E+03  0.12508986412E+03 0.  0.
         24    2    1    2    0    0  0.39418497045E+02  0.27159597164E+03  0.10443445829E+04  0.10826802192E+04  0.78883835789E+02 0.  0.
        -11    1    5    5    0    0  0.57406368421E+02  0.21809328220E+03  0.89638759558E+03  0.92432185541E+03  0.00000000000E+00 0.  1.
         12    1    5    5    0    0 -0.17987871376E+02  0.53502689439E+02  0.14795698732E+03  0.15835836382E+03  0.00000000000E+00 0. -1.
         13    1    3    3    0    0  0.24017964218E+02 -0.89680304205E+01 -0.13623712996E+03  0.13862843776E+03  0.00000000000E+00 0. -1.
        -14    1    3    3    0    0 -0.31641340361E+02 -0.55404021113E+02 -0.11469281377E+04  0.11487014116E+04  0.00000000000E+00 0.  1.
          5    1    4    4  501    0  0.11114402764E+02 -0.15829520307E+03 -0.15001697490E+03  0.21841123236E+03  0.41800000000E+01 0.  1.
         -5    1    4    4    0  501 -0.42909523665E+02 -0.48928717028E+02  0.52358947940E+01  0.65422729731E+02  0.41800000000E+01 0.  1.
</event>
<event>
11    1  0.1078607E-008  0.1296282E+03  0.7561462E-02  0.1119727E+00
         22   -1    0    0    0    0  0.00000000000E+00  0.00000000000E+00  0.93192313570E+03  0.93192313570E+03  0.00000000000E+00 0. -1.
         22   -1    0    0    0    0 -0.00000000000E+00 -0.00000000000E+00 -0.59859639973E+03  0.59859639973E+03  0.00000000000E+00 0. -1.
        -24    2    1    2    0    0  0.29756912363E+02  0.14644774814E+02 -0.54771230432E+03  0.55455460068E+03  0.80262653678E+02 0.  0.
         25    2    1    2    0    0 -0.62020143536E+02 -0.10716299249E+02  0.63119586389E+02  0.15359919989E+03  0.12508914721E+03 0.  0.
         24    2    1    2    0    0  0.32263231174E+02 -0.39284755656E+01  0.81791945390E+03  0.82236573484E+03  0.78973538412E+02 0.  0.
        -11    1    5    5    0    0 -0.19560830028E+02  0.36517321205E+01  0.47992157936E+03  0.48033392921E+03  0.00000000000E+00 0.  1.
         12    1    5    5    0    0  0.51824061202E+02 -0.75802076861E+01  0.33799787454E+03  0.34203180563E+03  0.00000000000E+00 0. -1.
         13    1    3    3    0    0  0.35762916597E+02 -0.25992344087E+02 -0.23134385772E+03  0.23553039859E+03  0.00000000000E+00 0. -1.
        -14    1    3    3    0    0 -0.60060042340E+01  0.40637118901E+02 -0.31636844660E+03  0.31902420210E+03  0.00000000000E+00 0.  1.
          5    1    4    4  501    0 -0.23683301243E+01  0.25832907080E+02  0.77693702402E+02  0.82016656044E+02  0.41800000000E+01 0.  1.
         -5    1    4    4    0  501 -0.59651813412E+02 -0.36549206328E+02 -0.14574116013E+02  0.71582543851E+02  0.41800000000E+01 0.  1.
</event>
<event>
11    1  0.1078607E-008  0.1377475E+03  0.7561462E-02  0.1110100E+00
         22   -1    0    0    0    0  0.00000000000E+00  0.00000000000E+00  0.49762077230E+03  0.49762077230E+03  0.00000000000E+00 0. -1.
         22   -1    0    0    0    0 -0.00000000000E+00 -0.00000000000E+00 -0.86493533958E+03  0.86493533958E+03  0.00000000000E+00 0. -1.
         24    2    1    2    0    0  0.37852766433E+02 -0.84474745906E+01 -0.72296844105E+03  0.72845845994E+03  0.80400058168E+02 0.  0.
         25    2    1    2    0    0  0.17331385151E+02  0.29162443939E+02 -0.10239084174E+03  0.16517250154E+03  0.12508895133E+03 0.  0.
        -24    2    1    2    0    0 -0.55184151584E+02 -0.20714969349E+02  0.45804471551E+03  0.46892515040E+03  0.81310729530E+02 0.  0.
        -13    1    3    3    0    0  0.12888443665E+02 -0.23684835981E+02 -0.72812026192E+02  0.77644540012E+02  0.00000000000E+00 0.  1.
         14    1    3    3    0    0  0.24964322768E+02  0.15237361390E+02 -0.65015641486E+03  0.65081391993E+03  0.00000000000E+00 0. -1.
         13    1    5    5    0    0 -0.49862836851E+02  0.69269532100E+01  0.41122387738E+03  0.41429381182E+03  0.00000000000E+00 0. -1.
        -14    1    5    5    0    0 -0.53213147332E+01 -0.27641922559E+02  0.46820838123E+02  0.54631338586E+02  0.00000000000E+00 0.  1.
          5    1    4    4  501    0  0.10415641224E+02 -0.34566642316E+01  0.28083510234E+02  0.30439941800E+02  0.41800000000E+01 0.  1.
         -5    1    4    4    0  501  0.69157439266E+01  0.32619108171E+02 -0.13047435197E+03  0.13473255974E+03  0.41800000000E+01 0.  1.
</event>
<event>
11    1  0.1078607E-008  0.1591711E+03  0.7561462E-02  0.1087859E+00
         22   -1    0    0    0    0  0.00000000000E+00  0.00000000000E+00  0.12353358686E+04  0.12353358686E+04  0.00000000000E+00 0. -1.
         22   -1    0    0    0    0 -0.00000000000E+00 -0.00000000000E+00 -0.23886956017E+03  0.23886956017E+03  0.00000000000E+00 0.  1.
        -24    2    1    2    0    0 -0.77459228116E+02  0.33983620586E+01 -0.13296124547E+03  0.17353544891E+03  0.80152219849E+02 0.  0.
         25    2    1    2    0    0  0.61666618697E+02 -0.10088250985E+03  0.82655233782E+01  0.17232386718E+03  0.12508854331E+03 0.  0.
         24    2    1    2    0    0  0.15792609419E+02  0.97484147789E+02  0.11211620306E+04  0.11283461127E+04  0.80050520041E+02 0.  0.
        -13    1    5    5    0    0  0.23949395848E+02  0.17128949457E+02  0.62160073729E+03  0.62229771900E+03  0.00000000000E+00 0.  1.
         14    1    5    5    0    0 -0.81567864293E+01  0.80355198333E+02  0.49956129327E+03  0.50604839373E+03  0.00000000000E+00 0. -1.
         13    1    3    3    0    0 -0.11397189305E+02 -0.33117512784E+02 -0.31722310272E+02  0.47254317750E+02  0.00000000000E+00 0. -1.
        -14    1    3    3    0    0 -0.66062038810E+02  0.36515874842E+02 -0.10123893519E+03  0.12628113116E+03  0.00000000000E+00 0.  1.
          5    1    4    4  501    0  0.90815232009E+02 -0.57649353262E+02  0.35497769566E+02  0.11335086387E+03  0.41800000000E+01 0.  1.
         -5    1    4    4    0  501 -0.29148613311E+02 -0.43233156586E+02 -0.27232246188E+02  0.58973003305E+02  0.41800000000E+01 0.  1.
</event>
<event>
11    1  0.1078607E-008  0.1460550E+03  0.7561462E-02  0.1100979E+00
         22   -1    0    0    0    0  0.00000000000E+00  0.00000000000E+00  0.35396117933E+03  0.35396117933E+03  0.00000000000E+00 0.  1.
         22   -1    0    0    0    0 -0.00000000000E+00 -0.00000000000E+00 -0.23712404754E+03  0.23712404754E+03  0.00000000000E+00 0.  1.
        -24    2    1    2    0    0 -0.67051562688E+02 -0.22873473393E+02 -0.15433480676E+03  0.18574102988E+03  0.75242207295E+02 0.  0.
         25    2    1    2    0    0  0.10779350904E+03  0.24671501170E+02  0.61869244603E+02  0.17805804837E+03  0.12509493034E+03 0.  0.
         24    2    1    2    0    0 -0.40741946356E+02 -0.17980277769E+01  0.20930269394E+03  0.22728614862E+03  0.78665345394E+02 0.  0.
        -11    1    5    5    0    0 -0.20481636762E+02  0.74842963054E+01  0.20294275500E+03  0.20411093538E+03  0.00000000000E+00 0.  1.
         12    1    5    5    0    0 -0.20260309594E+02 -0.92823240823E+01  0.63599389420E+01  0.23175213237E+02  0.00000000000E+00 0. -1.
         11    1    3    3    0    0 -0.32786282660E+02  0.14341185386E+02 -0.17461233625E+02  0.39818395355E+02  0.00000000000E+00 0. -1.
        -12    1    3    3    0    0 -0.34265280029E+02 -0.37214658779E+02 -0.13687357314E+03  0.14592263452E+03  0.00000000000E+00 0.  1.
          5    1    4    4  501    0  0.86220541660E+02 -0.18411408356E+02  0.86674192017E+02  0.12370468756E+03  0.41800000000E+01 0. -1.
         -5    1    4    4    0  501  0.21572967384E+02  0.43082909526E+02 -0.24804947414E+02  0.54353360809E+02  0.41800000000E+01 0. -1.
</event>
<event>
11    1  0.1078607E-008  0.1260331E+03  0.7561462E-02  0.1124241E+00
         22   -1    0    0    0    0  0.00000000000E+00  0.00000000000E+00  0.10492089948E+04  0.10492089948E+04  0.00000000000E+00 0.  1.
         22   -1    0    0    0    0 -0.00000000000E+00 -0.00000000000E+00 -0.13631826122E+03  0.13631826122E+03  0.00000000000E+00 0. -1.
         24    2    1    2    0    0  0.77367937195E+01  0.14937555228E+02 -0.90879227471E+02  0.12253406026E+03  0.80452305161E+02 0.  0.
         25    2    1    2    0    0 -0.94344075162E+01  0.24401694776E+01  0.11407406278E+03  0.16957479242E+03  0.12509099069E+03 0.  0.
        -24    2    1    2    0    0  0.16976137967E+01 -0.17377724706E+02  0.88969589831E+03  0.89341840337E+03  0.79578796168E+02 0.  0.
        -13    1    3    3    0    0  0.67965517450E+01 -0.16138288296E+02  0.77288801329E+01  0.19140873879E+02  0.00000000000E+00 0.  1.
         14    1    3    3    0    0  0.94024197449E+00  0.31075843524E+02 -0.98608107604E+02  0.10339318638E+03  0.00000000000E+00 0. -1.
         13    1    5    5    0    0  0.21849822680E+02  0.49485669865E+01  0.77689296099E+02  0.80854992392E+02  0.00000000000E+00 0. -1.
        -14    1    5    5    0    0 -0.20152208883E+02 -0.22326291692E+02  0.81200660221E+03  0.81256341098E+03  0.00000000000E+00 0.  1.
          5    1    4    4  501    0  0.54426111002E+02 -0.10434401826E+02  0.75505773998E+02  0.93753253849E+02  0.41800000000E+01 0. -1.
         -5    1    4    4    0  501 -0.63860518518E+02  0.12874571304E+02  0.38568288785E+02  0.75821538572E+02  0.41800000000E+01 0. -1.
</event>
<event>
11    1  0.1078607E-008  0.1480987E+03  0.7561462E-02  0.1098838E+00
         22   -1    0    0    0    0  0.00000000000E+00  0.00000000000E+00  0.82441963136E+03  0.82441963136E+03  0.00000000000E+00 0.  1.
         22   -1    0    0    0    0 -0.00000000000E+00 -0.00000000000E+00 -0.93918042461E+03  0.93918042461E+03  0.00000000000E+00 0. -1.
         24    2    1    2    0    0 -0.77503284827E+02  0.12349100987E+02 -0.89156140653E+03  0.89914995127E+03  0.86195323517E+02 0.  0.
         25    2    1    2    0    0  0.11440503499E+03 -0.30548278073E+02  0.14228955100E+03  0.22341861137E+03  0.12509136765E+03 0.  0.
        -24    2    1    2    0    0 -0.36901750164E+02  0.18199177086E+02  0.63451106227E+03  0.64103149332E+03  0.81388808032E+02 0.  0.
        -11    1    3    3    0    0  0.18351144824E+02  0.30801975021E+01 -0.20930365231E+03  0.21012917694E+03  0.00000000000E+00 0.  1.
         12    1    3    3    0    0 -0.95854429651E+02  0.92689034853E+01 -0.68225775422E+03  0.68902077433E+03  0.00000000000E+00 0. -1.
         13    1    5    5    0    0 -0.29012380390E+02 -0.30165007387E+02  0.26482816226E+03  0.26811490337E+03  0.00000000000E+00 0. -1.
        -14    1    5    5    0    0 -0.78893697741E+01  0.48364184472E+02  0.36968290002E+03  0.37291658995E+03  0.00000000000E+00 0.  1.
          5    1    4    4  501    0 -0.12204094799E+02 -0.17716014167E+02  0.77533739315E+02  0.80571398275E+02  0.41800000000E+01 0.  1.
         -5    1    4    4    0  501  0.12660912979E+03 -0.12832263906E+02  0.64755811686E+02  0.14284721310E+03  0.41800000000E+01 0.  1.
</event>
<event>
11    1  0.1078607E-008  0.2306613E+03  0.7561462E-02  0.1034737E+00
         22   -1    0    0    0    0  0.00000000000E+00  0.00000000000E+00  0.38862800100E+04  0.38862800100E+04  0.00000000000E+00 0. -1.
         22   -1    0    0    0    0 -0.00000000000E+00 -0.00000000000E+00 -0.12602222319E+03  0.12602222319E+03  0.00000000000E+00 0. -1.
         24    2    1    2    0    0 -0.19700949280E+02 -0.60362511415E+02 -0.84585347932E+02  0.13259446555E+03  0.79967812412E+02 0.  0.
         25    2    1    2    0    0  0.20730016237E+03  0.73425021816E+02  0.11668389527E+04  0.11939537145E+04  0.12509092574E+03 0.  0.
        -24    2    1    2    0    0 -0.18759921309E+03 -0.13062510401E+02  0.26780041821E+04  0.26857540532E+04  0.78767638968E+02 0.  0.
        -11    1    3    3    0    0 -0.65954175725E+01 -0.44497166587E+02  0.57107803819E+00  0.44986925849E+02  0.00000000000E+00 0.  1.
         12    1    3    3    0    0 -0.13105531708E+02 -0.15865344828E+02 -0.85156425970E+02  0.87607539697E+02  0.00000000000E+00 0. -1.
         11    1    5    5    0    0 -0.10848025066E+03 -0.13424050320E+02  0.20294594845E+04  0.20324010355E+04  0.00000000000E+00 0. -1.
        -12    1    5    5    0    0 -0.79118962428E+02  0.36153991849E+00  0.64854469755E+03  0.65335301763E+03  0.00000000000E+00 0.  1.
          5    1    4    4  501    0  0.49682982667E+02 -0.34616119613E+02  0.23484766699E+03  0.24256457613E+03  0.41800000000E+01 0.  1.
         -5    1    4    4    0  501  0.15761717970E+03  0.10804114143E+03  0.93199128567E+03  0.95138913834E+03  0.41800000000E+01 0.  1.
</event>
<event>
11    1  0.1078607E-008  0.1280959E+03  0.7561462E-02  0.1121631E+00
         22   -1    0    0    0    0  0.00000000000E+00  0.00000000000E+00  0.38670652789E+03  0.38670652789E+03  0.00000000000E+00 0. -1.
         22   -1    0    0    0    0 -0.00000000000E+00 -0.00000000000E+00 -0.12887209837E+03  0.12887209837E+03  0.00000000000E+00 0.  1.
        -24    2    1    2    0    0  0.10689024557E+02  0.49237743068E+02 -0.62520553850E+02  0.11287259360E+03  0.79327121112E+02 0.  0.
         25    2    1    2    0    0 -0.54844566875E+01 -0.99839649961E+01  0.94681810385E+02  0.15729678979E+03  0.12509147069E+03 0.  0.
         24    2    1    2    0    0 -0.52045678696E+01 -0.39253778072E+02  0.22567317298E+03  0.24540924287E+03  0.87916829238E+02 0.  0.
        -13    1    5    5    0    0 -0.17643613746E+02 -0.66549938680E+01  0.19228263146E+01  0.18954770123E+02  0.00000000000E+00 0.  1.
         14    1    5    5    0    0  0.12439045876E+02 -0.32598784204E+02  0.22375034666E+03  0.22645447275E+03  0.00000000000E+00 0. -1.
         13    1    3    3    0    0  0.29318496601E+02  0.54821339619E+02 -0.18684192653E+02  0.64915734423E+02  0.00000000000E+00 0. -1.
        -14    1    3    3    0    0 -0.18629472044E+02 -0.55835965510E+01 -0.43836361197E+02  0.47956859177E+02  0.00000000000E+00 0.  1.
          5    1    4    4  501    0  0.41271938658E+02 -0.16952645289E+02  0.99961240079E+02  0.10954673441E+03  0.41800000000E+01 0. -1.
         -5    1    4    4    0  501 -0.46756395345E+02  0.69686802934E+01 -0.52794296934E+01  0.47750055378E+02  0.41800000000E+01 0. -1.
</event>
<event>
11    1  0.1078607E-008  0.1588179E+03  0.7561462E-02  0.1088194E+00
         22   -1    0    0    0    0  0.00000000000E+00  0.00000000000E+00  0.26493925472E+03  0.26493925472E+03  0.00000000000E+00 0. -1.
         22   -1    0    0    0    0 -0.00000000000E+00 -0.00000000000E+00 -0.18281778136E+04  0.18281778136E+04  0.00000000000E+00 0.  1.
        -24    2    1    2    0    0  0.74249552949E+01  0.39228341076E+02 -0.16128557867E+04  0.16152882031E+04  0.79108772609E+02 0.  0.
         25    2    1    2    0    0 -0.12858665085E+02 -0.13365638141E+03 -0.15353885700E+03  0.23927063352E+03  0.12508749697E+03 0.  0.
         24    2    1    2    0    0  0.54337097898E+01  0.94428040333E+02  0.20315608474E+03  0.23855823172E+03  0.81801315106E+02 0.  0.
        -11    1    5    5    0    0  0.35047348359E+02  0.11741848562E+02  0.53330641504E+02  0.64887170980E+02  0.00000000000E+00 0.  1.
         12    1    5    5    0    0 -0.29613638569E+02  0.82686191771E+02  0.14982544323E+03  0.17367106074E+03  0.00000000000E+00 0. -1.
         11    1    3    3    0    0  0.41566161238E+02  0.90136860403E+01 -0.69404243665E+03  0.69534444427E+03  0.00000000000E+00 0. -1.
        -12    1    3    3    0    0 -0.34141205943E+02  0.30214655035E+02 -0.91881335000E+03  0.91994375886E+03  0.00000000000E+00 0.  1.
          5    1    4    4  501    0 -0.57984495487E+02 -0.10800541453E+03 -0.13863143105E+03  0.18510407169E+03  0.41800000000E+01 0. -1.
         -5    1    4    4    0  501  0.45125830402E+02 -0.25650966881E+02 -0.14907425955E+02  0.54166561826E+02  0.41800000000E+01 0. -1.
</event>
<event>
11    1  0.1078607E-008  0.2795430E+03  0.7561462E-02  0.1009241E+00
         22   -1    0    0    0    0  0.00000000000E+00  0.00000000000E+00  0.26743186773E+03  0.26743186773E+03  0.00000000000E+00 0.  1.
         22   -1    0    0    0    0 -0.00000000000E+00 -0.00000000000E+00 -0.68387204811E+03  0.68387204811E+03  0.00000000000E+00 0. -1.
        -24    2    1    2    0    0  0.17741704466E+03 -0.15092844355E+03 -0.43096098553E+03  0.49652835151E+03  0.80974255172E+02 0.  0.
         25    2    1    2    0    0  0.80657264616E+01 -0.53290792726E+02 -0.72833799409E+02  0.15445938919E+03  0.12509187039E+03 0.  0.
         24    2    1    2    0    0 -0.18548277112E+03  0.20421923627E+03  0.87354604554E+02  0.30031617515E+03  0.80309546576E+02 0.  0.
        -11    1    5    5    0    0 -0.17476504208E+03  0.14591407470E+03  0.62997357228E+02  0.23622532495E+03  0.00000000000E+00 0.  1.
         12    1    5    5    0    0 -0.10717729041E+02  0.58305161575E+02  0.24357247326E+02  0.64090850200E+02  0.00000000000E+00 0. -1.
         13    1    3    3    0    0  0.78879809282E+02 -0.57971920733E+02 -0.26375166316E+03  0.28133202400E+03  0.00000000000E+00 0. -1.
        -14    1    3    3    0    0  0.98537235377E+02 -0.92956522815E+02 -0.16720932236E+03  0.21519632751E+03  0.00000000000E+00 0.  1.
          5    1    4    4  501    0  0.49005668324E+02 -0.74944847574E+02 -0.45688769805E+02  0.10061422261E+03  0.41800000000E+01 0. -1.
         -5    1    4    4    0  501 -0.40939941862E+02  0.21654054848E+02 -0.27145029604E+02  0.53845166573E+02  0.41800000000E+01 0. -1.
</event>
<event>
11    1  0.1078607E-008  0.1317836E+03  0.7561462E-02  0.1117097E+00
         22   -1    0    0    0    0  0.00000000000E+00  0.00000000000E+00  0.15281886295E+04  0.15281886295E+04  0.00000000000E+00 0. -1.
         22   -1    0    0    0    0 -0.00000000000E+00 -0.00000000000E+00 -0.10673658756E+03  0.10673658756E+03  0.00000000000E+00 0.  1.
        -24    2    1    2    0    0 -0.40904666362E+02  0.18546396954E+02 -0.57216343827E+02  0.10846547639E+03  0.80460480969E+02 0.  0.
         25    2    1    2    0    0  0.47027563235E+01 -0.28769684943E+02  0.16166080309E+03  0.20646603717E+03  0.12507677066E+03 0.  0.
         24    2    1    2    0    0  0.36201910039E+02  0.10223287989E+02  0.13170075827E+04  0.13199937035E+04  0.80369836114E+02 0.  0.
        -11    1    5    5    0    0 -0.18079060461E+01  0.70445686691E+01  0.96695218340E+01  0.12099343970E+02  0.00000000000E+00 0.  1.
         12    1    5    5    0    0  0.38009816085E+02  0.31787193195E+01  0.13073380609E+04  0.13078943596E+04  0.00000000000E+00 0. -1.
         13    1    3    3    0    0  0.20874328584E+02  0.45110996984E+01 -0.35621547470E+02  0.41532905731E+02  0.00000000000E+00 0. -1.
        -14    1    3    3    0    0 -0.61778994946E+02  0.14035297256E+02 -0.21594796357E+02  0.66932570660E+02  0.00000000000E+00 0.  1.
          5    1    4    4  501    0 -0.20489304859E+02 -0.73527598598E+02  0.10497356957E+03  0.12985777635E+03  0.41800000000E+01 0.  1.
         -5    1    4    4    0  501  0.25192061182E+02  0.44757913656E+02  0.56687233523E+02  0.76608260821E+02  0.41800000000E+01 0.  1.
</event>
<event>
11    1  0.1078607E-008  0.3874843E+03  0.7561462E-02  0.9687425E-01
         22   -1    0    0    0    0  0.00000000000E+00  0.00000000000E+00  0.33746733192E+04  0.33746733192E+04  0.00000000000E+00 0. -1.
         22   -1    0    0    0    0 -0.00000000000E+00 -0.00000000000E+00 -0.18661324053E+03  0.18661324053E+03  0.00000000000E+00 0. -1.
         24    2    1    2    0    0 -0.54957879274E+02  0.32821077882E+03  0.13195263794E+03  0.36688605307E+03  0.80319321779E+02 0.  0.
         25    2    1    2    0    0  0.63787262837E+02 -0.59896053263E+03  0.16694567065E+04  0.17792009893E+04  0.12509169075E+03 0.  0.
        -24    2    1    2    0    0 -0.88293835637E+01  0.27074975381E+03  0.13866507343E+04  0.14151995173E+04  0.81277474231E+02 0.  0.
        -13    1    3    3    0    0 -0.10114667338E+02  0.19333209806E+02 -0.10005076394E+02  0.24003771588E+02  0.00000000000E+00 0.  1.
         14    1    3    3    0    0 -0.44843211936E+02  0.30887756901E+03  0.14195771434E+03  0.34288228148E+03  0.00000000000E+00 0. -1.
         11    1    5    5    0    0  0.57198709339E+01  0.17955878373E+02  0.24890440631E+03  0.24961677422E+03  0.00000000000E+00 0. -1.
        -12    1    5    5    0    0 -0.14549254498E+02  0.25279387544E+03  0.11377463279E+04  0.11655827431E+04  0.00000000000E+00 0.  1.
          5    1    4    4  501    0 -0.16220067393E+01 -0.46660102868E+03  0.12262037036E+04  0.13119878605E+04  0.41800000000E+01 0.  1.
         -5    1    4    4    0  501  0.65409269577E+02 -0.13235950395E+03  0.44325300288E+03  0.46721312888E+03  0.41800000000E+01 0.  1.
</event>
<event>
11    1  0.1078607E-008  0.5333667E+03  0.7561462E-02  0.9321905E-01
         22   -1    0    0    0    0  0.00000000000E+00  0.00000000000E+00  0.24726223009E+04  0.24726223009E+04  0.00000000000E+00 0. -1.
         22   -1    0    0    0    0 -0.00000000000E+00 -0.00000000000E+00 -0.12970451957E+04  0.12970451957E+04  0.00000000000E+00 0. -1.
         24    2    1    2    0    0 -0.26227400045E+03 -0.45837488833E+03 -0.11807317818E+04  0.12958753402E+04  0.79184388351E+02 0.  0.
         25    2    1    2    0    0 -0.87961851429E+02  0.84440677677E+02  0.25259659639E+03  0.30711429156E+03  0.12508649896E+03 0.  0.
        -24    2    1    2    0    0  0.35023585188E+03  0.37393421065E+03  0.21037122905E+04  0.21666778648E+04  0.79972636725E+02 0.  0.
        -13    1    3    3    0    0 -0.17232516992E+03 -0.33610628798E+03 -0.76187489811E+03  0.85036272342E+03  0.00000000000E+00 0.  1.
         14    1    3    3    0    0 -0.89948830535E+02 -0.12226860035E+03 -0.41885688366E+03  0.44551261680E+03  0.00000000000E+00 0. -1.
         13    1    5    5    0    0  0.21667805069E+03  0.24185063626E+03  0.14846291581E+04  0.15197252532E+04  0.00000000000E+00 0. -1.
        -14    1    5    5    0    0  0.13355780119E+03  0.13208357439E+03  0.61908313238E+03  0.64695261162E+03  0.00000000000E+00 0.  1.
          5    1    4    4  501    0  0.13412338073E+02  0.67685159551E+02  0.75818533996E+02  0.10260162832E+03  0.41800000000E+01 0.  1.
         -5    1    4    4    0  501 -0.10137418950E+03  0.16755518126E+02  0.17677806239E+03  0.20451266325E+03  0.41800000000E+01 0.  1.
</event>
<event>
11    1  0.1078607E-008  0.1841683E+03  0.7561462E-02  0.1066320E+00
         22   -1    0    0    0    0  0.00000000000E+00  0.00000000000E+00  0.39970046446E+03  0.39970046446E+03  0.00000000000E+00 0. -1.
         22   -1    0    0    0    0 -0.00000000000E+00 -0.00000000000E+00 -0.34624303041E+03  0.34624303041E+03  0.00000000000E+00 0.  1.
         24    2    1    2    0    0  0.13165452817E+03  0.80196737998E+02 -0.24129821035E+03  0.29746604903E+03  0.80602682551E+02 0.  0.
         25    2    1    2    0    0 -0.66844218831E+02 -0.43553320561E+02  0.14793739886E+02  0.14910403565E+03  0.12509243536E+03 0.  0.
        -24    2    1    2    0    0 -0.64810309336E+02 -0.36643417437E+02  0.27996190451E+03  0.29937341020E+03  0.75515922272E+02 0.  0.
        -11    1    3    3    0    0  0.12872476145E+03  0.47183823252E+02 -0.21572322379E+03  0.25560298642E+03  0.00000000000E+00 0.  1.
         12    1    3    3    0    0  0.29297667128E+01  0.33012914746E+02 -0.25574986567E+02  0.41863062608E+02  0.00000000000E+00 0. -1.
         11    1    5    5    0    0 -0.34272471345E+02  0.93471431474E+01  0.19389723561E+03  0.19712460362E+03  0.00000000000E+00 0. -1.
        -12    1    5    5    0    0 -0.30537837991E+02 -0.45990560584E+02  0.86064668907E+02  0.10224880658E+03  0.00000000000E+00 0.  1.
          5    1    4    4  501    0  0.30667917300E+01 -0.65886208749E+02 -0.18168510392E+02  0.68541701793E+02  0.41800000000E+01 0.  1.
         -5    1    4    4    0  501 -0.69911010561E+02  0.22332888188E+02  0.32962250278E+02  0.80562333854E+02  0.41800000000E+01 0.  1.
</event>
<event>
11    1  0.1078607E-008  0.1592217E+03  0.7561462E-02  0.1087812E+00
         22   -1    0    0    0    0  0.00000000000E+00  0.00000000000E+00  0.77834804898E+03  0.77834804898E+03  0.00000000000E+00 0. -1.
         22   -1    0    0    0    0 -0.00000000000E+00 -0.00000000000E+00 -0.31881081817E+03  0.31881081817E+03  0.00000000000E+00 0. -1.
        -24    2    1    2    0    0  0.77132972815E+02  0.35520534553E+01 -0.19504688784E+03  0.22002067929E+03  0.66360366796E+02 0.  0.
         25    2    1    2    0    0 -0.13226967333E+03 -0.81931705024E+02 -0.10346279917E+02  0.19991067760E+03  0.12509661363E+03 0.  0.
         24    2    1    2    0    0  0.55136700511E+02  0.78379651569E+02  0.66493039857E+03  0.67722751025E+03  0.85564245860E+02 0.  0.
        -11    1    5    5    0    0  0.23717201979E+02 -0.14555902529E+02  0.98111750556E+02  0.10198183939E+03  0.00000000000E+00 0.  1.
         12    1    5    5    0    0  0.31419498531E+02  0.92935554098E+02  0.56681864802E+03  0.57524567086E+03  0.00000000000E+00 0. -1.
         11    1    3    3    0    0  0.39625072568E+02  0.33170602860E+02 -0.77704767365E+02  0.93319162777E+02  0.00000000000E+00 0. -1.
        -12    1    3    3    0    0  0.37507900247E+02 -0.29618549405E+02 -0.11734212048E+03  0.12670151652E+03  0.00000000000E+00 0.  1.
          5    1    4    4  501    0 -0.40677094064E+02 -0.50390592290E+02 -0.62255861073E+02  0.89928318180E+02  0.41800000000E+01 0. -1.
         -5    1    4    4    0  501 -0.91592579261E+02 -0.31541112735E+02  0.51909581156E+02  0.10998235942E+03  0.41800000000E+01 0. -1.
</event>
<event>
11    1  0.1078607E-008  0.1602776E+03  0.7561462E-02  0.1086816E+00
         22   -1    0    0    0    0  0.00000000000E+00  0.00000000000E+00  0.10954467683E+04  0.10954467683E+04  0.00000000000E+00 0. -1.
         22   -1    0    0    0    0 -0.00000000000E+00 -0.00000000000E+00 -0.64737789258E+02  0.64737789258E+02  0.00000000000E+00 0.  1.
         24    2    1    2    0    0 -0.21096133272E+02 -0.74228267688E+01  0.18271958737E+02  0.89876627634E+02  0.85110507709E+02 0.  0.
         25    2    1    2    0    0  0.10131015131E+03  0.60628400789E+02  0.28889494280E+03  0.33622409443E+03  0.12508718544E+03 0.  0.
        -24    2    1    2    0    0 -0.80214018036E+02 -0.53205574021E+02  0.72354207748E+03  0.73408383547E+03  0.78107732092E+02 0.  0.
        -13    1    3    3    0    0  0.57121429891E+01 -0.16102121772E+02 -0.29686908710E+02  0.34252291191E+02  0.00000000000E+00 0.  1.
         14    1    3    3    0    0 -0.26808276261E+02  0.86792950035E+01  0.47958867447E+02  0.55624336442E+02  0.00000000000E+00 0. -1.
         11    1    5    5    0    0 -0.10958887373E+02 -0.50201070699E+02  0.39348840382E+03  0.39682914290E+03  0.00000000000E+00 0. -1.
        -12    1    5    5    0    0 -0.69255130664E+02 -0.30045033216E+01  0.33005367366E+03  0.33725469257E+03  0.00000000000E+00 0.  1.
          5    1    4    4  501    0  0.34670204258E+02 -0.38800174047E+02  0.90955431094E+02  0.10487058413E+03  0.41800000000E+01 0. -1.
         -5    1    4    4    0  501  0.66639947051E+02  0.99428574836E+02  0.19793951170E+03  0.23135351031E+03  0.41800000000E+01 0. -1.
</event>
<event>
11    1  0.1078607E-008  0.1601157E+03  0.7561462E-02  0.1086969E+00
         22   -1    0    0    0    0  0.00000000000E+00  0.00000000000E+00  0.23188713440E+04  0.23188713440E+04  0.00000000000E+00 0.  1.
         22   -1    0    0    0    0 -0.00000000000E+00 -0.00000000000E+00 -0.18903428583E+04  0.18903428583E+04  0.00000000000E+00 0.  1.
         24    2    1    2    0    0 -0.75118560105E+02 -0.72382114808E+02 -0.17544055813E+04  0.17593893832E+04  0.81425359756E+02 0.  0.
         25    2    1    2    0    0  0.64188107633E+02 -0.20849604818E+02 -0.93445099243E+02  0.17009773120E+03  0.12508570024E+03 0.  0.
        -24    2    1    2    0    0  0.10930452472E+02  0.93231719625E+02  0.22763791663E+04  0.22797270879E+04  0.80261187067E+02 0.  0.
        -11    1    3    3    0    0 -0.37145202780E+02  0.12176932714E+02 -0.59651995564E+03  0.59779938211E+03  0.00000000000E+00 0.  1.
         12    1    3    3    0    0 -0.37973357326E+02 -0.84559047522E+02 -0.11578856257E+04  0.11615900011E+04  0.00000000000E+00 0. -1.
         13    1    5    5    0    0  0.15912403322E+02  0.57705231358E+02  0.60307451192E+03  0.60603792393E+03  0.00000000000E+00 0. -1.
        -14    1    5    5    0    0 -0.49819508495E+01  0.35526488267E+02  0.16733046544E+04  0.16736891640E+04  0.00000000000E+00 0.  1.
          5    1    4    4  501    0 -0.14597827051E+02 -0.48428420822E+02 -0.94883452553E+01  0.51632447101E+02  0.41800000000E+01 0.  1.
         -5    1    4    4    0  501  0.78785934684E+02  0.27578816005E+02 -0.83956753987E+02  0.11846528410E+03  0.41800000000E+01 0.  1.
</event>
<event>
11    1  0.1078607E-008  0.1700669E+03  0.7561462E-02  0.1077973E+00
         22   -1    0    0    0    0  0.00000000000E+00  0.00000000000E+00  0.14242238405E+04  0.14242238405E+04  0.00000000000E+00 0. -1.
         22   -1    0    0    0    0 -0.00000000000E+00 -0.00000000000E+00 -0.17303719153E+04  0.17303719153E+04  0.00000000000E+00 0.  1.
        -24    2    1    2    0    0 -0.46901427814E+02  0.46155359092E+02 -0.16821574069E+04  0.16853744968E+04  0.80644849694E+02 0.  0.
         25    2    1    2    0    0  0.85631024049E+02  0.64941842533E+02  0.11814640081E+03  0.20286954479E+03  0.12508942796E+03 0.  0.
         24    2    1    2    0    0 -0.38729596235E+02 -0.11109720163E+03  0.12578629313E+04  0.12663517142E+04  0.87091561810E+02 0.  0.
        -13    1    5    5    0    0 -0.15794964997E+02  0.12714647402E+02  0.15349475160E+03  0.15482823369E+03  0.00000000000E+00 0.  1.
         14    1    5    5    0    0 -0.22934631238E+02 -0.12381184903E+03  0.11043681797E+04  0.11115234805E+04  0.00000000000E+00 0. -1.
         11    1    3    3    0    0  0.58154475319E+01 -0.10267807722E+02 -0.72863884010E+03  0.72873438687E+03  0.00000000000E+00 0. -1.
        -12    1    3    3    0    0 -0.52716875346E+02  0.56423166813E+02 -0.95351856680E+03  0.95664010993E+03  0.00000000000E+00 0.  1.
          5    1    4    4  501    0  0.10771871979E+03  0.37634382434E+02  0.12223046977E+03  0.16726454936E+03  0.41800000000E+01 0. -1.
         -5    1    4    4    0  501 -0.22087695739E+02  0.27307460099E+02 -0.40840689604E+01  0.35604995428E+02  0.41800000000E+01 0. -1.
</event>
<event>
11    1  0.1078607E-008  0.1457803E+03  0.7561462E-02  0.1101270E+00
         22   -1    0    0    0    0  0.00000000000E+00  0.00000000000E+00  0.21080623501E+04  0.21080623501E+04  0.00000000000E+00 0. -1.
         22   -1    0    0    0    0 -0.00000000000E+00 -0.00000000000E+00 -0.17259803458E+03  0.17259803458E+03  0.00000000000E+00 0. -1.
         24    2    1    2    0    0 -0.53493081560E+02 -0.53570197025E+02 -0.14370209945E+03  0.18136408928E+03  0.80693021445E+02 0.  0.
         25    2    1    2    0    0  0.31156590472E+02 -0.33842538683E+02  0.57638192019E+03  0.59158813669E+03  0.12507739604E+03 0.  0.
        -24    2    1    2    0    0  0.22336491088E+02  0.87412735709E+02  0.15027844948E+04  0.15077081587E+04  0.81748081885E+02 0.  0.
        -11    1    3    3    0    0 -0.53666229868E+02 -0.23361543782E+02 -0.34240241932E+02  0.67810177139E+02  0.00000000000E+00 0.  1.
         12    1    3    3    0    0  0.17314830828E+00 -0.30208653244E+02 -0.10946185752E+03  0.11355391214E+03  0.00000000000E+00 0. -1.
         11    1    5    5    0    0 -0.19407162136E+02  0.55418486062E+02  0.48097048044E+03  0.48454148388E+03  0.00000000000E+00 0. -1.
        -12    1    5    5    0    0  0.41743653224E+02  0.31994249647E+02  0.10218140143E+04  0.10231666748E+04  0.00000000000E+00 0.  1.
          5    1    4    4  501    0 -0.45971726479E+02  0.53464196007E+01  0.21631555195E+03  0.22125070452E+03  0.41800000000E+01 0.  1.
         -5    1    4    4    0  501  0.77128316951E+02 -0.39188958284E+02  0.36006636824E+03  0.37033743217E+03  0.41800000000E+01 0.  1.
</event>
<event>
11    1  0.1078607E-008  0.1403417E+03  0.7561462E-02  0.1107177E+00
         22   -1    0    0    0    0  0.00000000000E+00  0.00000000000E+00  0.62609475245E+03  0.62609475245E+03  0.00000000000E+00 0.  1.
         22   -1    0    0    0    0 -0.00000000000E+00 -0.00000000000E+00 -0.18434955856E+03  0.18434955856E+03  0.00000000000E+00 0. -1.
        -24    2    1    2    0    0  0.48750912057E+02 -0.32525301682E+02 -0.10150935135E+03  0.14169909550E+03  0.79623731255E+02 0.  0.
         25    2    1    2    0    0 -0.45729665422E+02  0.91295950259E+02  0.54903847457E+02  0.17055423411E+03  0.12509261158E+03 0.  0.
         24    2    1    2    0    0 -0.30212466354E+01 -0.58770648577E+02  0.48835069778E+03  0.49819098140E+03  0.79023622141E+02 0.  0.
        -13    1    5    5    0    0  0.10968258370E+02  0.27331483616E+01  0.28632126502E+03  0.28654430651E+03  0.00000000000E+00 0.  1.
         14    1    5    5    0    0 -0.13989505005E+02 -0.61503796939E+02  0.20202943277E+03  0.21164667489E+03  0.00000000000E+00 0. -1.
         11    1    3    3    0    0  0.13623665114E+02 -0.46959415031E+02 -0.89295668746E+02  0.10180622460E+03  0.00000000000E+00 0. -1.
        -12    1    3    3    0    0  0.35127246943E+02  0.14434113349E+02 -0.12213682605E+02  0.39892870901E+02  0.00000000000E+00 0.  1.
          5    1    4    4  501    0 -0.41473585900E+02  0.31767415400E+02  0.87820534944E+02  0.10226996512E+03  0.41800000000E+01 0. -1.
         -5    1    4    4    0  501 -0.42560795220E+01  0.59528534859E+02 -0.32916687487E+02  0.68284268983E+02  0.41800000000E+01 0. -1.
</event>
<event>
11    1  0.1078607E-008  0.1390346E+03  0.7561462E-02  0.1108641E+00
         22   -1    0    0    0    0  0.00000000000E+00  0.00000000000E+00  0.16065692956E+03  0.16065692956E+03  0.00000000000E+00 0.  1.
         22   -1    0    0    0    0 -0.00000000000E+00 -0.00000000000E+00 -0.41439681630E+03  0.41439681630E+03  0.00000000000E+00 0.  1.
         24    2    1    2    0    0  0.59207172283E+02 -0.29665454711E+02 -0.31855596737E+03  0.33560231456E+03  0.82252542447E+02 0.  0.
         25    2    1    2    0    0  0.28664738877E+01  0.28566482515E+02  0.23037451685E+02  0.13039567507E+03  0.12509215523E+03 0.  0.
        -24    2    1    2    0    0 -0.62073646170E+02  0.10989721954E+01  0.41778628953E+02  0.10905575623E+03  0.79330692931E+02 0.  0.
        -11    1    3    3    0    0  0.72884345054E+02 -0.31532505118E+02 -0.18485912704E+03  0.20119474020E+03  0.00000000000E+00 0.  1.
         12    1    3    3    0    0 -0.13677172771E+02  0.18670504074E+01 -0.13369684033E+03  0.13440757436E+03  0.00000000000E+00 0. -1.
         11    1    5    5    0    0 -0.37623046678E+02  0.39842930956E+02  0.20071923775E+02  0.58359531463E+02  0.00000000000E+00 0. -1.
        -12    1    5    5    0    0 -0.24450599492E+02 -0.38743958760E+02  0.21706705178E+02  0.50696224767E+02  0.00000000000E+00 0.  1.
          5    1    4    4  501    0 -0.18864397191E+02  0.52318742304E+01 -0.48224099204E+02  0.52213735103E+02  0.41800000000E+01 0.  1.
         -5    1    4    4    0  501  0.21730871079E+02  0.23334608285E+02  0.71261550890E+02  0.78181939966E+02  0.41800000000E+01 0.  1.
</event>
<event>
11    1  0.1078607E-008  0.1399803E+03  0.7561462E-02  0.1107580E+00
         22   -1    0    0    0    0  0.00000000000E+00  0.00000000000E+00  0.20909812840E+03  0.20909812840E+03  0.00000000000E+00 0.  1.
         22   -1    0    0    0    0 -0.00000000000E+00 -0.00000000000E+00 -0.27464990814E+03  0.27464990814E+03  0.00000000000E+00 0.  1.
         24    2    1    2    0    0 -0.44993493895E+02  0.31079378428E+02 -0.12610559478E+03  0.16059453362E+03  0.83052037523E+02 0.  0.
         25    2    1    2    0    0  0.75909819183E+02 -0.41543027102E+02 -0.67068026960E+02  0.16623395080E+03  0.12508989730E+03 0.  0.
        -24    2    1    2    0    0 -0.30916325289E+02  0.10463648674E+02  0.12762184200E+03  0.15691955212E+03  0.85270769728E+02 0.  0.
        -11    1    3    3    0    0 -0.32778356759E+02 -0.20679809044E+02 -0.84867079003E+02  0.93297889968E+02  0.00000000000E+00 0.  1.
         12    1    3    3    0    0 -0.12215137135E+02  0.51759187472E+02 -0.41238515776E+02  0.67296643649E+02  0.00000000000E+00 0. -1.
         13    1    5    5    0    0  0.12627524788E+02  0.32292423332E+02  0.23266688771E+02  0.41756362309E+02  0.00000000000E+00 0. -1.
        -14    1    5    5    0    0 -0.43543850077E+02 -0.21828774658E+02  0.10435515323E+03  0.11516318981E+03  0.00000000000E+00 0.  1.
          5    1    4    4  501    0 -0.11178609645E+01 -0.13356650609E+01  0.33189842697E+02  0.33497338291E+02  0.41800000000E+01 0. -1.
         -5    1    4    4    0  501  0.77027680148E+02 -0.40207362041E+02 -0.10025786966E+03  0.13273661251E+03  0.41800000000E+01 0. -1.
</event>
<event>
11    1  0.1078607E-008  0.1571073E+03  0.7561462E-02  0.1089830E+00
         22   -1    0    0    0    0  0.00000000000E+00  0.00000000000E+00  0.15638089234E+04  0.15638089234E+04  0.00000000000E+00 0. -1.
         22   -1    0    0    0    0 -0.00000000000E+00 -0.00000000000E+00 -0.29280180272E+03  0.29280180272E+03  0.00000000000E+00 0. -1.
         24    2    1    2    0    0 -0.42313272405E+02 -0.83754597501E+02 -0.23416041798E+03  0.26527027392E+03  0.82048590777E+02 0.  0.
         25    2    1    2    0    0  0.99512096823E+02  0.71015326339E+02  0.14385480340E+03  0.22646656239E+03  0.12508823059E+03 0.  0.
        -24    2    1    2    0    0 -0.57198824418E+02  0.12739271162E+02  0.13613127353E+04  0.13648738898E+04  0.79210967542E+02 0.  0.
        -13    1    3    3    0    0  0.23636335339E+02 -0.14542095767E+02 -0.70007733211E+02  0.75307580009E+02  0.00000000000E+00 0.  1.
         14    1    3    3    0    0 -0.65949607744E+02 -0.69212501734E+02 -0.16415268477E+03  0.18996269391E+03  0.00000000000E+00 0. -1.
         11    1    5    5    0    0 -0.34453604687E+02 -0.88725713215E+01  0.12006059530E+04  0.12011329767E+04  0.00000000000E+00 0. -1.
        -12    1    5    5    0    0 -0.22745219731E+02  0.21611842483E+02  0.16070678232E+03  0.16374091315E+03  0.00000000000E+00 0.  1.
          5    1    4    4  501    0  0.24353761152E+02  0.52761622247E+02  0.13680027140E+03  0.14868988237E+03  0.41800000000E+01 0.  1.
         -5    1    4    4    0  501  0.75158335670E+02  0.18253704092E+02  0.70545320020E+01  0.77776680024E+02  0.41800000000E+01 0.  1.
</event>
<event>
11    1  0.1078607E-008  0.1450892E+03  0.7561462E-02  0.1102005E+00
         22   -1    0    0    0    0  0.00000000000E+00  0.00000000000E+00  0.52119420323E+02  0.52119420323E+02  0.00000000000E+00 0.  1.
         22   -1    0    0    0    0 -0.00000000000E+00 -0.00000000000E+00 -0.65075020348E+03  0.65075020348E+03  0.00000000000E+00 0.  1.
        -24    2    1    2    0    0  0.15725173496E+02 -0.15140918411E+02 -0.22321027020E+03  0.23926257832E+03  0.83350034006E+02 0.  0.
         25    2    1    2    0    0 -0.45272446094E+02  0.75570756965E+02 -0.27256852064E+03  0.31257260441E+03  0.12508997123E+03 0.  0.
         24    2    1    2    0    0  0.29547272598E+02 -0.60429838554E+02 -0.10285199231E+03  0.15103444107E+03  0.87795577113E+02 0.  0.
        -13    1    5    5    0    0  0.46348294609E+02 -0.63050284027E+02 -0.10790729301E+03  0.13329473588E+03  0.00000000000E+00 0.  1.
         14    1    5    5    0    0 -0.16801022011E+02  0.26204454727E+01  0.50553006946E+01  0.17739705189E+02  0.00000000000E+00 0. -1.
         11    1    3    3    0    0 -0.23671422841E+02  0.16403191246E+02 -0.40403170449E+02  0.49616702074E+02  0.00000000000E+00 0. -1.
        -12    1    3    3    0    0  0.39396596337E+02 -0.31544109657E+02 -0.18280709975E+03  0.18964587625E+03  0.00000000000E+00 0.  1.
          5    1    4    4  501    0  0.23977921587E+01  0.91133690774E+02 -0.22710785372E+03  0.24475814311E+03  0.41800000000E+01 0.  1.
         -5    1    4    4    0  501 -0.47670238253E+02 -0.15562933809E+02 -0.45460666920E+02  0.67814461295E+02  0.41800000000E+01 0.  1.
</event>
<event>
11    1  0.1078607E-008  0.1846724E+03  0.7561462E-02  0.1065925E+00
         22   -1    0    0    0    0  0.00000000000E+00  0.00000000000E+00  0.77890323062E+03  0.77890323062E+03  0.00000000000E+00 0.  1.
         22   -1    0    0    0    0 -0.00000000000E+00 -0.00000000000E+00 -0.38605899179E+03  0.38605899179E+03  0.00000000000E+00 0. -1.
        -24    2    1    2    0    0 -0.88722630135E+02 -0.33831118139E+02 -0.31816548309E+03  0.34041041819E+03  0.75058167648E+02 0.  0.
         25    2    1    2    0    0 -0.25752872979E+02 -0.68888862735E+02  0.71412191498E+02  0.16172842637E+03  0.12508995534E+03 0.  0.
         24    2    1    2    0    0  0.11447550311E+03  0.10271998087E+03  0.63959753042E+03  0.66282337784E+03  0.81202179820E+02 0.  0.
        -13    1    5    5    0    0  0.10819932123E+03  0.11516191710E+03  0.55384210457E+03  0.57594308491E+03  0.00000000000E+00 0.  1.
         14    1    5    5    0    0  0.62761818794E+01 -0.12441936228E+02  0.85755425853E+02  0.86880292928E+02  0.00000000000E+00 0. -1.
         13    1    3    3    0    0 -0.51218371386E+02 -0.56527225236E+02 -0.22157907617E+03  0.23434149388E+03  0.00000000000E+00 0. -1.
        -14    1    3    3    0    0 -0.37504258749E+02  0.22696107097E+02 -0.96586406922E+02  0.10606892431E+03  0.00000000000E+00 0.  1.
          5    1    4    4  501    0 -0.16355028407E+02 -0.92596952056E+02  0.89738631971E+02  0.13004682600E+03  0.41800000000E+01 0. -1.
         -5    1    4    4    0  501 -0.93978445717E+01  0.23708089321E+02 -0.18326440473E+02  0.31681600374E+02  0.41800000000E+01 0. -1.
</event>
<event>
11    1  0.1078607E-008  0.1354101E+03  0.7561462E-02  0.1112795E+00
         22   -1    0    0    0    0  0.00000000000E+00  0.00000000000E+00  0.13803955181E+03  0.13803955181E+03  0.00000000000E+00 0.  1.
         22   -1    0    0    0    0 -0.00000000000E+00 -0.00000000000E+00 -0.34112383470E+03  0.34112383470E+03  0.00000000000E+00 0.  1.
         24    2    1    2    0    0  0.58816888612E+02  0.30558418496E+02 -0.18344933399E+03  0.21129007176E+03  0.81219412412E+02 0.  0.
         25    2    1    2    0    0  0.85773057760E+01 -0.36515923196E+02 -0.75005690619E+02  0.15059802442E+03  0.12508768330E+03 0.  0.
        -24    2    1    2    0    0 -0.67394194388E+02  0.59575046997E+01  0.55370741718E+02  0.11727529033E+03  0.78167163085E+02 0.  0.
        -13    1    3    3    0    0  0.44838994973E+02  0.45294740672E+02 -0.17965781505E+03  0.19062811837E+03  0.00000000000E+00 0.  1.
         14    1    3    3    0    0  0.13977893639E+02 -0.14736322176E+02 -0.37915189399E+01  0.20661953387E+02  0.00000000000E+00 0. -1.
         13    1    5    5    0    0 -0.62508094579E+02  0.25559055332E+02  0.10865990972E+02  0.68400270154E+02  0.00000000000E+00 0. -1.
        -14    1    5    5    0    0 -0.48860998091E+01 -0.19601550632E+02  0.44504750746E+02  0.48875020179E+02  0.00000000000E+00 0.  1.
          5    1    4    4  501    0  0.56520704953E+02 -0.82605772665E+01 -0.75528795611E+02  0.94788704979E+02  0.41800000000E+01 0. -1.
         -5    1    4    4    0  501 -0.47943399177E+02 -0.28255345929E+02  0.52310499229E+00  0.55809319446E+02  0.41800000000E+01 0. -1.
</event>
<event>
11    1  0.1078607E-008  0.1789854E+03  0.7561462E-02  0.1070466E+00
         22   -1    0    0    0    0  0.00000000000E+00  0.00000000000E+00  0.15090759744E+04  0.15090759744E+04  0.00000000000E+00 0.  1.
         22   -1    0    0    0    0 -0.00000000000E+00 -0.00000000000E+00 -0.55149798982E+03  0.55149798982E+03  0.00000000000E+00 0.  1.
         24    2    1    2    0    0 -0.49982203139E+02  0.20507363724E+02 -0.52265478716E+03  0.53213801508E+03  0.84166905312E+02 0.  0.
         25    2    1    2    0    0  0.15314351902E+03  0.41427089123E+02  0.52855926829E+03  0.56585674397E+03  0.12509921450E+03 0.  0.
        -24    2    1    2    0    0 -0.10316131588E+03 -0.61934452846E+02  0.95167350348E+03  0.96257920520E+03  0.79988346194E+02 0.  0.
        -13    1    3    3    0    0 -0.59428604389E+02  0.44472047655E+02 -0.38234856085E+03  0.38948677003E+03  0.00000000000E+00 0.  1.
         14    1    3    3    0    0  0.94464012496E+01 -0.23964683931E+02 -0.14030622631E+03  0.14265124505E+03  0.00000000000E+00 0. -1.
         11    1    5    5    0    0 -0.80481524832E+02 -0.41654492877E+02  0.40302563804E+03  0.41308841370E+03  0.00000000000E+00 0. -1.
        -12    1    5    5    0    0 -0.22679791050E+02 -0.20279959969E+02  0.54864786543E+03  0.54949079150E+03  0.00000000000E+00 0.  1.
          5    1    4    4  501    0  0.19907846131E+02 -0.36993837512E+02  0.68163749912E+02  0.80178772462E+02  0.41800000000E+01 0.  1.
         -5    1    4    4    0  501  0.13323567289E+03  0.78420926634E+02  0.46039551838E+03  0.48567797151E+03  0.41800000000E+01 0.  1.
</event>
<event>
11    1  0.1078607E-008  0.2123368E+03  0.7561462E-02  0.1046127E+00
         22   -1    0    0    0    0  0.00000000000E+00  0.00000000000E+00  0.12117466943E+04  0.12117466943E+04  0.00000000000E+00 0.  1.
         22   -1    0    0    0    0 -0.00000000000E+00 -0.00000000000E+00 -0.43534510161E+03  0.43534510161E+03  0.00000000000E+00 0.  1.
         24    2    1    2    0    0 -0.15468575870E+03  0.32014296990E+02 -0.17141686583E+03  0.25103585180E+03  0.93180780447E+02 0.  0.
         25    2    1    2    0    0  0.14309622999E+03 -0.18081989347E+03 -0.13844197770E+03  0.29662436713E+03  0.12508984401E+03 0.  0.
        -24    2    1    2    0    0  0.11589528705E+02  0.14880559648E+03  0.10862604362E+04  0.10994315770E+04  0.80688502633E+02 0.  0.
        -11    1    3    3    0    0 -0.58001192753E+02  0.10994658657E+02 -0.13187244355E+03  0.14448308638E+03  0.00000000000E+00 0.  1.
         12    1    3    3    0    0 -0.96684565944E+02  0.21019638333E+02 -0.39544422276E+02  0.10655276543E+03  0.00000000000E+00 0. -1.
         13    1    5    5    0    0 -0.26939938219E+02  0.15982384748E+02  0.19067491359E+03  0.19323074178E+03  0.00000000000E+00 0. -1.
        -14    1    5    5    0    0  0.38529466925E+02  0.13282321173E+03  0.89558552264E+03  0.90620083522E+03  0.00000000000E+00 0.  1.
          5    1    4    4  501    0  0.16187429457E+03 -0.14582606962E+03 -0.95308687215E+02  0.23784395743E+03  0.41800000000E+01 0. -1.
         -5    1    4    4    0  501 -0.18778064583E+02 -0.34993823847E+02 -0.43133290483E+02  0.58780409702E+02  0.41800000000E+01 0. -1.
</event>
<event>
11    1  0.1078607E-008  0.1564529E+03  0.7561462E-02  0.1090462E+00
         22   -1    0    0    0    0  0.00000000000E+00  0.00000000000E+00  0.33744781430E+03  0.33744781430E+03  0.00000000000E+00 0.  1.
         22   -1    0    0    0    0 -0.00000000000E+00 -0.00000000000E+00 -0.82659866593E+03  0.82659866593E+03  0.00000000000E+00 0.  1.
        -24    2    1    2    0    0 -0.17518475878E+02  0.38949524542E+02 -0.59549092212E+03  0.60357551834E+03  0.88713051795E+02 0.  0.
         25    2    1    2    0    0 -0.19710869666E+01 -0.12890981855E+03 -0.17681635569E+03  0.25205765802E+03  0.12508961916E+03 0.  0.
         24    2    1    2    0    0  0.19489562845E+02  0.89960294013E+02  0.28315642618E+03  0.30841330387E+03  0.80427027534E+02 0.  0.
        -13    1    5    5    0    0 -0.44553162997E+01  0.92568087966E+02  0.17969982596E+03  0.20218983210E+03  0.00000000000E+00 0.  1.
         14    1    5    5    0    0  0.23944879144E+02 -0.26077939531E+01  0.10345660022E+03  0.10622347177E+03  0.00000000000E+00 0. -1.
         13    1    3    3    0    0  0.12896905721E+02  0.34347615271E+02 -0.90579001039E+02  0.97727397803E+02  0.00000000000E+00 0. -1.
        -14    1    3    3    0    0 -0.30415381599E+02  0.46019092703E+01 -0.50491192108E+03  0.50584812054E+03  0.00000000000E+00 0.  1.
          5    1    4    4  501    0  0.33692049885E+02 -0.10355341757E+03 -0.54020829356E+02  0.12163135665E+03  0.41800000000E+01 0.  1.
         -5    1    4    4    0  501 -0.35663136852E+02 -0.25356400984E+02 -0.12279552634E+03  0.13042630137E+03  0.41800000000E+01 0.  1.
</event>
<event>
11    1  0.1078607E-008  0.1515003E+03  0.7561462E-02  0.1095356E+00
         22   -1    0    0    0    0  0.00000000000E+00  0.00000000000E+00  0.18053663750E+04  0.18053663750E+04  0.00000000000E+00 0.  1.
         22   -1    0    0    0    0 -0.00000000000E+00 -0.00000000000E+00 -0.43426000254E+03  0.43426000254E+03  0.00000000000E+00 0.  1.
         24    2    1    2    0    0  0.49669562719E+02  0.32850224162E+02 -0.41800261604E+03  0.42995945361E+03  0.81195702100E+02 0.  0.
         25    2    1    2    0    0 -0.65670623531E+02  0.58328746400E+02  0.10299754100E+04  0.10412544792E+04  0.12508665699E+03 0.  0.
        -24    2    1    2    0    0  0.16001060812E+02 -0.91178970562E+02  0.75913357852E+03  0.76841244478E+03  0.74861583151E+02 0.  0.
        -11    1    3    3    0    0  0.29602790071E+02 -0.24185591232E+02 -0.12215272244E+03  0.12799435770E+03  0.00000000000E+00 0.  1.
         12    1    3    3    0    0  0.20066772647E+02  0.57035815395E+02 -0.29584989360E+03  0.30196509591E+03  0.00000000000E+00 0. -1.
         13    1    5    5    0    0 -0.11087934726E+01 -0.97962335257E+01  0.80193615329E+01  0.12708492186E+02  0.00000000000E+00 0. -1.
        -14    1    5    5    0    0  0.17109854285E+02 -0.81382737036E+02  0.75111421699E+03  0.75570395260E+03  0.00000000000E+00 0.  1.
          5    1    4    4  501    0 -0.18561624451E+02 -0.10069487235E+02  0.25623354101E+02  0.33465760873E+02  0.41800000000E+01 0. -1.
         -5    1    4    4    0  501 -0.47108999080E+02  0.68398233635E+02  0.10043520559E+04  0.10077887183E+04  0.41800000000E+01 0. -1.
</event>
<event>
11    1  0.1078607E-008  0.4671559E+03  0.7561462E-02  0.9470064E-01
         22   -1    0    0    0    0  0.00000000000E+00  0.00000000000E+00  0.73042792008E+03  0.73042792008E+03  0.00000000000E+00 0.  1.
         22   -1    0    0    0    0 -0.00000000000E+00 -0.00000000000E+00 -0.77023779637E+03  0.77023779637E+03  0.00000000000E+00 0.  1.
        -24    2    1    2    0    0 -0.14844590940E+03  0.26728495809E+03 -0.28075150449E+03  0.42346565414E+03  0.83811193329E+02 0.  0.
         25    2    1    2    0    0  0.31763948642E+03 -0.58334862483E+03  0.97140194258E+02  0.68284293401E+03  0.12509114180E+03 0.  0.
         24    2    1    2    0    0 -0.16919357702E+03  0.31606366675E+03  0.14380143394E+03  0.39435712830E+03  0.79473167139E+02 0.  0.
        -11    1    5    5    0    0 -0.11784499503E+03  0.26313799931E+03  0.86646392848E+02  0.30105920834E+03  0.00000000000E+00 0.  1.
         12    1    5    5    0    0 -0.51348581990E+02  0.52925667436E+02  0.57155041091E+02  0.93297919956E+02  0.00000000000E+00 0. -1.
         11    1    3    3    0    0 -0.94282701591E+02  0.22853129704E+03 -0.19486518792E+03  0.31478281879E+03  0.00000000000E+00 0. -1.
        -12    1    3    3    0    0 -0.54163207807E+02  0.38753661048E+02 -0.85886316577E+02  0.10868283535E+03  0.00000000000E+00 0.  1.
          5    1    4    4  501    0  0.12608127600E+03 -0.16137509316E+03  0.77460028508E+02  0.21898844094E+03  0.41800000000E+01 0.  1.
         -5    1    4    4    0  501  0.19155821041E+03 -0.42197353168E+03  0.19680165751E+02  0.46385449307E+03  0.41800000000E+01 0.  1.
</event>
<event>
11    1  0.1078607E-008  0.1784448E+03  0.7561462E-02  0.1070908E+00
         22   -1    0    0    0    0  0.00000000000E+00  0.00000000000E+00  0.56537536793E+03  0.56537536793E+03  0.00000000000E+00 0.  1.
         22   -1    0    0    0    0 -0.00000000000E+00 -0.00000000000E+00 -0.94142828937E+03  0.94142828937E+03  0.00000000000E+00 0.  1.
         24    2    1    2    0    0  0.65893128099E+02  0.11058172034E+03 -0.79379690138E+03  0.80821546466E+03  0.80799105632E+02 0.  0.
         25    2    1    2    0    0 -0.93080525478E+02 -0.78594304501E+02 -0.80395426583E+02  0.19223047019E+03  0.12509228646E+03 0.  0.
        -24    2    1    2    0    0  0.27187397379E+02 -0.31987415839E+02  0.49813940652E+03  0.50635772246E+03  0.80578690794E+02 0.  0.
        -11    1    3    3    0    0  0.31483449182E+02 -0.44936355524E+01 -0.17639550502E+03  0.17923943351E+03  0.00000000000E+00 0.  1.
         12    1    3    3    0    0  0.34409678918E+02  0.11507535589E+03 -0.61740139636E+03  0.62897603115E+03  0.00000000000E+00 0. -1.
         11    1    5    5    0    0  0.80851100147E+01 -0.46787013211E+02  0.14898045835E+03  0.15636358457E+03  0.00000000000E+00 0. -1.
        -12    1    5    5    0    0  0.19102287364E+02  0.14799597372E+02  0.34915894817E+03  0.34999413789E+03  0.00000000000E+00 0.  1.
          5    1    4    4  501    0 -0.12214078389E+03 -0.45739944691E+02 -0.57918442762E+02  0.14276740539E+03  0.41800000000E+01 0. -1.
         -5    1    4    4    0  501  0.29060258416E+02 -0.32854359810E+02 -0.22476983822E+02  0.49463064800E+02  0.41800000000E+01 0. -1.
</event>
<event>
11    1  0.1078607E-008  0.1316816E+03  0.7561462E-02  0.1117220E+00
         22   -1    0    0    0    0  0.00000000000E+00  0.00000000000E+00  0.42897264970E+03  0.42897264970E+03  0.00000000000E+00 0.  1.
         22   -1    0    0    0    0 -0.00000000000E+00 -0.00000000000E+00 -0.58285390567E+03  0.58285390567E+03  0.00000000000E+00 0. -1.
        -24    2    1    2    0    0  0.26793064436E+02 -0.54943472895E+01 -0.35695179377E+03  0.36644606078E+03  0.78230916083E+02 0.  0.
         25    2    1    2    0    0 -0.39050374659E+02  0.44447383724E+02 -0.19399931682E+03  0.23829342163E+03  0.12509004031E+03 0.  0.
         24    2    1    2    0    0  0.12257310223E+02 -0.38953036434E+02  0.39706985462E+03  0.40708707296E+03  0.79923931479E+02 0.  0.
        -13    1    5    5    0    0  0.37609331670E+02 -0.86315394352E+01  0.29697773473E+03  0.29947410611E+03  0.00000000000E+00 0.  1.
         14    1    5    5    0    0 -0.25352021447E+02 -0.30321496999E+02  0.10009211989E+03  0.10761296686E+03  0.00000000000E+00 0. -1.
         11    1    3    3    0    0 -0.23019803831E+02 -0.98621831572E+01 -0.20391595025E+03  0.20544801968E+03  0.00000000000E+00 0. -1.
        -12    1    3    3    0    0  0.49812868267E+02  0.43678358676E+01 -0.15303584352E+03  0.16099804109E+03  0.00000000000E+00 0.  1.
          5    1    4    4  501    0  0.77872212920E+01  0.73813333478E+02 -0.68474276862E+02  0.10107051007E+03  0.41800000000E+01 0.  1.
         -5    1    4    4    0  501 -0.46837595951E+02 -0.29365949754E+02 -0.12552503996E+03  0.13722291156E+03  0.41800000000E+01 0.  1.
</event>
<event>
11    1  0.1078607E-008  0.1684527E+03  0.7561462E-02  0.1079386E+00
         22   -1    0    0    0    0  0.00000000000E+00  0.00000000000E+00  0.11680822106E+04  0.11680822106E+04  0.00000000000E+00 0. -1.
         22   -1    0    0    0    0 -0.00000000000E+00 -0.00000000000E+00 -0.66108006975E+03  0.66108006975E+03  0.00000000000E+00 0. -1.
        -24    2    1    2    0    0  0.33801669202E+02 -0.10408211286E+03 -0.50484876560E+03  0.52286825282E+03  0.80890633652E+02 0.  0.
         25    2    1    2    0    0 -0.33398967941E+02  0.13074556558E+03 -0.87334109016E+02  0.20367698046E+03  0.12508865573E+03 0.  0.
         24    2    1    2    0    0 -0.40270126087E+00 -0.26663452720E+02  0.10991850154E+04  0.11026170470E+04  0.82737853354E+02 0.  0.
        -13    1    5    5    0    0 -0.55451974598E+01 -0.15994259054E+02  0.40887838196E+02  0.44253597028E+02  0.00000000000E+00 0.  1.
         14    1    5    5    0    0  0.51424961989E+01 -0.10669193666E+02  0.10582971772E+04  0.10583634500E+04  0.00000000000E+00 0. -1.
         13    1    3    3    0    0  0.44078380180E+02 -0.88240017412E+02 -0.48698589060E+03  0.49687469438E+03  0.00000000000E+00 0. -1.
        -14    1    3    3    0    0 -0.10276710978E+02 -0.15842095450E+02 -0.17862875005E+02  0.25993558437E+02  0.00000000000E+00 0.  1.
          5    1    4    4  501    0 -0.16147520973E+02 -0.54887148880E+01  0.21962305041E+02  0.28119097912E+02  0.41800000000E+01 0.  1.
         -5    1    4    4    0  501 -0.17251446968E+02  0.13623428047E+03 -0.10929641406E+03  0.17555788254E+03  0.41800000000E+01 0.  1.
</event>
<event>
11    1  0.1078607E-008  0.1330579E+03  0.7561462E-02  0.1115568E+00
         22   -1    0    0    0    0  0.00000000000E+00  0.00000000000E+00  0.10814349403E+04  0.10814349403E+04  0.00000000000E+00 0. -1.
         22   -1    0    0    0    0 -0.00000000000E+00 -0.00000000000E+00 -0.75226142661E+03  0.75226142661E+03  0.00000000000E+00 0. -1.
         24    2    1    2    0    0 -0.33011961759E+02  0.31031497196E+02 -0.73694021939E+03  0.74262354181E+03  0.79725118118E+02 0.  0.
         25    2    1    2    0    0  0.21976148134E+02 -0.50944737536E+02  0.48554731591E+03  0.50446334408E+03  0.12509497258E+03 0.  0.
        -24    2    1    2    0    0  0.11035813625E+02  0.19913240341E+02  0.58056641720E+03  0.58660948105E+03  0.80839298317E+02 0.  0.
        -11    1    3    3    0    0 -0.43123149978E+02 -0.40135117296E+01 -0.20983678728E+03  0.21425963604E+03  0.00000000000E+00 0.  1.
         12    1    3    3    0    0  0.10111188219E+02  0.35045008925E+02 -0.52710343211E+03  0.52836390577E+03  0.00000000000E+00 0. -1.
         11    1    5    5    0    0  0.15660695787E+01 -0.23423861312E+02  0.39947026922E+03  0.40015950051E+03  0.00000000000E+00 0. -1.
        -12    1    5    5    0    0  0.94697440458E+01  0.43337101653E+02  0.18109614798E+03  0.18644998054E+03  0.00000000000E+00 0.  1.
          5    1    4    4  501    0 -0.92833624833E+01  0.39373199792E+02  0.16554689742E+03  0.17046899227E+03  0.41800000000E+01 0.  1.
         -5    1    4    4    0  501  0.31259510617E+02 -0.90317937329E+02  0.32000041849E+03  0.33399435181E+03  0.41800000000E+01 0.  1.
</event>
<event>
11    1  0.1078607E-008  0.1685512E+03  0.7561462E-02  0.1079299E+00
         22   -1    0    0    0    0  0.00000000000E+00  0.00000000000E+00  0.18028276816E+04  0.18028276816E+04  0.00000000000E+00 0.  1.
         22   -1    0    0    0    0 -0.00000000000E+00 -0.00000000000E+00 -0.14862925143E+03  0.14862925143E+03  0.00000000000E+00 0.  1.
         24    2    1    2    0    0  0.10392977200E+03  0.44824620200E+02 -0.91921994097E+02  0.16759814636E+03  0.82636805237E+02 0.  0.
         25    2    1    2    0    0 -0.12338174772E+03  0.10170929107E+02  0.43839316702E+03  0.47240019196E+03  0.12508744544E+03 0.  0.
        -24    2    1    2    0    0  0.19451975720E+02 -0.54995549307E+02  0.13077272573E+04  0.13114585947E+04  0.79813385508E+02 0.  0.
        -13    1    3    3    0    0  0.60895591133E+00  0.53692290839E+01 -0.48470447277E+02  0.48770725927E+02  0.00000000000E+00 0.  1.
         14    1    3    3    0    0  0.10332081609E+03  0.39455391116E+02 -0.43451546821E+02  0.11882742043E+03  0.00000000000E+00 0. -1.
         11    1    5    5    0    0  0.18789771836E+02  0.68147536390E+01  0.75858484140E+03  0.75884811260E+03  0.00000000000E+00 0. -1.
        -12    1    5    5    0    0  0.66220388397E+00 -0.61810302946E+02  0.54914241587E+03  0.55261048214E+03  0.00000000000E+00 0.  1.
          5    1    4    4  501    0 -0.54263834433E+02 -0.13981940159E+02  0.36262850834E+03  0.36695635413E+03  0.41800000000E+01 0. -1.
         -5    1    4    4    0  501 -0.69117913284E+02  0.24152869267E+02  0.75764658676E+02  0.10544383782E+03  0.41800000000E+01 0. -1.
</event>
<event>
11    1  0.1078607E-008  0.1543233E+03  0.7561462E-02  0.1092541E+00
         22   -1    0    0    0    0  0.00000000000E+00  0.00000000000E+00  0.22264121373E+03  0.22264121373E+03  0.00000000000E+00 0.  1.
         22   -1    0    0    0    0 -0.00000000000E+00 -0.00000000000E+00 -0.18208699700E+04  0.18208699700E+04  0.00000000000E+00 0. -1.
        -24    2    1    2    0    0  0.38523509254E+02  0.79949512113E+02 -0.15740883226E+04  0.15779080882E+04  0.64528306406E+02 0.  0.
         25    2    1    2    0    0 -0.67055538157E+02 -0.97628678681E+02 -0.20321917974E+03  0.26641216382E+03  0.12509836898E+03 0.  0.
         24    2    1    2    0    0  0.28532028903E+02  0.17679166567E+02  0.17907874599E+03  0.19919093175E+03  0.80505903022E+02 0.  0.
        -11    1    5    5    0    0  0.49753140886E+02  0.33489624856E+02  0.11132077225E+03  0.12644858376E+03  0.00000000000E+00 0.  1.
         12    1    5    5    0    0 -0.21221111983E+02 -0.15810458289E+02  0.67757973744E+02  0.72742347989E+02  0.00000000000E+00 0. -1.
         11    1    3    3    0    0 -0.60310721164E+01  0.44710833398E+02 -0.99973394377E+03  0.10007514131E+04  0.00000000000E+00 0. -1.
        -12    1    3    3    0    0  0.44554581370E+02  0.35238678715E+02 -0.57435437880E+03  0.57715667513E+03  0.00000000000E+00 0.  1.
          5    1    4    4  501    0 -0.98093842563E+02 -0.43736604587E+02 -0.14949144591E+03  0.18412076833E+03  0.41800000000E+01 0.  1.
         -5    1    4    4    0  501  0.31038304406E+02 -0.53892074093E+02 -0.53727733828E+02  0.82291395496E+02  0.41800000000E+01 0.  1.
</event>
<event>
11    1  0.1078607E-008  0.2219986E+03  0.7561462E-02  0.1039973E+00
         22   -1    0    0    0    0  0.00000000000E+00  0.00000000000E+00  0.87563148529E+03  0.87563148529E+03  0.00000000000E+00 0.  1.
         22   -1    0    0    0    0 -0.00000000000E+00 -0.00000000000E+00 -0.27220876285E+03  0.27220876285E+03  0.00000000000E+00 0. -1.
         24    2    1    2    0    0 -0.18155105614E+03 -0.77396384598E+01 -0.13740625285E+03  0.24257691053E+03  0.83321013036E+02 0.  0.
         25    2    1    2    0    0  0.18796550565E+03  0.17181794562E+02  0.81452418384E+02  0.24063713517E+03  0.12508192909E+03 0.  0.
        -24    2    1    2    0    0 -0.64144495133E+01 -0.94421561018E+01  0.65937655690E+03  0.66462620243E+03  0.82584778757E+02 0.  0.
        -13    1    3    3    0    0 -0.11759623241E+02  0.32412778875E+01  0.11283003511E+02  0.16616280851E+02  0.00000000000E+00 0.  1.
         14    1    3    3    0    0 -0.16979143290E+03 -0.10980916347E+02 -0.14868925636E+03  0.22596062968E+03  0.00000000000E+00 0. -1.
         11    1    5    5    0    0 -0.24715329946E+02  0.27248428719E+02  0.19475147792E+03  0.19819551598E+03  0.00000000000E+00 0. -1.
        -12    1    5    5    0    0  0.18300880432E+02 -0.36690584821E+02  0.46462507898E+03  0.46643068645E+03  0.00000000000E+00 0.  1.
          5    1    4    4  501    0  0.17869330991E+03  0.42694948754E+02  0.35598588476E+02  0.18718677720E+03  0.41800000000E+01 0.  1.
         -5    1    4    4    0  501  0.92721957431E+01 -0.25513154192E+02  0.45853829908E+02  0.53450357978E+02  0.41800000000E+01 0.  1.
</event>
<event>
11    1  0.1078607E-008  0.3837922E+03  0.7561462E-02  0.9698829E-01
         22   -1    0    0    0    0  0.00000000000E+00  0.00000000000E+00  0.19528979766E+04  0.19528979766E+04  0.00000000000E+00 0. -1.
         22   -1    0    0    0    0 -0.00000000000E+00 -0.00000000000E+00 -0.17500604259E+04  0.17500604259E+04  0.00000000000E+00 0. -1.
        -24    2    1    2    0    0  0.77122980933E+01 -0.44607651663E+02 -0.14822550907E+04  0.14858755757E+04  0.93256369981E+02 0.  0.
         25    2    1    2    0    0  0.34542206479E+03  0.12706473197E+03 -0.93745737615E+02  0.39986882984E+03  0.12507984972E+03 0.  0.
         24    2    1    2    0    0 -0.35313436288E+03 -0.82457080311E+02  0.17788383791E+04  0.18172139969E+04  0.80608209527E+02 0.  0.
        -11    1    5    5    0    0 -0.13648973138E+03 -0.50347566597E+01  0.80998845294E+03  0.82142320971E+03  0.00000000000E+00 0.  1.
         12    1    5    5    0    0 -0.21664463150E+03 -0.77422323651E+02  0.96884992613E+03  0.99579078723E+03  0.00000000000E+00 0. -1.
         13    1    3    3    0    0  0.26825465386E+02 -0.62283856709E+02 -0.72278076341E+03  0.72595517517E+03  0.00000000000E+00 0. -1.
        -14    1    3    3    0    0 -0.19113167293E+02  0.17676205045E+02 -0.75947432729E+03  0.75992040057E+03  0.00000000000E+00 0.  1.
          5    1    4    4  501    0  0.13141314352E+03  0.19191480649E+02 -0.89372945929E+02  0.16013345398E+03  0.41800000000E+01 0. -1.
         -5    1    4    4    0  501  0.21400892126E+03  0.10787325133E+03 -0.43727916863E+01  0.23973537586E+03  0.41800000000E+01 0. -1.
</event>
<event>
11    1  0.1078607E-008  0.1501182E+03  0.7561462E-02  0.1096758E+00
         22   -1    0    0    0    0  0.00000000000E+00  0.00000000000E+00  0.19594807055E+03  0.19594807055E+03  0.00000000000E+00 0. -1.
         22   -1    0    0    0    0 -0.00000000000E+00 -0.00000000000E+00 -0.77354344891E+03  0.77354344891E+03  0.00000000000E+00 0.  1.
        -24    2    1    2    0    0 -0.34412575307E+02 -0.61511797630E+02 -0.53135031588E+03  0.54391988400E+03  0.92454072039E+02 0.  0.
         25    2    1    2    0    0  0.11262388485E+03  0.40534147538E+02 -0.17702214149E+03  0.24761363736E+03  0.12509403772E+03 0.  0.
         24    2    1    2    0    0 -0.78211309541E+02  0.20977650093E+02  0.13077707901E+03  0.17795799810E+03  0.89494882247E+02 0.  0.
        -11    1    5    5    0    0 -0.60356615590E+01  0.31499423173E+02  0.87392638926E+02  0.93091977147E+02  0.00000000000E+00 0.  1.
         12    1    5    5    0    0 -0.72175647982E+02 -0.10521773080E+02  0.43384440087E+02  0.84866020951E+02  0.00000000000E+00 0. -1.
         11    1    3    3    0    0 -0.13655042060E+02 -0.80513096744E+02 -0.46051147938E+03  0.46769609958E+03  0.00000000000E+00 0. -1.
        -12    1    3    3    0    0 -0.20757533246E+02  0.19001299114E+02 -0.70838836494E+02  0.76223784413E+02  0.00000000000E+00 0.  1.
          5    1    4    4  501    0  0.12146715423E+03  0.66520681349E+02 -0.16935100223E+03  0.21880700391E+03  0.41800000000E+01 0. -1.
         -5    1    4    4    0  501 -0.88432693829E+01 -0.25986533812E+02 -0.76711392568E+01  0.28806633445E+02  0.41800000000E+01 0. -1.
</event>
<event>
11    1  0.1078607E-008  0.1534593E+03  0.7561462E-02  0.1093396E+00
         22   -1    0    0    0    0  0.00000000000E+00  0.00000000000E+00  0.16690805034E+04  0.16690805034E+04  0.00000000000E+00 0. -1.
         22   -1    0    0    0    0 -0.00000000000E+00 -0.00000000000E+00 -0.48546086295E+03  0.48546086295E+03  0.00000000000E+00 0.  1.
        -24    2    1    2    0    0 -0.19026652222E+02 -0.26734037909E+02 -0.43313131217E+03  0.44170338578E+03  0.80140034606E+02 0.  0.
         25    2    1    2    0    0 -0.69896861666E+02  0.12489949067E+02  0.67800131202E+02  0.15901377785E+03  0.12508778381E+03 0.  0.
         24    2    1    2    0    0  0.88923513888E+02  0.14244088842E+02  0.15489508215E+04  0.15538242028E+04  0.83730044684E+02 0.  0.
        -13    1    5    5    0    0  0.23592135236E+01  0.24972100962E+02  0.14400375425E+03  0.14617199784E+03  0.00000000000E+00 0.  1.
         14    1    5    5    0    0  0.86564300364E+02 -0.10728012120E+02  0.14049470672E+04  0.14076522049E+04  0.00000000000E+00 0. -1.
         13    1    3    3    0    0  0.35023790703E+01 -0.12918724832E+02 -0.76796043216E+01  0.15431669805E+02  0.00000000000E+00 0. -1.
        -14    1    3    3    0    0 -0.22529031292E+02 -0.13815313078E+02 -0.42545170785E+03  0.42627171597E+03  0.00000000000E+00 0.  1.
          5    1    4    4  501    0 -0.45870271207E+02  0.65224373331E+02  0.16562916356E+02  0.81548165247E+02  0.41800000000E+01 0. -1.
         -5    1    4    4    0  501 -0.24026590459E+02 -0.52734424263E+02  0.51237214846E+02  0.77465612607E+02  0.41800000000E+01 0. -1.
</event>
<event>
11    1  0.1078607E-008  0.1361079E+03  0.7561462E-02  0.1111984E+00
         22   -1    0    0    0    0  0.00000000000E+00  0.00000000000E+00  0.15039879742E+03  0.15039879742E+03  0.00000000000E+00 0. -1.
         22   -1    0    0    0    0 -0.00000000000E+00 -0.00000000000E+00 -0.15698456213E+04  0.15698456213E+04  0.00000000000E+00 0. -1.
        -24    2    1    2    0    0  0.27259005142E+02 -0.11216444214E+02 -0.13954280333E+04  0.13983614951E+04  0.85595636491E+02 0.  0.
         25    2    1    2    0    0  0.20171598286E+02 -0.20181168786E+02 -0.12678799730E+03  0.18037955179E+03  0.12508962185E+03 0.  0.
         24    2    1    2    0    0 -0.47430603428E+02  0.31397613000E+02  0.10276920675E+03  0.14150337176E+03  0.78906413674E+02 0.  0.
        -13    1    5    5    0    0  0.13587661360E+02  0.26184347351E+02  0.11650646998E+02  0.31717221867E+02  0.00000000000E+00 0.  1.
         14    1    5    5    0    0 -0.61018264788E+02  0.52132656486E+01  0.91118559751E+02  0.10978614989E+03  0.00000000000E+00 0. -1.
         11    1    3    3    0    0  0.15094674089E+02  0.27738456550E+02 -0.22316368935E+03  0.22538700805E+03  0.00000000000E+00 0. -1.
        -12    1    3    3    0    0  0.12164331053E+02 -0.38954900765E+02 -0.11722643440E+04  0.11729744871E+04  0.00000000000E+00 0.  1.
          5    1    4    4  501    0 -0.26973552788E+02 -0.44928814505E+02 -0.12217258002E+02  0.53971332353E+02  0.41800000000E+01 0. -1.
         -5    1    4    4    0  501  0.47145151074E+02  0.24747645720E+02 -0.11457073930E+03  0.12640821944E+03  0.41800000000E+01 0. -1.
</event>
<event>
11    1  0.1078607E-008  0.2480654E+03  0.7561462E-02  0.1024935E+00
         22   -1    0    0    0    0  0.00000000000E+00  0.00000000000E+00  0.36332765325E+04  0.36332765325E+04  0.00000000000E+00 0. -1.
         22   -1    0    0    0    0 -0.00000000000E+00 -0.00000000000E+00 -0.86537173777E+03  0.86537173777E+03  0.00000000000E+00 0.  1.
         24    2    1    2    0    0  0.14870754766E+02 -0.21464451839E+03 -0.84185879567E+03  0.87265501148E+03  0.80666774973E+02 0.  0.
         25    2    1    2    0    0 -0.18000208291E+02  0.13565351529E+03  0.12615303104E+04  0.12750813218E+04  0.12509104471E+03 0.  0.
        -24    2    1    2    0    0  0.31294535253E+01  0.78991003100E+02  0.23482332800E+04  0.23509119370E+04  0.79611720529E+02 0.  0.
        -13    1    3    3    0    0  0.11056762833E+02 -0.21470987061E+03 -0.84181994516E+03  0.86884026185E+03  0.00000000000E+00 0.  1.
         14    1    3    3    0    0  0.38139919330E+01  0.65352226907E-01 -0.38850516004E-01  0.38147496302E+01  0.00000000000E+00 0. -1.
         11    1    5    5    0    0 -0.12752166425E+02  0.39260580023E+02  0.19406482476E+04  0.19410872293E+04  0.00000000000E+00 0. -1.
        -12    1    5    5    0    0  0.15881619950E+02  0.39730423077E+02  0.40758503238E+03  0.40982470764E+03  0.00000000000E+00 0.  1.
          5    1    4    4  501    0 -0.36092524645E+02 -0.66267820898E+01  0.39811892967E+03  0.39982838711E+03  0.41800000000E+01 0. -1.
         -5    1    4    4    0  501  0.18092316354E+02  0.14228029738E+03  0.86341138074E+03  0.87525293472E+03  0.41800000000E+01 0. -1.
</event>
<event>
11    1  0.1078607E-008  0.1590672E+03  0.7561462E-02  0.1087958E+00
         22   -1    0    0    0    0  0.00000000000E+00  0.00000000000E+00  0.20322126573E+04  0.20322126573E+04  0.00000000000E+00 0. -1.
         22   -1    0    0    0    0 -0.00000000000E+00 -0.00000000000E+00 -0.30062519629E+03  0.30062519629E+03  0.00000000000E+00 0.  1.
        -24    2    1    2    0    0  0.89900384121E+02  0.84655047984E+01 -0.20034352256E+03  0.23403557967E+03  0.80507028780E+02 0.  0.
         25    2    1    2    0    0 -0.31472503447E+02 -0.88858190023E+02 -0.59792108624E+01  0.15674732637E+03  0.12509067493E+03 0.  0.
         24    2    1    2    0    0 -0.58427880674E+02  0.80392685224E+02  0.19379101945E+04  0.19420549476E+04  0.78769896418E+02 0.  0.
        -11    1    5    5    0    0  0.15811540701E+02  0.27379437128E+02  0.31495817439E+03  0.31654113479E+03  0.00000000000E+00 0.  1.
         12    1    5    5    0    0 -0.74239421375E+02  0.53013248096E+02  0.16229520201E+04  0.16255138128E+04  0.00000000000E+00 0. -1.
         13    1    3    3    0    0  0.71358967465E+02 -0.29951828043E+01 -0.63815157018E+02  0.95778116618E+02  0.00000000000E+00 0. -1.
        -14    1    3    3    0    0  0.18541416656E+02  0.11460687603E+02 -0.13652836554E+03  0.13825746305E+03  0.00000000000E+00 0.  1.
          5    1    4    4  501    0  0.34777226820E+02 -0.87191628590E+01 -0.33352301503E+02  0.49145983781E+02  0.41800000000E+01 0.  1.
         -5    1    4    4    0  501 -0.66249730268E+02 -0.80139027164E+02  0.27373090641E+02  0.10760134259E+03  0.41800000000E+01 0.  1.
</event>
<event>
11    1  0.1078607E-008  0.1257248E+03  0.7561462E-02  0.1124636E+00
         22   -1    0    0    0    0  0.00000000000E+00  0.00000000000E+00  0.15468482789E+03  0.15468482789E+03  0.00000000000E+00 0.  1.
         22   -1    0    0    0    0 -0.00000000000E+00 -0.00000000000E+00 -0.16694860909E+04  0.16694860909E+04  0.00000000000E+00 0.  1.
         24    2    1    2    0    0 -0.35402138425E+02 -0.24153558617E+02 -0.15300122199E+04  0.15321103156E+04  0.67734188148E+02 0.  0.
         25    2    1    2    0    0  0.43608450632E+02  0.17964976870E+02 -0.87096567582E+02  0.15955789558E+03  0.12509385515E+03 0.  0.
        -24    2    1    2    0    0 -0.82063122063E+01  0.61885817469E+01  0.10230752449E+03  0.13250270761E+03  0.83573296295E+02 0.  0.
        -13    1    3    3    0    0 -0.49130831809E+02 -0.31141460323E+02 -0.88256207340E+03  0.88447693163E+03  0.00000000000E+00 0.  1.
         14    1    3    3    0    0  0.13728693383E+02  0.69879017068E+01 -0.64745014652E+03  0.64763338396E+03  0.00000000000E+00 0. -1.
         11    1    5    5    0    0  0.20692301818E+02  0.12422288556E+02 -0.18744546563E+01  0.24207399442E+02  0.00000000000E+00 0. -1.
        -12    1    5    5    0    0 -0.28898614025E+02 -0.62337068087E+01  0.10418197914E+03  0.10829530817E+03  0.00000000000E+00 0.  1.
          5    1    4    4  501    0  0.49492175563E+01  0.65981618180E+02 -0.67799514691E+02  0.94827819148E+02  0.41800000000E+01 0. -1.
         -5    1    4    4    0  501  0.38659233075E+02 -0.48016641310E+02 -0.19297052891E+02  0.64730076433E+02  0.41800000000E+01 0. -1.
</event>
<event>
11    1  0.1078607E-008  0.2409766E+03  0.7561462E-02  0.1028819E+00
         22   -1    0    0    0    0  0.00000000000E+00  0.00000000000E+00  0.56158025271E+03  0.56158025271E+03  0.00000000000E+00 0. -1.
         22   -1    0    0    0    0 -0.00000000000E+00 -0.00000000000E+00 -0.45105191813E+03  0.45105191813E+03  0.00000000000E+00 0.  1.
         24    2    1    2    0    0 -0.10581171360E+03  0.11224674664E+03 -0.19478173537E+03  0.26136256885E+03  0.81086479125E+02 0.  0.
         25    2    1    2    0    0  0.67357327498E+01 -0.28526439547E+03 -0.69745851220E+02  0.31927090993E+03  0.12509310430E+03 0.  0.
        -24    2    1    2    0    0  0.99075980850E+02  0.17301764883E+03  0.37505592116E+03  0.43199869206E+03  0.78770357088E+02 0.  0.
        -11    1    3    3    0    0 -0.85312737984E+02  0.10750119721E+03 -0.19712246072E+03  0.24019166344E+03  0.00000000000E+00 0.  1.
         12    1    3    3    0    0 -0.20498975616E+02  0.47455494304E+01  0.23407253569E+01  0.21170905411E+02  0.00000000000E+00 0. -1.
         13    1    5    5    0    0  0.81913663005E+02  0.15528221313E+03  0.36560180965E+03  0.40557008904E+03  0.00000000000E+00 0. -1.
        -14    1    5    5    0    0  0.17162317845E+02  0.17735435699E+02  0.94541115090E+01  0.26428603022E+02  0.00000000000E+00 0.  1.
          5    1    4    4  501    0  0.37112525895E+02 -0.36771851989E+02 -0.42380887519E+02  0.67402675792E+02  0.41800000000E+01 0. -1.
         -5    1    4    4    0  501 -0.30376793145E+02 -0.24849254348E+03 -0.27364963700E+02  0.25186823413E+03  0.41800000000E+01 0. -1.
</event>
<event>
11    1  0.1078607E-008  0.1255422E+03  0.7561462E-02  0.1124871E+00
         22   -1    0    0    0    0  0.00000000000E+00  0.00000000000E+00  0.56062464491E+03  0.56062464491E+03  0.00000000000E+00 0. -1.
         22   -1    0    0    0    0 -0.00000000000E+00 -0.00000000000E+00 -0.25837335231E+03  0.25837335231E+03  0.00000000000E+00 0.  1.
        -24    2    1    2    0    0 -0.53894441485E+01 -0.10384609333E+01 -0.23197351476E+03  0.24540553378E+03  0.79887670826E+02 0.  0.
         25    2    1    2    0    0  0.11448946382E+02  0.78583765663E+01  0.28865815106E+03  0.31490335957E+03  0.12509102782E+03 0.  0.
         24    2    1    2    0    0 -0.60595022333E+01 -0.68199156330E+01  0.24556665630E+03  0.25868910387E+03  0.80832177755E+02 0.  0.
        -11    1    5    5    0    0  0.16825095969E+02 -0.24755564363E+02  0.34693857201E+02  0.45821234693E+02  0.00000000000E+00 0.  1.
         12    1    5    5    0    0 -0.22884598202E+02  0.17935648730E+02  0.21087279909E+03  0.21286786918E+03  0.00000000000E+00 0. -1.
         13    1    3    3    0    0 -0.23066283586E+02 -0.19289252642E+01 -0.14717003307E+02  0.27429261336E+02  0.00000000000E+00 0. -1.
        -14    1    3    3    0    0  0.17676839437E+02  0.89046433090E+00 -0.21725651145E+03  0.21797627244E+03  0.00000000000E+00 0.  1.
          5    1    4    4  501    0  0.43043568531E+02 -0.28875992158E+02  0.24194567544E+03  0.24747071338E+03  0.41800000000E+01 0. -1.
         -5    1    4    4    0  501 -0.31594622150E+02  0.36734368724E+02  0.46712475618E+02  0.67432646194E+02  0.41800000000E+01 0. -1.
</event>
<event>
11    1  0.1078607E-008  0.1572052E+03  0.7561462E-02  0.1089736E+00
         22   -1    0    0    0    0  0.00000000000E+00  0.00000000000E+00  0.30939191858E+03  0.30939191858E+03  0.00000000000E+00 0. -1.
         22   -1    0    0    0    0 -0.00000000000E+00 -0.00000000000E+00 -0.22770826783E+03  0.22770826783E+03  0.00000000000E+00 0. -1.
         24    2    1    2    0    0  0.11499698576E+02 -0.93663246276E+02 -0.93690915697E+02  0.15705065211E+03  0.83557602121E+02 0.  0.
         25    2    1    2    0    0 -0.18535247866E+01  0.97337375514E+02 -0.27421539363E+02  0.16086386498E+03  0.12508893640E+03 0.  0.
        -24    2    1    2    0    0 -0.96461737891E+01 -0.36741292374E+01  0.20279610580E+03  0.21918566933E+03  0.82519992816E+02 0.  0.
        -11    1    3    3    0    0 -0.10953515063E+02 -0.35766870511E+01  0.11820484541E+02  0.16507453992E+02  0.00000000000E+00 0.  1.
         12    1    3    3    0    0  0.22453213638E+02 -0.90086559225E+02 -0.10551140024E+03  0.14054319811E+03  0.00000000000E+00 0. -1.
         11    1    5    5    0    0  0.89991322973E+01 -0.39421891845E+02  0.12772421417E+03  0.13397217929E+03  0.00000000000E+00 0. -1.
        -12    1    5    5    0    0 -0.18645306086E+02  0.35747762607E+02  0.75071891637E+02  0.85213490038E+02  0.00000000000E+00 0.  1.
          5    1    4    4  501    0 -0.67886853909E+01 -0.29777606771E+02 -0.83671251988E+00  0.30837713958E+02  0.41800000000E+01 0. -1.
         -5    1    4    4    0  501  0.49351606043E+01  0.12711498228E+03 -0.26584826843E+02  0.13002615102E+03  0.41800000000E+01 0. -1.
</event>
<event>
11    1  0.1078607E-008  0.1400001E+03  0.7561462E-02  0.1107558E+00
         22   -1    0    0    0    0  0.00000000000E+00  0.00000000000E+00  0.25938024823E+03  0.25938024823E+03  0.00000000000E+00 0.  1.
         22   -1    0    0    0    0 -0.00000000000E+00 -0.00000000000E+00 -0.28817489960E+03  0.28817489960E+03  0.00000000000E+00 0. -1.
        -24    2    1    2    0    0 -0.20184899754E+02 -0.15722130415E+02 -0.19809886607E+03  0.21552619610E+03  0.80955326606E+02 0.  0.
         25    2    1    2    0    0  0.56116326640E+02  0.62719174407E+02  0.12983635425E+02  0.15132073831E+03  0.12508658642E+03 0.  0.
         24    2    1    2    0    0 -0.35931426885E+02 -0.46997043993E+02  0.15632057927E+03  0.18070821342E+03  0.68698946947E+02 0.  0.
        -11    1    5    5    0    0 -0.30494683300E+02 -0.46834237662E+02  0.16287171425E+03  0.17219339949E+03  0.00000000000E+00 0.  1.
         12    1    5    5    0    0 -0.54367435855E+01 -0.16280633029E+00 -0.65511349771E+01  0.85148139266E+01  0.00000000000E+00 0. -1.
         13    1    3    3    0    0 -0.91717776984E+01 -0.39338063932E+02 -0.17825109842E+03  0.18277050875E+03  0.00000000000E+00 0. -1.
        -14    1    3    3    0    0 -0.11013122056E+02  0.23615933517E+02 -0.19847767643E+02  0.32755687349E+02  0.00000000000E+00 0.  1.
          5    1    4    4  501    0  0.33342443861E+00 -0.11767612041E+02  0.49660305647E+02  0.51207482089E+02  0.41800000000E+01 0.  1.
         -5    1    4    4    0  501  0.55782902201E+02  0.74486786449E+02 -0.36676670221E+02  0.10011325622E+03  0.41800000000E+01 0.  1.
</event>
<event>
11    1  0.1078607E-008  0.1366554E+03  0.7561462E-02  0.1111352E+00
         22   -1    0    0    0    0  0.00000000000E+00  0.00000000000E+00  0.64770844945E+03  0.64770844945E+03  0.00000000000E+00 0. -1.
         22   -1    0    0    0    0 -0.00000000000E+00 -0.00000000000E+00 -0.92432411667E+03  0.92432411667E+03  0.00000000000E+00 0. -1.
         24    2    1    2    0    0  0.28844313981E+02 -0.15171727161E+02 -0.77321534395E+03  0.77801974784E+03  0.79941129317E+02 0.  0.
         25    2    1    2    0    0 -0.71782995956E+02 -0.18663407032E+02 -0.10834456293E+03  0.18134901152E+03  0.12509116033E+03 0.  0.
        -24    2    1    2    0    0  0.42938681974E+02  0.33835134194E+02  0.60494423967E+03  0.61266380676E+03  0.80067848078E+02 0.  0.
        -13    1    3    3    0    0  0.85133202494E+01 -0.43184330989E+02 -0.26530872407E+03  0.26893508906E+03  0.00000000000E+00 0.  1.
         14    1    3    3    0    0  0.20330993732E+02  0.28012603828E+02 -0.50790661988E+03  0.50908465877E+03  0.00000000000E+00 0. -1.
         11    1    5    5    0    0  0.45696450337E+02 -0.14430955998E+02  0.33750308314E+03  0.34088817696E+03  0.00000000000E+00 0. -1.
        -12    1    5    5    0    0 -0.27577683623E+01  0.48266090191E+02  0.26744115653E+03  0.27177562980E+03  0.00000000000E+00 0.  1.
          5    1    4    4  501    0 -0.56150362530E+02  0.34487906201E+02 -0.10704821275E+03  0.12577388894E+03  0.41800000000E+01 0. -1.
         -5    1    4    4    0  501 -0.15632633426E+02 -0.53151313233E+02 -0.12963501827E+01  0.55575122582E+02  0.41800000000E+01 0. -1.
</event>
<event>
11    1  0.1078607E-008  0.1276700E+03  0.7561462E-02  0.1122165E+00
         22   -1    0    0    0    0  0.00000000000E+00  0.00000000000E+00  0.85934136177E+03  0.85934136177E+03  0.00000000000E+00 0.  1.
         22   -1    0    0    0    0 -0.00000000000E+00 -0.00000000000E+00 -0.27940220052E+03  0.27940220052E+03  0.00000000000E+00 0. -1.
         24    2    1    2    0    0 -0.15855446559E+02 -0.19293055644E+02 -0.24561662397E+03  0.26061524205E+03  0.83481502352E+02 0.  0.
         25    2    1    2    0    0  0.26790362843E+02  0.27184050333E+02  0.15601808792E+03  0.20358781371E+03  0.12509859311E+03 0.  0.
        -24    2    1    2    0    0 -0.10934916285E+02 -0.78909946894E+01  0.66953769730E+03  0.67454050653E+03  0.80884650302E+02 0.  0.
        -11    1    3    3    0    0  0.12511202773E+02  0.25942441362E+02 -0.48616982756E+02  0.56507977056E+02  0.00000000000E+00 0.  1.
         12    1    3    3    0    0 -0.28366649331E+02 -0.45235497006E+02 -0.19699964121E+03  0.20410726499E+03  0.00000000000E+00 0. -1.
         11    1    5    5    0    0  0.13682264888E+02 -0.26636372083E+02  0.10584924848E+03  0.11000347310E+03  0.00000000000E+00 0. -1.
        -12    1    5    5    0    0 -0.24617181172E+02  0.18745377394E+02  0.56368844882E+03  0.56453703344E+03  0.00000000000E+00 0.  1.
          5    1    4    4  501    0 -0.38069360290E+00  0.39009306782E+02 -0.52342232654E+01  0.39582072160E+02  0.41800000000E+01 0.  1.
         -5    1    4    4    0  501  0.27171056446E+02 -0.11825256449E+02  0.16125231119E+03  0.16400574155E+03  0.41800000000E+01 0.  1.
</event>
<event>
11    1  0.1078607E-008  0.1290180E+03  0.7561462E-02  0.1120481E+00
         22   -1    0    0    0    0  0.00000000000E+00  0.00000000000E+00  0.81823231839E+03  0.81823231839E+03  0.00000000000E+00 0.  1.
         22   -1    0    0    0    0 -0.00000000000E+00 -0.00000000000E+00 -0.33136068847E+03  0.33136068847E+03  0.00000000000E+00 0. -1.
         24    2    1    2    0    0 -0.26596399622E+02 -0.18653743332E+02 -0.26284570860E+03  0.27708343041E+03  0.81437278118E+02 0.  0.
         25    2    1    2    0    0  0.34378746901E+02 -0.11888120524E+02  0.13114157239E+02  0.13093027382E+03  0.12509008688E+03 0.  0.
        -24    2    1    2    0    0 -0.77823472798E+01  0.30541863856E+02  0.73660318128E+03  0.74157930263E+03  0.79763682383E+02 0.  0.
        -13    1    3    3    0    0  0.16072321035E+02 -0.31438547466E+02 -0.61920323293E+02  0.71279928500E+02  0.00000000000E+00 0.  1.
         14    1    3    3    0    0 -0.42668720657E+02  0.12784804134E+02 -0.20092538531E+03  0.20580350191E+03  0.00000000000E+00 0. -1.
         11    1    5    5    0    0 -0.75101047420E+01 -0.24689600888E+02  0.13488216307E+03  0.13732871506E+03  0.00000000000E+00 0. -1.
        -12    1    5    5    0    0 -0.27224253776E+00  0.55231464745E+02  0.60172101821E+03  0.60425058756E+03  0.00000000000E+00 0.  1.
          5    1    4    4  501    0  0.23692371074E+02  0.12202588062E+02 -0.53090232325E+02  0.59550623597E+02  0.41800000000E+01 0.  1.
         -5    1    4    4    0  501  0.10686375827E+02 -0.24090708586E+02  0.66204389564E+02  0.71379650223E+02  0.41800000000E+01 0.  1.
</event>
<event>
11    1  0.1078607E-008  0.1459037E+03  0.7561462E-02  0.1101139E+00
         22   -1    0    0    0    0  0.00000000000E+00  0.00000000000E+00  0.84222823928E+02  0.84222823928E+02  0.00000000000E+00 0. -1.
         22   -1    0    0    0    0 -0.00000000000E+00 -0.00000000000E+00 -0.43837277155E+04  0.43837277155E+04  0.00000000000E+00 0. -1.
        -24    2    1    2    0    0  0.47227496350E+02  0.64223874262E-01 -0.29978452509E+04  0.29992553316E+04  0.78904719925E+02 0.  0.
         25    2    1    2    0    0 -0.35766952436E+02 -0.74466177584E+02 -0.13436781928E+04  0.13520147105E+04  0.12509278566E+03 0.  0.
         24    2    1    2    0    0 -0.11460543914E+02  0.74401953710E+02  0.42018552246E+02  0.11668049731E+03  0.78624327902E+02 0.  0.
        -13    1    5    5    0    0  0.20603314179E+01 -0.12463303776E+02  0.23736111179E+02  0.26888322381E+02  0.00000000000E+00 0.  1.
         14    1    5    5    0    0 -0.13520875332E+02  0.86865257486E+02  0.18282441067E+02  0.89792174933E+02  0.00000000000E+00 0. -1.
         13    1    3    3    0    0  0.66261498931E+02  0.60129544442E+01 -0.17733236979E+04  0.17745714073E+04  0.00000000000E+00 0. -1.
        -14    1    3    3    0    0 -0.19034002581E+02 -0.59487305699E+01 -0.12245215530E+04  0.12246839243E+04  0.00000000000E+00 0.  1.
          5    1    4    4  501    0  0.91934668726E+01 -0.90386975774E+02 -0.60628347497E+03  0.61306724724E+03  0.41800000000E+01 0.  1.
         -5    1    4    4    0  501 -0.44960419309E+02  0.15920798189E+02 -0.73739471787E+03  0.73894746326E+03  0.41800000000E+01 0.  1.
</event>
<event>
11    1  0.1078607E-008  0.1635492E+03  0.7561462E-02  0.1083786E+00
         22   -1    0    0    0    0  0.00000000000E+00  0.00000000000E+00  0.14777668932E+04  0.14777668932E+04  0.00000000000E+00 0.  1.
         22   -1    0    0    0    0 -0.00000000000E+00 -0.00000000000E+00 -0.59952997483E+03  0.59952997483E+03  0.00000000000E+00 0.  1.
        -24    2    1    2    0    0  0.92952811480E+02  0.33046319600E+02 -0.36104150464E+03  0.38335389805E+03  0.82927430189E+02 0.  0.
         25    2    1    2    0    0 -0.96975953472E+02 -0.99424300394E+02 -0.18668649008E+03  0.26417483635E+03  0.12508785520E+03 0.  0.
         24    2    1    2    0    0  0.40231419921E+01  0.66377980795E+02  0.14259649131E+04  0.14297681337E+04  0.80241887748E+02 0.  0.
        -11    1    5    5    0    0 -0.10236843547E+02  0.82219374932E+02  0.11163747426E+04  0.11194451235E+04  0.00000000000E+00 0.  1.
         12    1    5    5    0    0  0.14259985539E+02 -0.15841394137E+02  0.30959017053E+03  0.31032301018E+03  0.00000000000E+00 0. -1.
         13    1    3    3    0    0  0.47271376460E+02 -0.42717068276E+00 -0.56857215421E+02  0.73942602420E+02  0.00000000000E+00 0. -1.
        -14    1    3    3    0    0  0.45681435021E+02  0.33473490282E+02 -0.30418428922E+03  0.30941129563E+03  0.00000000000E+00 0.  1.
          5    1    4    4  501    0 -0.55884297799E+02 -0.12563195107E+03 -0.14541457835E+03  0.20017320966E+03  0.41800000000E+01 0. -1.
         -5    1    4    4    0  501 -0.41091655674E+02  0.26207650677E+02 -0.41271911738E+02  0.64001626686E+02  0.41800000000E+01 0. -1.
</event>
<event>
11    1  0.1078607E-008  0.1565679E+03  0.7561462E-02  0.1090350E+00
         22   -1    0    0    0    0  0.00000000000E+00  0.00000000000E+00  0.53711888468E+03  0.53711888468E+03  0.00000000000E+00 0.  1.
         22   -1    0    0    0    0 -0.00000000000E+00 -0.00000000000E+00 -0.34399653763E+03  0.34399653763E+03  0.00000000000E+00 0.  1.
         24    2    1    2    0    0  0.15376555764E+02  0.10123345755E+03 -0.24458850808E+03  0.27709380620E+03  0.80453637277E+02 0.  0.
         25    2    1    2    0    0 -0.15297830735E+02 -0.61047752263E+02 -0.16819031422E+02  0.14103596354E+03  0.12508961393E+03 0.  0.
        -24    2    1    2    0    0 -0.78725028987E-01 -0.40185705286E+02  0.45452988656E+03  0.46298565257E+03  0.78379841820E+02 0.  0.
        -13    1    3    3    0    0  0.10911404353E+02  0.89069427919E+02 -0.24796570215E+03  0.26370326350E+03  0.00000000000E+00 0.  1.
         14    1    3    3    0    0  0.44651514105E+01  0.12164029630E+02  0.33771940703E+01  0.13390542698E+02  0.00000000000E+00 0. -1.
         11    1    5    5    0    0  0.32910403306E+02 -0.31904080429E+01  0.10858030657E+03  0.11350311152E+03  0.00000000000E+00 0. -1.
        -12    1    5    5    0    0 -0.32989128335E+02 -0.36995297243E+02  0.34594957999E+03  0.34948254106E+03  0.00000000000E+00 0.  1.
          5    1    4    4  501    0 -0.19420950430E+02 -0.99081517263E+02 -0.17436699559E+02  0.10254672725E+03  0.41800000000E+01 0. -1.
         -5    1    4    4    0  501  0.41231196953E+01  0.38033764999E+02  0.61766813729E+00  0.38489236287E+02  0.41800000000E+01 0. -1.
</event>
<event>
11    1  0.1078607E-008  0.8504477E+03  0.7561462E-02  0.8835922E-01
         22   -1    0    0    0    0  0.00000000000E+00  0.00000000000E+00  0.18132298589E+04  0.18132298589E+04  0.00000000000E+00 0.  1.
         22   -1    0    0    0    0 -0.00000000000E+00 -0.00000000000E+00 -0.91071447713E+03  0.91071447713E+03  0.00000000000E+00 0.  1.
         24    2    1    2    0    0 -0.88455782267E+03 -0.63870926202E+00 -0.21950838805E+03  0.91494797498E+03  0.80640652872E+02 0.  0.
         25    2    1    2    0    0  0.78032773576E+03 -0.95002308098E+02  0.13332783450E+03  0.80706768209E+03  0.12508044726E+03 0.  0.
        -24    2    1    2    0    0  0.10423008691E+03  0.95641017360E+02  0.98869593529E+03  0.10019286789E+04  0.79563245124E+02 0.  0.
        -11    1    3    3    0    0 -0.78279927816E+03  0.11044885293E+02 -0.16972689415E+03  0.80106424085E+03  0.00000000000E+00 0.  1.
         12    1    3    3    0    0 -0.10175854451E+03 -0.11683594555E+02 -0.49781493907E+02  0.11388373413E+03  0.00000000000E+00 0. -1.
         11    1    5    5    0    0  0.29999799631E+02  0.78682987695E+02  0.59593948568E+03  0.60185951111E+03  0.00000000000E+00 0. -1.
        -12    1    5    5    0    0  0.74230287280E+02  0.16958029665E+02  0.39275644961E+03  0.40006916781E+03  0.00000000000E+00 0.  1.
          5    1    4    4  501    0  0.17289522876E+03 -0.31900542146E+02  0.82464485788E+02  0.19423765992E+03  0.41800000000E+01 0. -1.
         -5    1    4    4    0  501  0.60743250700E+03 -0.63101765952E+02  0.50863348714E+02  0.61283002217E+03  0.41800000000E+01 0. -1.
</event>
<event>
11    1  0.1078607E-008  0.1443204E+03  0.7561462E-02  0.1102828E+00
         22   -1    0    0    0    0  0.00000000000E+00  0.00000000000E+00  0.11495935503E+04  0.11495935503E+04  0.00000000000E+00 0. -1.
         22   -1    0    0    0    0 -0.00000000000E+00 -0.00000000000E+00 -0.10713834566E+03  0.10713834566E+03  0.00000000000E+00 0.  1.
        -24    2    1    2    0    0 -0.59625039348E+02  0.38657361364E+02 -0.53502263933E+02  0.12040088586E+03  0.81143971832E+02 0.  0.
         25    2    1    2    0    0  0.51134790058E+02 -0.68705982570E+02  0.30616720051E+03  0.34164489535E+03  0.12509037155E+03 0.  0.
         24    2    1    2    0    0  0.84902492899E+01  0.30048621206E+02  0.78979026805E+03  0.79468611475E+03  0.82355021104E+02 0.  0.
        -11    1    5    5    0    0  0.27010763174E+01  0.39077978114E+02  0.15726580145E+03  0.16207071448E+03  0.00000000000E+00 0.  1.
         12    1    5    5    0    0  0.57891729725E+01 -0.90293569085E+01  0.63252446660E+03  0.63261540027E+03  0.00000000000E+00 0. -1.
         11    1    3    3    0    0 -0.20352441588E+02 -0.24183668350E+02 -0.54319112290E+01  0.32071441393E+02  0.00000000000E+00 0. -1.
        -12    1    3    3    0    0 -0.39272597760E+02  0.62841029715E+02 -0.48070352704E+02  0.88329444465E+02  0.00000000000E+00 0.  1.
          5    1    4    4  501    0  0.74202500985E+02 -0.13303626787E+02  0.91088561022E+02  0.11831143642E+03  0.41800000000E+01 0.  1.
         -5    1    4    4    0  501 -0.23067710927E+02 -0.55402355783E+02  0.21507863949E+03  0.22333345893E+03  0.41800000000E+01 0.  1.
</event>
<event>
11    1  0.1078607E-008  0.1292461E+03  0.7561462E-02  0.1120199E+00
         22   -1    0    0    0    0  0.00000000000E+00  0.00000000000E+00  0.15000532169E+04  0.15000532169E+04  0.00000000000E+00 0. -1.
         22   -1    0    0    0    0 -0.00000000000E+00 -0.00000000000E+00 -0.54281064405E+03  0.54281064405E+03  0.00000000000E+00 0.  1.
         24    2    1    2    0    0  0.11272475773E+02 -0.30645791089E+02 -0.51315516558E+03  0.51991266291E+03  0.76907215964E+02 0.  0.
         25    2    1    2    0    0 -0.22026309343E+02  0.19605370062E+02  0.13975070178E+03  0.18985975897E+03  0.12508773156E+03 0.  0.
        -24    2    1    2    0    0  0.10753833570E+02  0.11040421027E+02  0.13306470367E+04  0.13330914391E+04  0.79206773690E+02 0.  0.
        -11    1    3    3    0    0 -0.43903606525E+01 -0.73568238026E+01 -0.45751026423E+03  0.45759047193E+03  0.00000000000E+00 0.  1.
         12    1    3    3    0    0  0.15662836425E+02 -0.23288967286E+02 -0.55644901350E+02  0.62322190979E+02  0.00000000000E+00 0. -1.
         11    1    5    5    0    0  0.18154695981E+01  0.27641421180E+01  0.13014616189E+04  0.13014658205E+04  0.00000000000E+00 0. -1.
        -12    1    5    5    0    0  0.89383639724E+01  0.82762789089E+01  0.29185417731E+02  0.31625618590E+02  0.00000000000E+00 0.  1.
          5    1    4    4  501    0 -0.39609546924E+02 -0.37602950532E+02  0.24660793801E+02  0.60071001716E+02  0.41800000000E+01 0. -1.
         -5    1    4    4    0  501  0.17583237581E+02  0.57208320594E+02  0.11508990798E+03  0.12978875725E+03  0.41800000000E+01 0. -1.
</event>
<event>
11    1  0.1078607E-008  0.1251599E+03  0.7561462E-02  0.1125363E+00
         22   -1    0    0    0    0  0.00000000000E+00  0.00000000000E+00  0.12268867556E+04  0.12268867556E+04  0.00000000000E+00 0.  1.
         22   -1    0    0    0    0 -0.00000000000E+00 -0.00000000000E+00 -0.29559702751E+03  0.29559702751E+03  0.00000000000E+00 0. -1.
        -24    2    1    2    0    0 -0.68036815043E+01  0.80252234862E+01 -0.27138813345E+03  0.28288631875E+03  0.79135681381E+02 0.  0.
         25    2    1    2    0    0  0.90902496790E+01 -0.42810454439E+01  0.21710231786E+03  0.25076251121E+03  0.12508981021E+03 0.  0.
         24    2    1    2    0    0 -0.22865681747E+01 -0.37441780423E+01  0.98557554368E+03  0.98883495316E+03  0.80100967699E+02 0.  0.
        -13    1    5    5    0    0  0.17584005936E+02  0.21315935067E+02  0.80328431490E+03  0.80375945215E+03  0.00000000000E+00 0.  1.
         14    1    5    5    0    0 -0.19870574110E+02 -0.25060113110E+02  0.18229122878E+03  0.18507550101E+03  0.00000000000E+00 0. -1.
         13    1    3    3    0    0  0.33161913567E+02  0.81145875867E+01 -0.17896463025E+03  0.18219192606E+03  0.00000000000E+00 0. -1.
        -14    1    3    3    0    0 -0.39965595072E+02 -0.89364100434E-01 -0.92423503199E+02  0.10069439269E+03  0.00000000000E+00 0.  1.
          5    1    4    4  501    0 -0.42962563740E+02  0.29417902415E+02  0.49326528624E+02  0.71845484839E+02  0.41800000000E+01 0. -1.
         -5    1    4    4    0  501  0.52052813419E+02 -0.33698947859E+02  0.16777578923E+03  0.17891702637E+03  0.41800000000E+01 0. -1.
</event>
<event>
11    1  0.1078607E-008  0.2677531E+03  0.7561462E-02  0.1014845E+00
         22   -1    0    0    0    0  0.00000000000E+00  0.00000000000E+00  0.13963372520E+04  0.13963372520E+04  0.00000000000E+00 0.  1.
         22   -1    0    0    0    0 -0.00000000000E+00 -0.00000000000E+00 -0.16133341560E+04  0.16133341560E+04  0.00000000000E+00 0.  1.
         24    2    1    2    0    0 -0.20938322947E+02 -0.96525071988E+02 -0.13415601123E+04  0.13475832210E+04  0.80258954282E+02 0.  0.
         25    2    1    2    0    0 -0.95217065296E+02 -0.11453010164E+03 -0.22005323377E+03  0.29370064760E+03  0.12511279312E+03 0.  0.
        -24    2    1    2    0    0  0.11615538824E+03  0.21105517363E+03  0.13446164421E+04  0.13683875394E+04  0.80341279184E+02 0.  0.
        -13    1    3    3    0    0 -0.23846316352E+02 -0.86755835145E-01 -0.48900992727E+03  0.48959101636E+03  0.00000000000E+00 0.  1.
         14    1    3    3    0    0  0.29079934044E+01 -0.96438316152E+02 -0.85255018505E+03  0.85799220467E+03  0.00000000000E+00 0. -1.
         11    1    5    5    0    0  0.67316955107E+02  0.18519022020E+03  0.98081588973E+03  0.10004133144E+04  0.00000000000E+00 0. -1.
        -12    1    5    5    0    0  0.48838433137E+02  0.25864953432E+02  0.36380055234E+03  0.36797422498E+03  0.00000000000E+00 0.  1.
          5    1    4    4  501    0 -0.10862779151E+03 -0.10664503207E+03 -0.22919812628E+03  0.27517705835E+03  0.41800000000E+01 0.  1.
         -5    1    4    4    0  501  0.13410726210E+02 -0.78850695765E+01  0.91448925094E+01  0.18523589250E+02  0.41800000000E+01 0.  1.
</event>
<event>
11    1  0.1078607E-008  0.1936220E+03  0.7561462E-02  0.1059128E+00
         22   -1    0    0    0    0  0.00000000000E+00  0.00000000000E+00  0.84662546042E+03  0.84662546042E+03  0.00000000000E+00 0.  1.
         22   -1    0    0    0    0 -0.00000000000E+00 -0.00000000000E+00 -0.50499962396E+03  0.50499962396E+03  0.00000000000E+00 0. -1.
        -24    2    1    2    0    0  0.85863699539E+02 -0.72428588890E+02 -0.41346627095E+03  0.44216724426E+03  0.10926591094E+03 0.  0.
         25    2    1    2    0    0 -0.20305229177E+03 -0.94092484105E+01  0.14837560021E+03  0.28103484898E+03  0.12508597226E+03 0.  0.
         24    2    1    2    0    0  0.11718859223E+03  0.81837837300E+02  0.60671650720E+03  0.62842299113E+03  0.79874513506E+02 0.  0.
        -11    1    5    5    0    0  0.11106865138E+03  0.63804524860E+02  0.58775014115E+03  0.60154591772E+03  0.00000000000E+00 0.  1.
         12    1    5    5    0    0  0.61199408520E+01  0.18033312440E+02  0.18966366054E+02  0.26877073406E+02  0.00000000000E+00 0. -1.
         11    1    3    3    0    0  0.94314605936E+02 -0.36985802194E+02 -0.18598801048E+03  0.21178936352E+03  0.00000000000E+00 0. -1.
        -12    1    3    3    0    0 -0.84509063967E+01 -0.35442786695E+02 -0.22747826047E+03  0.23037788074E+03  0.00000000000E+00 0.  1.
          5    1    4    4  501    0  0.43695961697E+01  0.35950992595E+01  0.51006375568E+02  0.51489230504E+02  0.41800000000E+01 0.  1.
         -5    1    4    4    0  501 -0.20742188794E+03 -0.13004347670E+02  0.97369224645E+02  0.22954561848E+03  0.41800000000E+01 0.  1.
</event>
<event>
11    1  0.1078607E-008  0.1827443E+03  0.7561462E-02  0.1067444E+00
         22   -1    0    0    0    0  0.00000000000E+00  0.00000000000E+00  0.21698853841E+03  0.21698853841E+03  0.00000000000E+00 0. -1.
         22   -1    0    0    0    0 -0.00000000000E+00 -0.00000000000E+00 -0.29010797575E+04  0.29010797575E+04  0.00000000000E+00 0. -1.
        -24    2    1    2    0    0 -0.29042603776E+02 -0.10280804663E+02 -0.27185050319E+04  0.27198666146E+04  0.80346904532E+02 0.  0.
         25    2    1    2    0    0  0.36694696676E+02  0.14061785304E+03 -0.79459148189E+02  0.20756016453E+03  0.12509030461E+03 0.  0.
         24    2    1    2    0    0 -0.76520929000E+01 -0.13033704838E+03  0.11387296098E+03  0.19064151679E+03  0.79566550616E+02 0.  0.
        -11    1    5    5    0    0  0.34162623049E+01 -0.80772564930E+02  0.19025209517E+02  0.83053216016E+02  0.00000000000E+00 0.  1.
         12    1    5    5    0    0 -0.11068355205E+02 -0.49564483451E+02  0.94847751463E+02  0.10758830078E+03  0.00000000000E+00 0. -1.
         11    1    3    3    0    0 -0.29753562532E+02 -0.42653519404E+02 -0.14040546867E+04  0.14050174947E+04  0.00000000000E+00 0. -1.
        -12    1    3    3    0    0  0.71095875566E+00  0.32372714741E+02 -0.13144503452E+04  0.13148491199E+04  0.00000000000E+00 0.  1.
          5    1    4    4  501    0 -0.34170874001E+02  0.36245536428E+00 -0.11445617231E+02  0.36280222680E+02  0.41800000000E+01 0.  1.
         -5    1    4    4    0  501  0.70865570677E+02  0.14025539768E+03 -0.68013530958E+02  0.17127994185E+03  0.41800000000E+01 0.  1.
</event>
<event>
11    1  0.1078607E-008  0.1316310E+03  0.7561462E-02  0.1117281E+00
         22   -1    0    0    0    0  0.00000000000E+00  0.00000000000E+00  0.20204858638E+04  0.20204858638E+04  0.00000000000E+00 0.  1.
         22   -1    0    0    0    0 -0.00000000000E+00 -0.00000000000E+00 -0.30602243203E+03  0.30602243203E+03  0.00000000000E+00 0. -1.
        -24    2    1    2    0    0  0.40599246304E+02  0.31975464355E+01 -0.27579072801E+03  0.28894817794E+03  0.75973684752E+02 0.  0.
         25    2    1    2    0    0 -0.16314107832E+02 -0.37364988085E+02  0.16932073473E+03  0.21442776587E+03  0.12508982021E+03 0.  0.
         24    2    1    2    0    0 -0.24285138472E+02  0.34167441650E+02  0.18209334251E+04  0.18231323521E+04  0.79093946864E+02 0.  0.
        -11    1    5    5    0    0 -0.44180560960E+02 -0.43107847849E+01  0.11034167874E+04  0.11043093369E+04  0.00000000000E+00 0.  1.
         12    1    5    5    0    0  0.19895422488E+02  0.38478226434E+02  0.71751663768E+03  0.71882301514E+03  0.00000000000E+00 0. -1.
         11    1    3    3    0    0 -0.15953076944E+02 -0.12056863843E+02 -0.13479075745E+03  0.13626597860E+03  0.00000000000E+00 0. -1.
        -12    1    3    3    0    0  0.56552323248E+02  0.15254410279E+02 -0.14099997057E+03  0.15268219935E+03  0.00000000000E+00 0.  1.
          5    1    4    4  501    0 -0.35685873640E+02 -0.77204844204E+02  0.12777213580E+03  0.15354888679E+03  0.41800000000E+01 0. -1.
         -5    1    4    4    0  501  0.19371765808E+02  0.39839856119E+02  0.41548598924E+02  0.60878879086E+02  0.41800000000E+01 0. -1.
</event>
<event>
11    1  0.1078607E-008  0.1529425E+03  0.7561462E-02  0.1093909E+00
         22   -1    0    0    0    0  0.00000000000E+00  0.00000000000E+00  0.21647312629E+03  0.21647312629E+03  0.00000000000E+00 0.  1.
         22   -1    0    0    0    0 -0.00000000000E+00 -0.00000000000E+00 -0.15401281345E+04  0.15401281345E+04  0.00000000000E+00 0.  1.
         24    2    1    2    0    0  0.16492814272E+02  0.20909123931E+02 -0.11067828976E+04  0.11100216765E+04  0.80439639231E+02 0.  0.
         25    2    1    2    0    0 -0.84395373426E+02 -0.75189047199E+02 -0.39672422540E+03  0.43106024185E+03  0.12508736632E+03 0.  0.
        -24    2    1    2    0    0  0.67902559154E+02  0.54279923268E+02  0.17985211476E+03  0.21551934244E+03  0.80899543708E+02 0.  0.
        -11    1    3    3    0    0  0.14239590329E+02  0.15235263895E+02 -0.11021768217E+04  0.11023740860E+04  0.00000000000E+00 0.  1.
         12    1    3    3    0    0  0.22532239425E+01  0.56738600361E+01 -0.46060759297E+01  0.76475905561E+01  0.00000000000E+00 0. -1.
         13    1    5    5    0    0  0.46953991210E+02 -0.24773963184E+01  0.12613400106E+03  0.13461278174E+03  0.00000000000E+00 0. -1.
        -14    1    5    5    0    0  0.20948567945E+02  0.56757319586E+02  0.53718113703E+02  0.80906560706E+02  0.00000000000E+00 0.  1.
          5    1    4    4  501    0 -0.95974803908E+02 -0.10040084779E+03 -0.30547286030E+03  0.33559295881E+03  0.41800000000E+01 0.  1.
         -5    1    4    4    0  501  0.11579430482E+02  0.25211800589E+02 -0.91251365094E+02  0.95467283038E+02  0.41800000000E+01 0.  1.
</event>
<event>
11    1  0.1078607E-008  0.2120229E+03  0.7561462E-02  0.1046333E+00
         22   -1    0    0    0    0  0.00000000000E+00  0.00000000000E+00  0.31926874277E+03  0.31926874277E+03  0.00000000000E+00 0. -1.
         22   -1    0    0    0    0 -0.00000000000E+00 -0.00000000000E+00 -0.22964779187E+04  0.22964779187E+04  0.00000000000E+00 0. -1.
         24    2    1    2    0    0  0.38972487145E+02  0.16124955863E+03 -0.18222044068E+04  0.18318464406E+04  0.87819171757E+02 0.  0.
         25    2    1    2    0    0 -0.45685925143E+01 -0.21124111825E+03 -0.42771464549E+03  0.49318441923E+03  0.12508945330E+03 0.  0.
        -24    2    1    2    0    0 -0.34403894631E+02  0.49991559619E+02  0.27270987639E+03  0.29071580160E+03  0.80387913381E+02 0.  0.
        -13    1    3    3    0    0  0.94349571282E+01  0.14013953365E+02 -0.41296645554E+02  0.44618631075E+02  0.00000000000E+00 0.  1.
         14    1    3    3    0    0  0.29537530017E+02  0.14723560527E+03 -0.17809077613E+04  0.17872278096E+04  0.00000000000E+00 0. -1.
         11    1    5    5    0    0  0.95904517795E+01 -0.14871978674E+02  0.92847223908E+02  0.94518566972E+02  0.00000000000E+00 0. -1.
        -12    1    5    5    0    0 -0.43994346410E+02  0.64863538293E+02  0.17986265248E+03  0.19619723462E+03  0.00000000000E+00 0.  1.
          5    1    4    4  501    0  0.31732225506E+02 -0.91622723081E+02 -0.29618343568E+03  0.31167893334E+03  0.41800000000E+01 0. -1.
         -5    1    4    4    0  501 -0.36300818020E+02 -0.11961839517E+03 -0.13153120981E+03  0.18150548588E+03  0.41800000000E+01 0. -1.
</event>
<event>
11    1  0.1078607E-008  0.3068285E+03  0.7561462E-02  0.9973420E-01
         22   -1    0    0    0    0  0.00000000000E+00  0.00000000000E+00  0.11364792295E+04  0.11364792295E+04  0.00000000000E+00 0.  1.
         22   -1    0    0    0    0 -0.00000000000E+00 -0.00000000000E+00 -0.26778882782E+03  0.26778882782E+03  0.00000000000E+00 0. -1.
         24    2    1    2    0    0 -0.23781105641E+02  0.11864859895E+03 -0.11777929377E+03  0.18858956632E+03  0.83970420182E+02 0.  0.
         25    2    1    2    0    0 -0.19927612802E+03  0.85571171324E+02  0.90327869411E+02  0.26615550589E+03  0.12508488621E+03 0.  0.
        -24    2    1    2    0    0  0.22305723367E+03 -0.20421977028E+03  0.89614182607E+03  0.94952298514E+03  0.84044528674E+02 0.  0.
        -11    1    3    3    0    0 -0.46317270472E+02  0.11547593259E+03 -0.10216621253E+03  0.16099042063E+03  0.00000000000E+00 0.  1.
         12    1    3    3    0    0  0.22536164831E+02  0.31726663609E+01 -0.15613081245E+02  0.27599145695E+02  0.00000000000E+00 0. -1.
         11    1    5    5    0    0  0.61778405169E+02 -0.11024706357E+03  0.39649783253E+03  0.41615083512E+03  0.00000000000E+00 0. -1.
        -12    1    5    5    0    0  0.16127882850E+03 -0.93972706708E+02  0.49964399354E+03  0.53337215002E+03  0.00000000000E+00 0.  1.
          5    1    4    4  501    0 -0.20917401210E+03  0.77692887485E+02  0.57112484451E+02  0.23036766349E+03  0.41800000000E+01 0. -1.
         -5    1    4    4    0  501  0.98978840708E+01  0.78782838385E+01  0.33215384960E+02  0.35787842396E+02  0.41800000000E+01 0. -1.
</event>
<event>
11    1  0.1078607E-008  0.1429662E+03  0.7561462E-02  0.1104291E+00
         22   -1    0    0    0    0  0.00000000000E+00  0.00000000000E+00  0.13460729103E+04  0.13460729103E+04  0.00000000000E+00 0. -1.
         22   -1    0    0    0    0 -0.00000000000E+00 -0.00000000000E+00 -0.72124248715E+03  0.72124248715E+03  0.00000000000E+00 0. -1.
        -24    2    1    2    0    0 -0.44827529645E+01  0.68813542161E+02 -0.59670059354E+03  0.60595762715E+03  0.79860183534E+02 0.  0.
         25    2    1    2    0    0 -0.48406395413E+02 -0.73584077343E+02 -0.68570549081E+02  0.16765286377E+03  0.12509103475E+03 0.  0.
         24    2    1    2    0    0  0.52889148377E+02  0.47705351826E+01  0.12901015658E+04  0.12937049065E+04  0.80562492131E+02 0.  0.
        -11    1    5    5    0    0  0.18889027589E+02 -0.24536463042E+02  0.17626351920E+03  0.17896273798E+03  0.00000000000E+00 0.  1.
         12    1    5    5    0    0  0.34000120788E+02  0.29306998224E+02  0.11138380466E+04  0.11147421686E+04  0.00000000000E+00 0. -1.
         11    1    3    3    0    0 -0.30889129488E+02  0.38904228467E+02 -0.16238635504E+03  0.16981462132E+03  0.00000000000E+00 0. -1.
        -12    1    3    3    0    0  0.26406376523E+02  0.29909313694E+02 -0.43431423850E+03  0.43614300583E+03  0.00000000000E+00 0.  1.
          5    1    4    4  501    0 -0.86188529585E+02 -0.58697944320E+02 -0.71841076415E+02  0.12669855548E+03  0.41800000000E+01 0.  1.
         -5    1    4    4    0  501  0.37782134172E+02 -0.14886133023E+02  0.32705273340E+01  0.40954308296E+02  0.41800000000E+01 0.  1.
</event>
<event>
11    1  0.1078607E-008  0.1848418E+03  0.7561462E-02  0.1065792E+00
         22   -1    0    0    0    0  0.00000000000E+00  0.00000000000E+00  0.21049798112E+03  0.21049798112E+03  0.00000000000E+00 0.  1.
         22   -1    0    0    0    0 -0.00000000000E+00 -0.00000000000E+00 -0.80058339394E+03  0.80058339394E+03  0.00000000000E+00 0. -1.
        -24    2    1    2    0    0 -0.14785520154E+03  0.15042654145E+02 -0.60949552210E+03  0.63249134319E+03  0.80455364548E+02 0.  0.
         25    2    1    2    0    0  0.95041007111E+02  0.31117223180E+02 -0.12165059719E+03  0.20111677456E+03  0.12509202454E+03 0.  0.
         24    2    1    2    0    0  0.52814194429E+02 -0.46159877325E+02  0.14106070646E+03  0.17747325730E+03  0.81722461680E+02 0.  0.
        -11    1    5    5    0    0  0.68703043573E+02 -0.12436470346E+02  0.82818140337E+02  0.10832182772E+03  0.00000000000E+00 0.  1.
         12    1    5    5    0    0 -0.15888849144E+02 -0.33723406979E+02  0.58242566122E+02  0.69151429587E+02  0.00000000000E+00 0. -1.
         11    1    3    3    0    0 -0.14502394733E+03  0.25822910590E+02 -0.46981031702E+03  0.49236216548E+03  0.00000000000E+00 0. -1.
        -12    1    3    3    0    0 -0.28312542072E+01 -0.10780256445E+02 -0.13968520507E+03  0.14012917771E+03  0.00000000000E+00 0.  1.
          5    1    4    4  501    0 -0.18948787585E+01 -0.39017336746E+02 -0.40883956109E+02  0.56700206343E+02  0.41800000000E+01 0.  1.
         -5    1    4    4    0  501  0.96935885869E+02  0.70134559927E+02 -0.80766641076E+02  0.14441656822E+03  0.41800000000E+01 0.  1.
</event>
<event>
11    1  0.1078607E-008  0.1392626E+03  0.7561462E-02  0.1108385E+00
         22   -1    0    0    0    0  0.00000000000E+00  0.00000000000E+00  0.62359108789E+03  0.62359108789E+03  0.00000000000E+00 0.  1.
         22   -1    0    0    0    0 -0.00000000000E+00 -0.00000000000E+00 -0.55078387428E+03  0.55078387428E+03  0.00000000000E+00 0.  1.
        -24    2    1    2    0    0  0.38413106041E+01  0.37116808715E+02 -0.51889301432E+03  0.52630687066E+03  0.79727966442E+02 0.  0.
         25    2    1    2    0    0  0.52292316435E+02 -0.32967689388E+01  0.18331935958E+03  0.22803358894E+03  0.12509186642E+03 0.  0.
         24    2    1    2    0    0 -0.56133627039E+02 -0.33820039776E+02  0.40838086835E+03  0.42003450257E+03  0.73207038826E+02 0.  0.
        -11    1    5    5    0    0 -0.37308956891E+02 -0.30082996970E+02  0.39165637446E+03  0.39457782582E+03  0.00000000000E+00 0.  1.
         12    1    5    5    0    0 -0.18824670147E+02 -0.37370428066E+01  0.16724493892E+02  0.25456676748E+02  0.00000000000E+00 0. -1.
         11    1    3    3    0    0 -0.26031889309E+02 -0.12725044954E+02 -0.21077053843E+03  0.21275292219E+03  0.00000000000E+00 0. -1.
        -12    1    3    3    0    0  0.29873199913E+02  0.49841853669E+02 -0.30812247589E+03  0.31355394846E+03  0.00000000000E+00 0.  1.
          5    1    4    4  501    0  0.93182158090E+02 -0.10340848338E+02  0.13032456632E+03  0.16059829612E+03  0.41800000000E+01 0.  1.
         -5    1    4    4    0  501 -0.40889841655E+02  0.70440793987E+01  0.52994793258E+02  0.67435292819E+02  0.41800000000E+01 0.  1.
</event>
<event>
11    1  0.1078607E-008  0.1353700E+03  0.7561462E-02  0.1112842E+00
         22   -1    0    0    0    0  0.00000000000E+00  0.00000000000E+00  0.65392218972E+03  0.65392218972E+03  0.00000000000E+00 0.  1.
         22   -1    0    0    0    0 -0.00000000000E+00 -0.00000000000E+00 -0.27324060398E+03  0.27324060398E+03  0.00000000000E+00 0.  1.
        -24    2    1    2    0    0  0.71651202073E+01 -0.14438107523E+02 -0.22344854497E+03  0.23779518279E+03  0.79733925111E+02 0.  0.
         25    2    1    2    0    0 -0.25125744393E+02 -0.35331229221E+02  0.76241093152E+02  0.15276035366E+03  0.12507366860E+03 0.  0.
         24    2    1    2    0    0  0.17960624185E+02  0.49769336744E+02  0.52788903756E+03  0.53660725724E+03  0.80504295834E+02 0.  0.
        -11    1    5    5    0    0  0.23649936436E+02 -0.10268673163E+02  0.29182237348E+03  0.29295914870E+03  0.00000000000E+00 0.  1.
         12    1    5    5    0    0 -0.56893122503E+01  0.60038009907E+02  0.23606666408E+03  0.24364810854E+03  0.00000000000E+00 0. -1.
         13    1    3    3    0    0 -0.18428533306E+02 -0.39641160159E+02 -0.98055230848E+02  0.10735856144E+03  0.00000000000E+00 0. -1.
        -14    1    3    3    0    0  0.25593653513E+02  0.25203052636E+02 -0.12539331412E+03  0.13043662135E+03  0.00000000000E+00 0.  1.
          5    1    4    4  501    0 -0.18443422928E+02  0.24128328203E+01  0.10369112206E+03  0.10542913641E+03  0.41800000000E+01 0.  1.
         -5    1    4    4    0  501 -0.66823214644E+01 -0.37744062042E+02 -0.27450028904E+02  0.47331217250E+02  0.41800000000E+01 0.  1.
</event>
<event>
11    1  0.1078607E-008  0.1273372E+03  0.7561462E-02  0.1122585E+00
         22   -1    0    0    0    0  0.00000000000E+00  0.00000000000E+00  0.23712359118E+03  0.23712359118E+03  0.00000000000E+00 0.  1.
         22   -1    0    0    0    0 -0.00000000000E+00 -0.00000000000E+00 -0.10150094175E+04  0.10150094175E+04  0.00000000000E+00 0.  1.
         24    2    1    2    0    0  0.19641822671E+02 -0.19058893747E+01 -0.79579903591E+03  0.79977314708E+03  0.77146274256E+02 0.  0.
         25    2    1    2    0    0 -0.27159216262E+02  0.24167056472E+02 -0.18874918158E+03  0.22933760509E+03  0.12509122238E+03 0.  0.
        -24    2    1    2    0    0  0.75173935912E+01 -0.22261167098E+02  0.20666239113E+03  0.22302225654E+03  0.80482993468E+02 0.  0.
        -13    1    3    3    0    0 -0.14405523769E+02  0.29541298217E+02 -0.37110173704E+03  0.37255430027E+03  0.00000000000E+00 0.  1.
         14    1    3    3    0    0  0.34047346440E+02 -0.31447187592E+02 -0.42469729887E+03  0.42721884681E+03  0.00000000000E+00 0. -1.
         11    1    5    5    0    0  0.12734512943E+02  0.94662522074E+01  0.21673487116E+01  0.16014841591E+02  0.00000000000E+00 0. -1.
        -12    1    5    5    0    0 -0.52171193515E+01 -0.31727419305E+02  0.20449504242E+03  0.20700741495E+03  0.00000000000E+00 0.  1.
          5    1    4    4  501    0 -0.53689651728E+01  0.84040279270E+01  0.17895257173E+02  0.20908517444E+02  0.41800000000E+01 0.  1.
         -5    1    4    4    0  501 -0.21790251089E+02  0.15763028545E+02 -0.20664443875E+03  0.20842908765E+03  0.41800000000E+01 0.  1.
</event>
<event>
11    1  0.1078607E-008  0.2142061E+03  0.7561462E-02  0.1044909E+00
         22   -1    0    0    0    0  0.00000000000E+00  0.00000000000E+00  0.79852251727E+03  0.79852251727E+03  0.00000000000E+00 0. -1.
         22   -1    0    0    0    0 -0.00000000000E+00 -0.00000000000E+00 -0.22435021759E+03  0.22435021759E+03  0.00000000000E+00 0.  1.
        -24    2    1    2    0    0 -0.15444471375E+03 -0.64034751054E+02 -0.12334392385E+03  0.22286830342E+03  0.80640797199E+02 0.  0.
         25    2    1    2    0    0  0.19597586603E+03  0.11410040839E+03  0.33631332885E+03  0.42447651084E+03  0.12509280487E+03 0.  0.
         24    2    1    2    0    0 -0.41531152279E+02 -0.50065657335E+02  0.36120289468E+03  0.37552792060E+03  0.79512774899E+02 0.  0.
        -13    1    5    5    0    0  0.10844666966E+02 -0.49163807549E+02  0.17815713160E+03  0.18513414141E+03  0.00000000000E+00 0.  1.
         14    1    5    5    0    0 -0.52375819246E+02 -0.90184978557E+00  0.18304576307E+03  0.19039377919E+03  0.00000000000E+00 0. -1.
         11    1    3    3    0    0 -0.36924164739E+02  0.63997006693E+01  0.15059748237E+01  0.37504907285E+02  0.00000000000E+00 0. -1.
        -12    1    3    3    0    0 -0.11752054901E+03 -0.70434451723E+02 -0.12484989867E+03  0.18536339614E+03  0.00000000000E+00 0.  1.
          5    1    4    4  501    0  0.13268624350E+03  0.13566009947E+03  0.27145846465E+03  0.33123476906E+03  0.41800000000E+01 0. -1.
         -5    1    4    4    0  501  0.63289622529E+02 -0.21559691085E+02  0.64854864202E+02  0.93241741780E+02  0.41800000000E+01 0. -1.
</event>
<event>
11    1  0.1078607E-008  0.1438140E+03  0.7561462E-02  0.1103373E+00
         22   -1    0    0    0    0  0.00000000000E+00  0.00000000000E+00  0.13103389366E+04  0.13103389366E+04  0.00000000000E+00 0.  1.
         22   -1    0    0    0    0 -0.00000000000E+00 -0.00000000000E+00 -0.55113498077E+03  0.55113498077E+03  0.00000000000E+00 0. -1.
        -24    2    1    2    0    0 -0.78351219970E+02  0.16012075703E+02 -0.41171674719E+03  0.42712820104E+03  0.80824006122E+02 0.  0.
         25    2    1    2    0    0  0.23446054808E+02 -0.36337200924E+02 -0.95959675062E+02  0.16347816561E+03  0.12508693672E+03 0.  0.
         24    2    1    2    0    0  0.54905165162E+02  0.20325125221E+02  0.12668803780E+04  0.12708675507E+04  0.81797012300E+02 0.  0.
        -13    1    5    5    0    0  0.27077502181E+02 -0.50324568452E+01  0.10736799884E+04  0.10740331626E+04  0.00000000000E+00 0.  1.
         14    1    5    5    0    0  0.27827662981E+02  0.25357582066E+02  0.19320038960E+03  0.19683438809E+03  0.00000000000E+00 0. -1.
         11    1    3    3    0    0 -0.68103668561E+02 -0.84227664164E+01 -0.37833874911E+03  0.38451171860E+03  0.00000000000E+00 0. -1.
        -12    1    3    3    0    0 -0.10247551409E+02  0.24434842120E+02 -0.33377998087E+02  0.42616482440E+02  0.00000000000E+00 0.  1.
          5    1    4    4  501    0 -0.16657118429E+02 -0.48780788069E+02 -0.10787541187E+03  0.11963110701E+03  0.41800000000E+01 0. -1.
         -5    1    4    4    0  501  0.40103173236E+02  0.12443587146E+02  0.11915736805E+02  0.43847058605E+02  0.41800000000E+01 0. -1.
</event>
<event>
11    1  0.1078607E-008  0.1520108E+03  0.7561462E-02  0.1094842E+00
         22   -1    0    0    0    0  0.00000000000E+00  0.00000000000E+00  0.17564372308E+04  0.17564372308E+04  0.00000000000E+00 0.  1.
         22   -1    0    0    0    0 -0.00000000000E+00 -0.00000000000E+00 -0.45506850576E+03  0.45506850576E+03  0.00000000000E+00 0.  1.
        -24    2    1    2    0    0 -0.83974922226E+02 -0.21559262796E+02 -0.43768958784E+03  0.45325105446E+03  0.79672791455E+02 0.  0.
         25    2    1    2    0    0  0.64366127372E+02 -0.12219056819E+02  0.63354307557E+03  0.64908901592E+03  0.12508964100E+03 0.  0.
         24    2    1    2    0    0  0.19608794854E+02  0.33778319616E+02  0.11055152373E+04  0.11091656661E+04  0.80987995299E+02 0.  0.
        -11    1    5    5    0    0 -0.29129101838E+02  0.28527098417E+02  0.53096449449E+03  0.53252755265E+03  0.00000000000E+00 0.  1.
         12    1    5    5    0    0  0.48737896692E+02  0.52512211984E+01  0.57455074278E+03  0.57663811349E+03  0.00000000000E+00 0. -1.
         13    1    3    3    0    0  0.14806141482E+02 -0.73297236337E+01 -0.41083601100E+02  0.44281022499E+02  0.00000000000E+00 0. -1.
        -14    1    3    3    0    0 -0.98781063708E+02 -0.14229539162E+02 -0.39660598674E+03  0.40897003197E+03  0.00000000000E+00 0.  1.
          5    1    4    4  501    0  0.78106430442E+02 -0.10055243874E+02  0.19551989423E+03  0.21082510251E+03  0.41800000000E+01 0. -1.
         -5    1    4    4    0  501 -0.13740303070E+02 -0.21638129452E+01  0.43802318133E+03  0.43826391341E+03  0.41800000000E+01 0. -1.
</event>
<event>
11    1  0.1078607E-008  0.1789167E+03  0.7561462E-02  0.1070522E+00
         22   -1    0    0    0    0  0.00000000000E+00  0.00000000000E+00  0.45709351284E+03  0.45709351284E+03  0.00000000000E+00 0. -1.
         22   -1    0    0    0    0 -0.00000000000E+00 -0.00000000000E+00 -0.12781431151E+04  0.12781431151E+04  0.00000000000E+00 0.  1.
        -24    2    1    2    0    0 -0.41728681791E+02  0.17684452244E+02 -0.11830307887E+04  0.11863768008E+04  0.76642310041E+02 0.  0.
         25    2    1    2    0    0  0.66831717772E+02 -0.13832247211E+03  0.50307581202E+02  0.20439787306E+03  0.12509217799E+03 0.  0.
         24    2    1    2    0    0 -0.25103035981E+02  0.12063801987E+03  0.31167360528E+03  0.34446195406E+03  0.79560714623E+02 0.  0.
        -11    1    5    5    0    0  0.32260726163E+01 -0.97676183602E+01  0.46244973548E+02  0.47375220226E+02  0.00000000000E+00 0.  1.
         12    1    5    5    0    0 -0.28329108597E+02  0.13040563823E+03  0.26542863173E+03  0.29708673383E+03  0.00000000000E+00 0. -1.
         13    1    3    3    0    0  0.26007956691E+01 -0.21942064621E+02 -0.14807862096E+03  0.14971805610E+03  0.00000000000E+00 0. -1.
        -14    1    3    3    0    0 -0.44329477460E+02  0.39626516865E+02 -0.10349521678E+04  0.10366587447E+04  0.00000000000E+00 0.  1.
          5    1    4    4  501    0  0.66610253597E+02 -0.31328829806E+02 -0.19888720718E+02  0.76363964493E+02  0.41800000000E+01 0.  1.
         -5    1    4    4    0  501  0.22146417439E+00 -0.10699364230E+03  0.70196301921E+02  0.12803390857E+03  0.41800000000E+01 0.  1.
</event>
<event>
11    1  0.1078607E-008  0.1405396E+03  0.7561462E-02  0.1106957E+00
         22   -1    0    0    0    0  0.00000000000E+00  0.00000000000E+00  0.15018862859E+04  0.15018862859E+04  0.00000000000E+00 0. -1.
         22   -1    0    0    0    0 -0.00000000000E+00 -0.00000000000E+00 -0.32457707988E+03  0.32457707988E+03  0.00000000000E+00 0. -1.
         24    2    1    2    0    0  0.56356911234E+02 -0.37123054308E+02 -0.26053517672E+03  0.28022116094E+03  0.78045487539E+02 0.  0.
         25    2    1    2    0    0 -0.40506605252E+02  0.25576331148E+01  0.29082854366E+02  0.13468753698E+03  0.12509034192E+03 0.  0.
        -24    2    1    2    0    0 -0.15850305982E+02  0.34565421193E+02  0.14087615284E+04  0.14115546678E+04  0.80196857798E+02 0.  0.
        -13    1    3    3    0    0  0.52699788036E+02 -0.39116784531E+02 -0.99887335239E+02  0.11951932995E+03  0.00000000000E+00 0.  1.
         14    1    3    3    0    0  0.36571231984E+01  0.19937302233E+01 -0.16064784149E+03  0.16070183099E+03  0.00000000000E+00 0. -1.
         13    1    5    5    0    0 -0.11456043303E+02 -0.14179381429E+02  0.95272419388E+03  0.95289857036E+03  0.00000000000E+00 0. -1.
        -14    1    5    5    0    0 -0.43942626791E+01  0.48744802623E+02  0.45603733447E+03  0.45865609748E+03  0.00000000000E+00 0.  1.
          5    1    4    4  501    0 -0.30846031482E+02 -0.50665272988E+02 -0.18759389586E+02  0.62352503100E+02  0.41800000000E+01 0.  1.
         -5    1    4    4    0  501 -0.96605737697E+01  0.53222906103E+02  0.47842243952E+02  0.72335033877E+02  0.41800000000E+01 0.  1.
</event>
<event>
11    1  0.1078607E-008  0.1490543E+03  0.7561462E-02  0.1097849E+00
         22   -1    0    0    0    0  0.00000000000E+00  0.00000000000E+00  0.12262782204E+04  0.12262782204E+04  0.00000000000E+00 0. -1.
         22   -1    0    0    0    0 -0.00000000000E+00 -0.00000000000E+00 -0.33596811804E+03  0.33596811804E+03  0.00000000000E+00 0.  1.
        -24    2    1    2    0    0  0.50540563703E+02 -0.62269619478E+02 -0.29820790611E+03  0.31794460714E+03  0.75689919121E+02 0.  0.
         25    2    1    2    0    0 -0.44630150977E+02  0.97177993535E+02  0.23629440054E+03  0.28795497367E+03  0.12509040864E+03 0.  0.
         24    2    1    2    0    0 -0.59104127264E+01 -0.34908374056E+02  0.95222360789E+03  0.95634675759E+03  0.81337529869E+02 0.  0.
        -11    1    5    5    0    0  0.55001885553E+01  0.59724111676E+01  0.88169925714E+01  0.11985871988E+02  0.00000000000E+00 0.  1.
         12    1    5    5    0    0 -0.11410601282E+02 -0.40880785224E+02  0.94340661532E+03  0.94436088560E+03  0.00000000000E+00 0. -1.
         11    1    3    3    0    0  0.39837585239E+02 -0.25590925030E+02 -0.58738840405E+02  0.75446537453E+02  0.00000000000E+00 0. -1.
        -12    1    3    3    0    0  0.10702978464E+02 -0.36678694449E+02 -0.23946906570E+03  0.24249806969E+03  0.00000000000E+00 0.  1.
          5    1    4    4  501    0  0.29614265160E+02 -0.10529739545E+02  0.65561120852E+02  0.72825909422E+02  0.41800000000E+01 0.  1.
         -5    1    4    4    0  501 -0.74244416137E+02  0.10770773308E+03  0.17073327969E+03  0.21512906425E+03  0.41800000000E+01 0.  1.
</event>
<event>
11    1  0.1078607E-008  0.1567297E+03  0.7561462E-02  0.1090194E+00
         22   -1    0    0    0    0  0.00000000000E+00  0.00000000000E+00  0.80449612713E+03  0.80449612713E+03  0.00000000000E+00 0. -1.
         22   -1    0    0    0    0 -0.00000000000E+00 -0.00000000000E+00 -0.28800678586E+03  0.28800678586E+03  0.00000000000E+00 0.  1.
         24    2    1    2    0    0 -0.25879896981E+02 -0.30437107877E+02 -0.19060321155E+03  0.21071235905E+03  0.80460719610E+02 0.  0.
         25    2    1    2    0    0  0.96057077709E+01  0.12185825881E+03  0.11240771976E+02  0.17525643552E+03  0.12508700322E+03 0.  0.
        -24    2    1    2    0    0  0.16274189210E+02 -0.91421150936E+02  0.69585178084E+03  0.70653411842E+03  0.79737591572E+02 0.  0.
        -13    1    3    3    0    0 -0.32488349755E+01 -0.37144608905E+02 -0.18169783089E+03  0.18548417358E+03  0.00000000000E+00 0.  1.
         14    1    3    3    0    0 -0.22631062006E+02  0.67075010280E+01 -0.89053806660E+01  0.25228185475E+02  0.00000000000E+00 0. -1.
         11    1    5    5    0    0 -0.72058371433E+01 -0.97786365908E+02  0.56215298578E+03  0.57064005894E+03  0.00000000000E+00 0. -1.
        -12    1    5    5    0    0  0.23480026354E+02  0.63652149724E+01  0.13369879506E+03  0.13589405947E+03  0.00000000000E+00 0.  1.
          5    1    4    4  501    0 -0.70452307430E+01 -0.23206991230E+02 -0.11935210129E+02  0.27351807234E+02  0.41800000000E+01 0.  1.
         -5    1    4    4    0  501  0.16650938514E+02  0.14506525004E+03  0.23175982105E+02  0.14790462829E+03  0.41800000000E+01 0.  1.
</event>
<event>
11    1  0.1078607E-008  0.1810718E+03  0.7561462E-02  0.1068779E+00
         22   -1    0    0    0    0  0.00000000000E+00  0.00000000000E+00  0.10178380466E+03  0.10178380466E+03  0.00000000000E+00 0. -1.
         22   -1    0    0    0    0 -0.00000000000E+00 -0.00000000000E+00 -0.19796742081E+04  0.19796742081E+04  0.00000000000E+00 0.  1.
        -24    2    1    2    0    0  0.12160573460E+03 -0.19553073017E+02 -0.96557599517E+03  0.97650438527E+03  0.77804464257E+02 0.  0.
         25    2    1    2    0    0 -0.14890109754E+03 -0.95813311533E+02 -0.93622284394E+03  0.96099619465E+03  0.12509494431E+03 0.  0.
         24    2    1    2    0    0  0.27295362937E+02  0.11536638455E+03  0.23908435716E+02  0.14395743279E+03  0.78087704770E+02 0.  0.
        -11    1    5    5    0    0  0.13329953094E+02 -0.28529121628E+01 -0.13491423536E+02  0.19179292644E+02  0.00000000000E+00 0.  1.
         12    1    5    5    0    0  0.13965409843E+02  0.11821929671E+03  0.37399859252E+02  0.12477814015E+03  0.00000000000E+00 0. -1.
         13    1    3    3    0    0  0.21260616055E+02 -0.13128290857E+02 -0.55197418781E+02  0.60589775176E+02  0.00000000000E+00 0. -1.
        -14    1    3    3    0    0  0.10034511855E+03 -0.64247821600E+01 -0.91037857638E+03  0.91591461009E+03  0.00000000000E+00 0.  1.
          5    1    4    4  501    0 -0.15779241497E+03 -0.65118373781E+02 -0.61832213598E+03  0.64146596563E+03  0.41800000000E+01 0.  1.
         -5    1    4    4    0  501  0.88913174299E+01 -0.30694937752E+02 -0.31790070796E+03  0.31953022901E+03  0.41800000000E+01 0.  1.
</event>
<event>
11    1  0.1078607E-008  0.1848829E+03  0.7561462E-02  0.1065760E+00
         22   -1    0    0    0    0  0.00000000000E+00  0.00000000000E+00  0.66154242946E+03  0.66154242946E+03  0.00000000000E+00 0. -1.
         22   -1    0    0    0    0 -0.00000000000E+00 -0.00000000000E+00 -0.74931983662E+02  0.74931983662E+02  0.00000000000E+00 0.  1.
        -24    2    1    2    0    0  0.13747422097E+03  0.31640615560E+02  0.11134637553E+03  0.19656938815E+03  0.79631771477E+02 0.  0.
         25    2    1    2    0    0 -0.12309052760E+03 -0.18445338369E+02  0.35231215042E+03  0.39403452572E+03  0.12509135714E+03 0.  0.
         24    2    1    2    0    0 -0.14383693373E+02 -0.13195277191E+02  0.12295191985E+03  0.14587049926E+03  0.76026455816E+02 0.  0.
        -13    1    5    5    0    0 -0.85577827522E+01  0.26732891402E+02  0.17787799191E+02  0.33230843029E+02  0.00000000000E+00 0.  1.
         14    1    5    5    0    0 -0.58259106210E+01 -0.39928168593E+02  0.10516412065E+03  0.11263965623E+03  0.00000000000E+00 0. -1.
         11    1    3    3    0    0  0.97305163779E+02  0.53608498741E+02  0.54991031344E+02  0.12396039514E+03  0.00000000000E+00 0. -1.
        -12    1    3    3    0    0  0.40169057194E+02 -0.21967883181E+02  0.56355344186E+02  0.72608993008E+02  0.00000000000E+00 0.  1.
          5    1    4    4  501    0 -0.10951285843E+03 -0.43299221280E+02  0.15525556569E+03  0.19490934253E+03  0.41800000000E+01 0.  1.
         -5    1    4    4    0  501 -0.13577669167E+02  0.24853882910E+02  0.19705658473E+03  0.19912518319E+03  0.41800000000E+01 0.  1.
</event>
<event>
11    1  0.1078607E-008  0.1476538E+03  0.7561462E-02  0.1099301E+00
         22   -1    0    0    0    0  0.00000000000E+00  0.00000000000E+00  0.30165233256E+03  0.30165233256E+03  0.00000000000E+00 0.  1.
         22   -1    0    0    0    0 -0.00000000000E+00 -0.00000000000E+00 -0.19184585439E+04  0.19184585439E+04  0.00000000000E+00 0. -1.
         24    2    1    2    0    0  0.45924954434E+02  0.67516150395E+02 -0.16769468434E+04  0.16808702534E+04  0.80663258190E+02 0.  0.
         25    2    1    2    0    0 -0.24847496079E+02 -0.40002257982E+02 -0.21347683662E+03  0.25186839376E+03  0.12509096408E+03 0.  0.
        -24    2    1    2    0    0 -0.21077458355E+02 -0.27513892413E+02  0.27361746869E+03  0.28737222927E+03  0.80715583751E+02 0.  0.
        -13    1    3    3    0    0  0.27058322653E+02  0.34916022971E+02 -0.28404970622E+03  0.28746394050E+03  0.00000000000E+00 0.  1.
         14    1    3    3    0    0  0.18866631781E+02  0.32600127424E+02 -0.13928971372E+04  0.13934063129E+04  0.00000000000E+00 0. -1.
         13    1    5    5    0    0  0.27850386931E+02 -0.26950537706E+02  0.11248868990E+03  0.11897764870E+03  0.00000000000E+00 0. -1.
        -14    1    5    5    0    0 -0.48927845287E+02 -0.56335470711E+00  0.16112877879E+03  0.16839458057E+03  0.00000000000E+00 0.  1.
          5    1    4    4  501    0 -0.21106109542E+02 -0.20882714294E+00 -0.21047231888E+03  0.21156932878E+03  0.41800000000E+01 0.  1.
         -5    1    4    4    0  501 -0.37413865363E+01 -0.39793430839E+02 -0.30045177489E+01  0.40299064978E+02  0.41800000000E+01 0.  1.
</event>
<event>
11    1  0.1078607E-008  0.1912370E+03  0.7561462E-02  0.1060899E+00
         22   -1    0    0    0    0  0.00000000000E+00  0.00000000000E+00  0.29888301782E+03  0.29888301782E+03  0.00000000000E+00 0. -1.
         22   -1    0    0    0    0 -0.00000000000E+00 -0.00000000000E+00 -0.63408407111E+03  0.63408407111E+03  0.00000000000E+00 0.  1.
         24    2    1    2    0    0  0.10603120404E+03 -0.13739202362E+02 -0.40545290784E+03  0.42696214718E+03  0.80456402691E+02 0.  0.
         25    2    1    2    0    0 -0.23578141087E+03  0.30559375169E+01 -0.92961617849E+02  0.28265119636E+03  0.12509046305E+03 0.  0.
        -24    2    1    2    0    0  0.12975020682E+03  0.10683264845E+02  0.16321347240E+03  0.22335374538E+03  0.79366300687E+02 0.  0.
        -11    1    3    3    0    0  0.11471564793E+03 -0.27058691399E+02 -0.36069410691E+03  0.37946289861E+03  0.00000000000E+00 0.  1.
         12    1    3    3    0    0 -0.86844438902E+01  0.13319489037E+02 -0.44758800934E+02  0.47499248573E+02  0.00000000000E+00 0. -1.
         11    1    5    5    0    0  0.10267192642E+03 -0.14092531062E+02  0.75347418873E+02  0.12813023623E+03  0.00000000000E+00 0. -1.
        -12    1    5    5    0    0  0.27078280409E+02  0.24775795907E+02  0.87866053529E+02  0.95223509154E+02  0.00000000000E+00 0.  1.
          5    1    4    4  501    0 -0.19200187390E+03 -0.13312901905E+02 -0.12158044720E+03  0.22768669369E+03  0.41800000000E+01 0. -1.
         -5    1    4    4    0  501 -0.43779536964E+02  0.16368839422E+02  0.28618829352E+02  0.54964502674E+02  0.41800000000E+01 0. -1.
</event>
<event>
11    1  0.1078607E-008  0.1515344E+03  0.7561462E-02  0.1095321E+00
         22   -1    0    0    0    0  0.00000000000E+00  0.00000000000E+00  0.43693997180E+03  0.43693997180E+03  0.00000000000E+00 0.  1.
         22   -1    0    0    0    0 -0.00000000000E+00 -0.00000000000E+00 -0.26637872550E+03  0.26637872550E+03  0.00000000000E+00 0. -1.
        -24    2    1    2    0    0  0.85459133090E+02 -0.13993618624E+01 -0.13216554713E+03  0.17683876689E+03  0.80616350615E+02 0.  0.
         25    2    1    2    0    0 -0.85661029974E+02  0.11351550607E+01 -0.51207838812E+02  0.16002802909E+03  0.12509047407E+03 0.  0.
         24    2    1    2    0    0  0.20189688400E+00  0.26420680172E+00  0.35393463223E+03  0.36645190132E+03  0.94958735869E+02 0.  0.
        -13    1    5    5    0    0  0.40782418145E+02  0.20260805742E+02  0.12372549886E+03  0.13183969412E+03  0.00000000000E+00 0.  1.
         14    1    5    5    0    0 -0.40580521261E+02 -0.19996598940E+02  0.23020913338E+03  0.23461220720E+03  0.00000000000E+00 0. -1.
         11    1    3    3    0    0  0.53408749686E+02  0.19472316765E+02 -0.12582300786E+03  0.13806916734E+03  0.00000000000E+00 0. -1.
        -12    1    3    3    0    0  0.32050383403E+02 -0.20871678628E+02 -0.63425392676E+01  0.38769599552E+02  0.00000000000E+00 0.  1.
          5    1    4    4  501    0 -0.58887498229E+02  0.59983152579E+02 -0.43631780136E+02  0.94799370667E+02  0.41800000000E+01 0. -1.
         -5    1    4    4    0  501 -0.26773531745E+02 -0.58847997519E+02 -0.75760586762E+01  0.65228658419E+02  0.41800000000E+01 0. -1.
</event>
<event>
11    1  0.1078607E-008  0.1678395E+03  0.7561462E-02  0.1079927E+00
         22   -1    0    0    0    0  0.00000000000E+00  0.00000000000E+00  0.24912636449E+03  0.24912636449E+03  0.00000000000E+00 0.  1.
         22   -1    0    0    0    0 -0.00000000000E+00 -0.00000000000E+00 -0.70292806988E+03  0.70292806988E+03  0.00000000000E+00 0. -1.
        -24    2    1    2    0    0 -0.10464511269E+03  0.45249118520E+02 -0.59894400907E+03  0.61502966748E+03  0.80805219756E+02 0.  0.
         25    2    1    2    0    0  0.80412006316E+02 -0.49179802079E+02 -0.16418468194E+02  0.15748879761E+03  0.12509361128E+03 0.  0.
         24    2    1    2    0    0  0.24233106376E+02  0.39306835582E+01  0.16156077187E+03  0.17953596928E+03  0.74354472240E+02 0.  0.
        -13    1    5    5    0    0  0.47115856180E+02  0.52129483007E+01  0.14096820948E+03  0.14872496366E+03  0.00000000000E+00 0.  1.
         14    1    5    5    0    0 -0.22882749804E+02 -0.12822647425E+01  0.20592562390E+02  0.30811005619E+02  0.00000000000E+00 0. -1.
         13    1    3    3    0    0 -0.40188083170E+02  0.61314187374E+02 -0.31545825525E+03  0.32386482119E+03  0.00000000000E+00 0. -1.
        -14    1    3    3    0    0 -0.64457029522E+02 -0.16065068854E+02 -0.28348575382E+03  0.29116484629E+03  0.00000000000E+00 0.  1.
          5    1    4    4  501    0 -0.10106427036E+02 -0.27998062097E+02  0.38954058883E+02  0.49202870365E+02  0.41800000000E+01 0. -1.
         -5    1    4    4    0  501  0.90518433352E+02 -0.21181739981E+02 -0.55372527077E+02  0.10828592725E+03  0.41800000000E+01 0. -1.
</event>
<event>
11    1  0.1078607E-008  0.1337658E+03  0.7561462E-02  0.1114727E+00
         22   -1    0    0    0    0  0.00000000000E+00  0.00000000000E+00  0.30832203160E+04  0.30832203160E+04  0.00000000000E+00 0.  1.
         22   -1    0    0    0    0 -0.00000000000E+00 -0.00000000000E+00 -0.52703615195E+03  0.52703615195E+03  0.00000000000E+00 0.  1.
        -24    2    1    2    0    0  0.37593150460E+02  0.28884805604E+02 -0.51813952948E+03  0.52657628007E+03  0.81033510185E+02 0.  0.
         25    2    1    2    0    0 -0.28275744304E+02 -0.43002656165E+02  0.12049027094E+04  0.12124704530E+04  0.12508123067E+03 0.  0.
         24    2    1    2    0    0 -0.93174061568E+01  0.14117850562E+02  0.18694209841E+04  0.18712097348E+04  0.80030794080E+02 0.  0.
        -11    1    5    5    0    0 -0.14831552648E+02  0.43457686444E+02  0.14503632932E+04  0.14510900137E+04  0.00000000000E+00 0.  1.
         12    1    5    5    0    0  0.55141464915E+01 -0.29339835882E+02  0.41905769092E+03  0.42011972115E+03  0.00000000000E+00 0. -1.
         13    1    3    3    0    0 -0.11086796651E+02 -0.14799511072E+02 -0.41032155972E+02  0.45006448556E+02  0.00000000000E+00 0. -1.
        -14    1    3    3    0    0  0.48679947111E+02  0.43684316676E+02 -0.47710737350E+03  0.48156983152E+03  0.00000000000E+00 0.  1.
          5    1    4    4  501    0 -0.35403418556E+02 -0.67076251730E+02  0.39902433796E+03  0.40619025133E+03  0.41800000000E+01 0. -1.
         -5    1    4    4    0  501  0.71276742527E+01  0.24073595564E+02  0.80587837143E+03  0.80628020172E+03  0.41800000000E+01 0. -1.
</event>
<event>
11    1  0.1078607E-008  0.1609270E+03  0.7561462E-02  0.1086209E+00
         22   -1    0    0    0    0  0.00000000000E+00  0.00000000000E+00  0.26327207150E+04  0.26327207150E+04  0.00000000000E+00 0.  1.
         22   -1    0    0    0    0 -0.00000000000E+00 -0.00000000000E+00 -0.12268103185E+03  0.12268103185E+03  0.00000000000E+00 0.  1.
        -24    2    1    2    0    0 -0.78432648381E+01 -0.32243902928E+02 -0.91125923535E+02  0.12688475707E+03  0.81820667062E+02 0.  0.
         25    2    1    2    0    0 -0.69971347789E+02  0.93463383534E+02  0.62118550779E+03  0.64432210574E+03  0.12509255488E+03 0.  0.
         24    2    1    2    0    0  0.77814612627E+02 -0.61219480606E+02  0.19799800989E+04  0.19841948841E+04  0.83097575558E+02 0.  0.
        -13    1    5    5    0    0  0.30569394854E+02 -0.42430394235E+02  0.15968143310E+04  0.15976704397E+04  0.00000000000E+00 0.  1.
         14    1    5    5    0    0  0.47245217773E+02 -0.18789086371E+02  0.38316576796E+03  0.38652444439E+03  0.00000000000E+00 0. -1.
         13    1    3    3    0    0  0.13941615085E+02 -0.12578717063E+02  0.10217592317E+02  0.21377369971E+02  0.00000000000E+00 0. -1.
        -14    1    3    3    0    0 -0.21784879923E+02 -0.19665185865E+02 -0.10134351585E+03  0.10550738710E+03  0.00000000000E+00 0.  1.
          5    1    4    4  501    0 -0.93465202240E+02  0.10298032720E+03  0.44415601155E+03  0.46543820945E+03  0.41800000000E+01 0. -1.
         -5    1    4    4    0  501  0.23493854451E+02 -0.95169436631E+01  0.17702949624E+03  0.17888389629E+03  0.41800000000E+01 0. -1.
</event>
<event>
11    1  0.1078607E-008  0.1356462E+03  0.7561462E-02  0.1112520E+00
         22   -1    0    0    0    0  0.00000000000E+00  0.00000000000E+00  0.19700181904E+03  0.19700181904E+03  0.00000000000E+00 0.  1.
         22   -1    0    0    0    0 -0.00000000000E+00 -0.00000000000E+00 -0.12036371139E+04  0.12036371139E+04  0.00000000000E+00 0. -1.
        -24    2    1    2    0    0  0.18934318252E+02 -0.44941534019E+00 -0.67395072482E+03  0.67901346473E+03  0.80566714083E+02 0.  0.
         25    2    1    2    0    0  0.57725232920E+01 -0.46062193327E+02 -0.50715790141E+03  0.52441513067E+03  0.12508814744E+03 0.  0.
         24    2    1    2    0    0 -0.24706841544E+02  0.46511608667E+02  0.17447333138E+03  0.19721033753E+03  0.75347303226E+02 0.  0.
        -13    1    5    5    0    0 -0.17381663459E+02 -0.15383083897E+02  0.85389624100E+02  0.88488131401E+02  0.00000000000E+00 0.  1.
         14    1    5    5    0    0 -0.73251780852E+01  0.61894692564E+02  0.89083707282E+02  0.10872220613E+03  0.00000000000E+00 0. -1.
         11    1    3    3    0    0  0.18809231043E+02 -0.12421217459E+02 -0.66097104290E+03  0.66135527015E+03  0.00000000000E+00 0. -1.
        -12    1    3    3    0    0  0.12508720952E+00  0.11971802119E+02 -0.12979681922E+02  0.17658194573E+02  0.00000000000E+00 0.  1.
          5    1    4    4  501    0 -0.40387613507E+02  0.20077677364E+02 -0.27271345264E+03  0.27644958330E+03  0.41800000000E+01 0. -1.
         -5    1    4    4    0  501  0.46160136799E+02 -0.66139870691E+02 -0.23444444877E+03  0.24796554737E+03  0.41800000000E+01 0. -1.
</event>
<event>
11    1  0.1078607E-008  0.1301901E+03  0.7561462E-02  0.1119036E+00
         22   -1    0    0    0    0  0.00000000000E+00  0.00000000000E+00  0.87488482984E+03  0.87488482984E+03  0.00000000000E+00 0. -1.
         22   -1    0    0    0    0 -0.00000000000E+00 -0.00000000000E+00 -0.55203531131E+03  0.55203531131E+03  0.00000000000E+00 0. -1.
        -24    2    1    2    0    0 -0.10456980304E+00 -0.27068621848E+02 -0.45307799757E+03  0.46020602559E+03  0.76007847505E+02 0.  0.
         25    2    1    2    0    0  0.25094339473E+02  0.52277647482E+02 -0.41251942581E+02  0.14391988457E+03  0.12509409302E+03 0.  0.
         24    2    1    2    0    0 -0.24989769670E+02 -0.25209025634E+02  0.81717945868E+03  0.82279423099E+03  0.89152090836E+02 0.  0.
        -11    1    5    5    0    0 -0.35383526822E+02 -0.41661096988E+02  0.28128154159E+03  0.28654309730E+03  0.00000000000E+00 0.  1.
         12    1    5    5    0    0  0.10393757152E+02  0.16452071354E+02  0.53589791709E+03  0.53625113369E+03  0.00000000000E+00 0. -1.
         11    1    3    3    0    0  0.14740405901E+02 -0.20679169934E+02 -0.43583047822E+03  0.43656971193E+03  0.00000000000E+00 0. -1.
        -12    1    3    3    0    0 -0.14844975704E+02 -0.63894519139E+01 -0.17247519358E+02  0.23636313660E+02  0.00000000000E+00 0.  1.
          5    1    4    4  501    0 -0.45767846048E+02 -0.24672872699E+01 -0.26387842795E+02  0.53052557768E+02  0.41800000000E+01 0.  1.
         -5    1    4    4    0  501  0.70862185522E+02  0.54744934752E+02 -0.14864099786E+02  0.90867326803E+02  0.41800000000E+01 0.  1.
</event>
<event>
11    1  0.1078607E-008  0.6848888E+03  0.7561462E-02  0.9054874E-01
         22   -1    0    0    0    0  0.00000000000E+00  0.00000000000E+00  0.69827462330E+03  0.69827462330E+03  0.00000000000E+00 0.  1.
         22   -1    0    0    0    0 -0.00000000000E+00 -0.00000000000E+00 -0.13159699388E+04  0.13159699388E+04  0.00000000000E+00 0.  1.
        -24    2    1    2    0    0  0.20238968688E+03 -0.43742422457E+03 -0.60993553457E+03  0.78160328271E+03  0.81122115493E+02 0.  0.
         25    2    1    2    0    0 -0.31102052029E+01  0.78188215615E+03  0.13296670708E+03  0.80291808373E+03  0.12509166439E+03 0.  0.
         24    2    1    2    0    0 -0.19927948168E+03 -0.34445793159E+03 -0.14072648796E+03  0.42972319562E+03  0.80588473079E+02 0.  0.
        -13    1    5    5    0    0 -0.83326406589E+02 -0.18407879419E+03 -0.10805865653E+03  0.22913962066E+03  0.00000000000E+00 0.  1.
         14    1    5    5    0    0 -0.11595307509E+03 -0.16037913739E+03 -0.32667831431E+02  0.20058357496E+03  0.00000000000E+00 0. -1.
         13    1    3    3    0    0  0.68349764291E+02 -0.19315016798E+03 -0.31584062019E+03  0.37647572967E+03  0.00000000000E+00 0. -1.
        -14    1    3    3    0    0  0.13403992259E+03 -0.24427405659E+03 -0.29409491438E+03  0.40512755305E+03  0.00000000000E+00 0.  1.
          5    1    4    4  501    0 -0.27458874180E+01  0.78590012341E+03  0.13084635592E+03  0.79673382327E+03  0.41800000000E+01 0. -1.
         -5    1    4    4    0  501 -0.36431778495E+00 -0.40179672637E+01  0.21203511591E+01  0.61842604585E+01  0.41800000000E+01 0. -1.
</event>
<event>
11    1  0.1078607E-008  0.1818027E+03  0.7561462E-02  0.1068194E+00
         22   -1    0    0    0    0  0.00000000000E+00  0.00000000000E+00  0.27162163869E+03  0.27162163869E+03  0.00000000000E+00 0.  1.
         22   -1    0    0    0    0 -0.00000000000E+00 -0.00000000000E+00 -0.26746033541E+04  0.26746033541E+04  0.00000000000E+00 0.  1.
         24    2    1    2    0    0 -0.70865275663E+02  0.23323398794E+02 -0.19548990034E+04  0.19571962612E+04  0.58491223539E+02 0.  0.
         25    2    1    2    0    0  0.16392974745E+03 -0.11350268425E+03 -0.67360579335E+03  0.71354607685E+03  0.12508963795E+03 0.  0.
        -24    2    1    2    0    0 -0.93064471784E+02  0.90179285454E+02  0.22552308132E+03  0.27548265473E+03  0.90756451090E+02 0.  0.
        -11    1    3    3    0    0 -0.73678700023E+02  0.34891001317E+02 -0.15722243011E+04  0.15743364271E+04  0.00000000000E+00 0.  1.
         12    1    3    3    0    0  0.28134243596E+01 -0.11567602523E+02 -0.38267470232E+03  0.38285983412E+03  0.00000000000E+00 0. -1.
         11    1    5    5    0    0 -0.53306380609E+02  0.17525556286E+01  0.41862005773E+02  0.67801690187E+02  0.00000000000E+00 0. -1.
        -12    1    5    5    0    0 -0.39758091175E+02  0.88426729825E+02  0.18366107555E+03  0.20768096454E+03  0.00000000000E+00 0.  1.
          5    1    4    4  501    0  0.17545685072E+02  0.22149713278E+02 -0.15966499410E+03  0.16220001111E+03  0.41800000000E+01 0.  1.
         -5    1    4    4    0  501  0.14638406238E+03 -0.13565239753E+03 -0.51394079925E+03  0.55134606574E+03  0.41800000000E+01 0.  1.
</event>
<event>
11    1  0.1078607E-008  0.1425012E+03  0.7561462E-02  0.1104797E+00
         22   -1    0    0    0    0  0.00000000000E+00  0.00000000000E+00  0.12738125629E+03  0.12738125629E+03  0.00000000000E+00 0. -1.
         22   -1    0    0    0    0 -0.00000000000E+00 -0.00000000000E+00 -0.19193063406E+04  0.19193063406E+04  0.00000000000E+00 0.  1.
         24    2    1    2    0    0  0.52032848743E+02 -0.26362253476E+02 -0.12890860608E+04  0.12929312348E+04  0.80783166619E+02 0.  0.
         25    2    1    2    0    0 -0.85926017754E+02 -0.32708297342E+02 -0.59403167412E+03  0.61398225841E+03  0.12508984988E+03 0.  0.
        -24    2    1    2    0    0  0.33893169011E+02  0.59070550818E+02  0.91192650606E+02  0.13977410368E+03  0.81133369560E+02 0.  0.
        -13    1    3    3    0    0 -0.18858318300E+02  0.84334231105E+01 -0.27569779467E+03  0.27647067255E+03  0.00000000000E+00 0.  1.
         14    1    3    3    0    0  0.70891167043E+02 -0.34795676587E+02 -0.10133882661E+04  0.10164605623E+04  0.00000000000E+00 0. -1.
         13    1    5    5    0    0  0.17261623726E+02 -0.12192805864E+01  0.72444688030E+02  0.74482770643E+02  0.00000000000E+00 0. -1.
        -14    1    5    5    0    0  0.16631545285E+02  0.60289831405E+02  0.18747962575E+02  0.65291333040E+02  0.00000000000E+00 0.  1.
          5    1    4    4  501    0 -0.10916403517E+03 -0.53568958585E+02 -0.50786181713E+03  0.52223320231E+03  0.41800000000E+01 0.  1.
         -5    1    4    4    0  501  0.23238017420E+02  0.20860661243E+02 -0.86169856989E+02  0.91749056097E+02  0.41800000000E+01 0.  1.
</event>
<event>
11    1  0.1078607E-008  0.2165383E+03  0.7561462E-02  0.1043408E+00
         22   -1    0    0    0    0  0.00000000000E+00  0.00000000000E+00  0.49532654890E+03  0.49532654890E+03  0.00000000000E+00 0.  1.
         22   -1    0    0    0    0 -0.00000000000E+00 -0.00000000000E+00 -0.22891514219E+04  0.22891514219E+04  0.00000000000E+00 0. -1.
        -24    2    1    2    0    0 -0.15929887289E+03 -0.70127200879E+02 -0.20726263244E+04  0.20814892303E+04  0.80768681774E+02 0.  0.
         25    2    1    2    0    0  0.19397996790E+03  0.12473900785E+03 -0.12026858235E+03  0.28861968288E+03  0.12509492962E+03 0.  0.
         24    2    1    2    0    0 -0.34681095015E+02 -0.54611806971E+02  0.39907003380E+03  0.41436905761E+03  0.90882320691E+02 0.  0.
        -13    1    5    5    0    0 -0.37633498644E+02 -0.78727841274E+02  0.31226813636E+03  0.32423100129E+03  0.00000000000E+00 0.  1.
         14    1    5    5    0    0  0.29524036285E+01  0.24116034303E+02  0.86801897440E+02  0.90138056319E+02  0.00000000000E+00 0. -1.
         11    1    3    3    0    0 -0.12582810636E+03 -0.30634541714E+02 -0.11209638815E+04  0.11284197849E+04  0.00000000000E+00 0. -1.
        -12    1    3    3    0    0 -0.33470766523E+02 -0.39492659165E+02 -0.95166244293E+03  0.95306944533E+03  0.00000000000E+00 0.  1.
          5    1    4    4  501    0  0.94482985761E+02 -0.70565182394E+01 -0.62684571083E+02  0.11368226291E+03  0.41800000000E+01 0.  1.
         -5    1    4    4    0  501  0.99496982140E+02  0.13179552609E+03 -0.57584011265E+02  0.17493741997E+03  0.41800000000E+01 0.  1.
</event>
<event>
11    1  0.1078607E-008  0.1457328E+03  0.7561462E-02  0.1101320E+00
         22   -1    0    0    0    0  0.00000000000E+00  0.00000000000E+00  0.16616167419E+03  0.16616167419E+03  0.00000000000E+00 0.  1.
         22   -1    0    0    0    0 -0.00000000000E+00 -0.00000000000E+00 -0.45894722276E+03  0.45894722276E+03  0.00000000000E+00 0. -1.
         24    2    1    2    0    0 -0.61044869819E+02 -0.53956396688E+02 -0.35771056438E+03  0.37547965209E+03  0.79939679663E+02 0.  0.
         25    2    1    2    0    0  0.28452012977E+02  0.14191660783E+02 -0.13187275362E+02  0.12974169151E+03  0.12509229395E+03 0.  0.
        -24    2    1    2    0    0  0.32592856842E+02  0.39764735905E+02  0.78112291176E+02  0.11988755335E+03  0.75019776570E+02 0.  0.
        -11    1    3    3    0    0  0.17007204006E+02  0.25700882135E+01 -0.41923674553E+02  0.45314951501E+02  0.00000000000E+00 0.  1.
         12    1    3    3    0    0 -0.78052073825E+02 -0.56526484902E+02 -0.31578688983E+03  0.33016470059E+03  0.00000000000E+00 0. -1.
         13    1    5    5    0    0  0.16805579240E+02  0.23216007193E+02 -0.88281114502E+01  0.29989098608E+02  0.00000000000E+00 0. -1.
        -14    1    5    5    0    0  0.15787277603E+02  0.16548728712E+02  0.86940402626E+02  0.89898454741E+02  0.00000000000E+00 0.  1.
          5    1    4    4  501    0 -0.38670900215E+02  0.33796987444E+02  0.15848446045E+02  0.53910300739E+02  0.41800000000E+01 0. -1.
         -5    1    4    4    0  501  0.67122913192E+02 -0.19605326661E+02 -0.29035721407E+02  0.75831390772E+02  0.41800000000E+01 0. -1.
</event>
<event>
11    1  0.1078607E-008  0.1858395E+03  0.7561462E-02  0.1065015E+00
         22   -1    0    0    0    0  0.00000000000E+00  0.00000000000E+00  0.30406776463E+03  0.30406776463E+03  0.00000000000E+00 0.  1.
         22   -1    0    0    0    0 -0.00000000000E+00 -0.00000000000E+00 -0.10133538007E+04  0.10133538007E+04  0.00000000000E+00 0. -1.
         24    2    1    2    0    0  0.45588051378E+02  0.87869841373E+02 -0.78189624160E+03  0.79224274985E+03  0.80544786404E+02 0.  0.
         25    2    1    2    0    0 -0.13005038029E+03 -0.18188199971E+03 -0.11828349014E+03  0.28218996856E+03  0.12508409604E+03 0.  0.
        -24    2    1    2    0    0  0.84462328915E+02  0.94012158341E+02  0.19089369567E+03  0.24298884693E+03  0.81430987734E+02 0.  0.
        -11    1    3    3    0    0  0.20535423376E+02  0.13421223355E+02 -0.45705031813E+02  0.51872755688E+02  0.00000000000E+00 0.  1.
         12    1    3    3    0    0  0.25052628001E+02  0.74448618018E+02 -0.73619120978E+03  0.74036999416E+03  0.00000000000E+00 0. -1.
         11    1    5    5    0    0  0.96216174782E+02  0.67796962412E+02  0.17265565470E+03  0.20895921971E+03  0.00000000000E+00 0. -1.
        -12    1    5    5    0    0 -0.11753845867E+02  0.26215195930E+02  0.18238040975E+02  0.34029627222E+02  0.00000000000E+00 0.  1.
          5    1    4    4  501    0 -0.14879421696E+03 -0.11941894771E+03 -0.89629764687E+02  0.21083541256E+03  0.41800000000E+01 0.  1.
         -5    1    4    4    0  501  0.18743836668E+02 -0.62463052009E+02 -0.28653725455E+02  0.71354555999E+02  0.41800000000E+01 0.  1.
</event>
<event>
11    1  0.1078607E-008  0.1326033E+03  0.7561462E-02  0.1116111E+00
         22   -1    0    0    0    0  0.00000000000E+00  0.00000000000E+00  0.28354259905E+03  0.28354259905E+03  0.00000000000E+00 0.  1.
         22   -1    0    0    0    0 -0.00000000000E+00 -0.00000000000E+00 -0.14785753991E+04  0.14785753991E+04  0.00000000000E+00 0. -1.
        -24    2    1    2    0    0  0.19105483997E+02 -0.42986924549E+02 -0.11540426075E+04  0.11579732194E+04  0.82914062106E+02 0.  0.
         25    2    1    2    0    0  0.90442745973E+01  0.29299115832E+02 -0.30250380096E+03  0.32877960934E+03  0.12508894768E+03 0.  0.
         24    2    1    2    0    0 -0.28149758594E+02  0.13687808717E+02  0.26151360840E+03  0.27536516943E+03  0.80354490480E+02 0.  0.
        -11    1    5    5    0    0 -0.13598974728E+02  0.78898883445E+01  0.25902931792E+03  0.25950601148E+03  0.00000000000E+00 0.  1.
         12    1    5    5    0    0 -0.14550783866E+02  0.57979203727E+01  0.24842904820E+01  0.15859157953E+02  0.00000000000E+00 0. -1.
         13    1    3    3    0    0  0.48231457995E+02 -0.45168793627E+02 -0.81596597918E+03  0.81863726561E+03  0.00000000000E+00 0. -1.
        -14    1    3    3    0    0 -0.29125973998E+02  0.21818690780E+01 -0.33807662835E+03  0.33933595381E+03  0.00000000000E+00 0.  1.
          5    1    4    4  501    0 -0.35830954280E+02 -0.98910537532E+00 -0.20312814198E+02  0.41411573680E+02  0.41800000000E+01 0. -1.
         -5    1    4    4    0  501  0.44875228877E+02  0.30288221208E+02 -0.28219098676E+03  0.28736803566E+03  0.41800000000E+01 0. -1.
</event>
<event>
11    1  0.1078607E-008  0.1401218E+03  0.7561462E-02  0.1107422E+00
         22   -1    0    0    0    0  0.00000000000E+00  0.00000000000E+00  0.79957408556E+02  0.79957408556E+02  0.00000000000E+00 0.  1.
         22   -1    0    0    0    0 -0.00000000000E+00 -0.00000000000E+00 -0.10151418879E+04  0.10151418879E+04  0.00000000000E+00 0.  1.
         24    2    1    2    0    0  0.20232898518E+02  0.34902561841E+02 -0.74524614207E+03  0.75073246805E+03  0.81116381211E+02 0.  0.
         25    2    1    2    0    0 -0.13583332382E+02 -0.91516266264E+02 -0.18991049143E+03  0.24550591751E+03  0.12508967531E+03 0.  0.
        -24    2    1    2    0    0 -0.66495661362E+01  0.56613704423E+02 -0.27845848016E-01  0.98860910903E+02  0.80772214721E+02 0.  0.
        -13    1    3    3    0    0  0.16807594843E+02  0.61369854219E+02 -0.55088477289E+03  0.55454737152E+03  0.00000000000E+00 0.  1.
         14    1    3    3    0    0  0.34253036751E+01 -0.26467292379E+02 -0.19436136918E+03  0.19618509653E+03  0.00000000000E+00 0. -1.
         11    1    5    5    0    0  0.31431352027E+02  0.74514162367E+01  0.13848018271E+02  0.35145712458E+02  0.00000000000E+00 0. -1.
        -12    1    5    5    0    0 -0.38080918163E+02  0.49162288186E+02 -0.13875864119E+02  0.63715198445E+02  0.00000000000E+00 0.  1.
          5    1    4    4  501    0 -0.35849264934E+02  0.20335034349E+02 -0.48218385248E+02  0.63570185576E+02  0.41800000000E+01 0. -1.
         -5    1    4    4    0  501  0.22265932552E+02 -0.11185130061E+03 -0.14169210618E+03  0.18193573194E+03  0.41800000000E+01 0. -1.
</event>
<event>
11    1  0.1078607E-008  0.1588994E+03  0.7561462E-02  0.1088117E+00
         22   -1    0    0    0    0  0.00000000000E+00  0.00000000000E+00  0.42007346682E+03  0.42007346682E+03  0.00000000000E+00 0.  1.
         22   -1    0    0    0    0 -0.00000000000E+00 -0.00000000000E+00 -0.54196893975E+03  0.54196893975E+03  0.00000000000E+00 0.  1.
        -24    2    1    2    0    0  0.65145536185E+02  0.44370580862E+02 -0.23336121503E+03  0.25891700800E+03  0.79798941221E+02 0.  0.
         25    2    1    2    0    0 -0.11004426346E+03 -0.97871814387E+02 -0.25585960799E+03  0.32062440316E+03  0.12508891609E+03 0.  0.
         24    2    1    2    0    0  0.44898727276E+02  0.53501233525E+02  0.36732535009E+03  0.38250099541E+03  0.80627668739E+02 0.  0.
        -13    1    5    5    0    0  0.28115260459E+02  0.38304599618E+02  0.35192609969E+03  0.35511926147E+03  0.00000000000E+00 0.  1.
         14    1    5    5    0    0  0.16783466817E+02  0.15196633907E+02  0.15399250403E+02  0.27381733938E+02  0.00000000000E+00 0. -1.
         13    1    3    3    0    0 -0.41279902988E+01  0.42411812383E+02 -0.97363255077E+02  0.10627984556E+03  0.00000000000E+00 0. -1.
        -14    1    3    3    0    0  0.69273526483E+02  0.19587684792E+01 -0.13599795996E+03  0.15263716244E+03  0.00000000000E+00 0.  1.
          5    1    4    4  501    0 -0.11149048975E+03 -0.61148410818E+02 -0.25340964470E+03  0.28355454127E+03  0.41800000000E+01 0. -1.
         -5    1    4    4    0  501  0.14462262861E+01 -0.36723403570E+02 -0.24499632916E+01  0.37069861887E+02  0.41800000000E+01 0. -1.
</event>
<event>
11    1  0.1078607E-008  0.2001978E+03  0.7561462E-02  0.1054384E+00
         22   -1    0    0    0    0  0.00000000000E+00  0.00000000000E+00  0.13820382235E+04  0.13820382235E+04  0.00000000000E+00 0.  1.
         22   -1    0    0    0    0 -0.00000000000E+00 -0.00000000000E+00 -0.97972735510E+03  0.97972735510E+03  0.00000000000E+00 0.  1.
         24    2    1    2    0    0 -0.76457803617E+02 -0.36405865259E+02 -0.90530725897E+03  0.91280118527E+03  0.80334226469E+02 0.  0.
         25    2    1    2    0    0  0.18120937155E+03 -0.76217666347E+02  0.14717084565E+03  0.27559532099E+03  0.12509018403E+03 0.  0.
        -24    2    1    2    0    0 -0.10475156794E+03  0.11262353161E+03  0.11604472817E+04  0.11733690723E+04  0.80623417350E+02 0.  0.
        -11    1    3    3    0    0 -0.86900146947E+02 -0.14871169667E+02 -0.79811220137E+03  0.80296691912E+03  0.00000000000E+00 0.  1.
         12    1    3    3    0    0  0.10442343330E+02 -0.21534695592E+02 -0.10719505760E+03  0.10983426615E+03  0.00000000000E+00 0. -1.
         11    1    5    5    0    0 -0.28190671241E+02  0.75339358057E+02  0.38859899027E+03  0.39683738238E+03  0.00000000000E+00 0. -1.
        -12    1    5    5    0    0 -0.76560896694E+02  0.37284173548E+02  0.77184829141E+03  0.77653168992E+03  0.00000000000E+00 0.  1.
          5    1    4    4  501    0  0.13330338775E+00 -0.35203129441E+02  0.61703431045E+02  0.71162236438E+02  0.41800000000E+01 0. -1.
         -5    1    4    4    0  501  0.18107606816E+03 -0.41014536906E+02  0.85467414601E+02  0.20443308455E+03  0.41800000000E+01 0. -1.
</event>
<event>
11    1  0.1078607E-008  0.1302961E+03  0.7561462E-02  0.1118906E+00
         22   -1    0    0    0    0  0.00000000000E+00  0.00000000000E+00  0.66294476813E+03  0.66294476813E+03  0.00000000000E+00 0.  1.
         22   -1    0    0    0    0 -0.00000000000E+00 -0.00000000000E+00 -0.35285712273E+03  0.35285712273E+03  0.00000000000E+00 0.  1.
         24    2    1    2    0    0  0.31022398155E+02  0.15457206542E+02 -0.23830805172E+03  0.25362634725E+03  0.79588203155E+02 0.  0.
         25    2    1    2    0    0 -0.59988955688E+02 -0.35846633521E+02 -0.54219165545E+02  0.15320723757E+03  0.12509629807E+03 0.  0.
        -24    2    1    2    0    0  0.28966557533E+02  0.20389426979E+02  0.60261486266E+03  0.60896830605E+03  0.80267894494E+02 0.  0.
        -13    1    3    3    0    0  0.24642662455E+02 -0.78793369588E+01 -0.22406184974E+03  0.22555056478E+03  0.00000000000E+00 0.  1.
         14    1    3    3    0    0  0.63797357000E+01  0.23336543501E+02 -0.14246201979E+02  0.28075782464E+02  0.00000000000E+00 0. -1.
         11    1    5    5    0    0 -0.23002744455E+02 -0.12154573613E+02  0.15397690885E+03  0.15615936850E+03  0.00000000000E+00 0. -1.
        -12    1    5    5    0    0  0.51969301988E+02  0.32544000592E+02  0.44863795380E+03  0.45280893754E+03  0.00000000000E+00 0.  1.
          5    1    4    4  501    0 -0.46312966466E+02 -0.78272401478E+02 -0.12292498250E+02  0.91869677311E+02  0.41800000000E+01 0. -1.
         -5    1    4    4    0  501 -0.13675989223E+02  0.42425767957E+02 -0.41926667295E+02  0.61337560258E+02  0.41800000000E+01 0. -1.
</event>
<event>
11    1  0.1078607E-008  0.2143188E+03  0.7561462E-02  0.1044836E+00
         22   -1    0    0    0    0  0.00000000000E+00  0.00000000000E+00  0.77567379447E+02  0.77567379447E+02  0.00000000000E+00 0. -1.
         22   -1    0    0    0    0 -0.00000000000E+00 -0.00000000000E+00 -0.18038358236E+04  0.18038358236E+04  0.00000000000E+00 0.  1.
         24    2    1    2    0    0 -0.22751660063E+02  0.27263447434E+02 -0.10248857048E+04  0.10284496806E+04  0.77827398395E+02 0.  0.
         25    2    1    2    0    0  0.17276113348E+03 -0.10111122926E+03 -0.59164413707E+03  0.63699249662E+03  0.12508703327E+03 0.  0.
        -24    2    1    2    0    0 -0.15000947342E+03  0.73847781828E+02 -0.10973860222E+03  0.21596102581E+03  0.81487832551E+02 0.  0.
        -13    1    3    3    0    0 -0.39038775615E+02  0.13407837092E+02 -0.94021238839E+03  0.94111802203E+03  0.00000000000E+00 0.  1.
         14    1    3    3    0    0  0.16287115553E+02  0.13855610341E+02 -0.84673316429E+02  0.87331658556E+02  0.00000000000E+00 0. -1.
         11    1    5    5    0    0 -0.15751486662E+03  0.63822868532E+02 -0.89288382115E+02  0.19198100671E+03  0.00000000000E+00 0. -1.
        -12    1    5    5    0    0  0.75053932041E+01  0.10024913296E+02 -0.20450220105E+02  0.23980019102E+02  0.00000000000E+00 0.  1.
          5    1    4    4  501    0  0.16855489063E+03 -0.10509352392E+03 -0.41399797700E+03  0.45920278449E+03  0.41800000000E+01 0.  1.
         -5    1    4    4    0  501  0.42062428499E+01  0.39822946548E+01 -0.17764616007E+03  0.17778971213E+03  0.41800000000E+01 0.  1.
</event>
<event>
11    1  0.1078607E-008  0.2063298E+03  0.7561462E-02  0.1050136E+00
         22   -1    0    0    0    0  0.00000000000E+00  0.00000000000E+00  0.86568120916E+03  0.86568120916E+03  0.00000000000E+00 0. -1.
         22   -1    0    0    0    0 -0.00000000000E+00 -0.00000000000E+00 -0.14368393054E+04  0.14368393054E+04  0.00000000000E+00 0. -1.
        -24    2    1    2    0    0 -0.16241243669E+03 -0.16598253562E+02 -0.13514931204E+04  0.13640334636E+04  0.86025192009E+02 0.  0.
         25    2    1    2    0    0  0.18148837035E+03  0.59236445434E+02  0.95517108290E+02  0.24742258505E+03  0.12508969811E+03 0.  0.
         24    2    1    2    0    0 -0.19075933662E+02 -0.42638191872E+02  0.68481791592E+03  0.69106446589E+03  0.80078782480E+02 0.  0.
        -11    1    5    5    0    0 -0.51270097722E+01  0.20316212625E+02  0.75806291252E+02  0.78648766792E+02  0.00000000000E+00 0.  1.
         12    1    5    5    0    0 -0.13948923889E+02 -0.62954404498E+02  0.60901162467E+03  0.61241569910E+03  0.00000000000E+00 0. -1.
         11    1    3    3    0    0 -0.14580673396E+03 -0.11437493311E+02 -0.13198369444E+04  0.13279156524E+04  0.00000000000E+00 0. -1.
        -12    1    3    3    0    0 -0.16605702734E+02 -0.51607602512E+01 -0.31656175975E+02  0.36117811216E+02  0.00000000000E+00 0.  1.
          5    1    4    4  501    0  0.13201766436E+03  0.96285312919E+02  0.51303896868E+02  0.17131575357E+03  0.41800000000E+01 0. -1.
         -5    1    4    4    0  501  0.49470705990E+02 -0.37048867485E+02  0.44213211422E+02  0.76106831476E+02  0.41800000000E+01 0. -1.
</event>
<event>
11    1  0.1078607E-008  0.1284806E+03  0.7561462E-02  0.1121150E+00
         22   -1    0    0    0    0  0.00000000000E+00  0.00000000000E+00  0.75923224569E+03  0.75923224569E+03  0.00000000000E+00 0.  1.
         22   -1    0    0    0    0 -0.00000000000E+00 -0.00000000000E+00 -0.27080974883E+03  0.27080974883E+03  0.00000000000E+00 0.  1.
         24    2    1    2    0    0  0.21514733310E+02 -0.22971994768E+02 -0.23088386639E+03  0.24955688228E+03  0.89334659809E+02 0.  0.
         25    2    1    2    0    0  0.77445191139E+01  0.14272595730E+01  0.11642089228E+03  0.17106942005E+03  0.12509559413E+03 0.  0.
        -24    2    1    2    0    0 -0.29259252424E+02  0.21544735195E+02  0.60288547098E+03  0.60941569218E+03  0.81217703124E+02 0.  0.
        -13    1    3    3    0    0 -0.21919067302E+02  0.33365116180E+01 -0.16445140682E+03  0.16593927512E+03  0.00000000000E+00 0.  1.
         14    1    3    3    0    0  0.43433800612E+02 -0.26308506386E+02 -0.66432459570E+02  0.83617607168E+02  0.00000000000E+00 0. -1.
         11    1    5    5    0    0  0.23282080896E+02 -0.12339085052E+02  0.16546962174E+03  0.16755448078E+03  0.00000000000E+00 0. -1.
        -12    1    5    5    0    0 -0.52541333320E+02  0.33883820247E+02  0.43741584923E+03  0.44186121140E+03  0.00000000000E+00 0.  1.
          5    1    4    4  501    0  0.47245397464E+02 -0.14752720303E+02  0.11812677468E+03  0.12814514284E+03  0.41800000000E+01 0.  1.
         -5    1    4    4    0  501 -0.39500878350E+02  0.16179979876E+02 -0.17058823997E+01  0.42924277210E+02  0.41800000000E+01 0.  1.
</event>
<event>
11    1  0.1078607E-008  0.1723022E+03  0.7561462E-02  0.1076045E+00
         22   -1    0    0    0    0  0.00000000000E+00  0.00000000000E+00  0.12052275168E+03  0.12052275168E+03  0.00000000000E+00 0.  1.
         22   -1    0    0    0    0 -0.00000000000E+00 -0.00000000000E+00 -0.21258424582E+04  0.21258424582E+04  0.00000000000E+00 0.  1.
        -24    2    1    2    0    0  0.77543898442E+00 -0.63229499774E+01 -0.84097293654E+03  0.84475522255E+03  0.79594755035E+02 0.  0.
         25    2    1    2    0    0 -0.59377689892E+02  0.10907076885E+03 -0.12308654082E+04  0.12434222056E+04  0.12508791166E+03 0.  0.
         24    2    1    2    0    0  0.58602250908E+02 -0.10274781888E+03  0.66518638284E+02  0.15818778165E+03  0.81285342642E+02 0.  0.
        -13    1    5    5    0    0  0.18039694701E+02 -0.93599660889E+02  0.67153550712E+02  0.11660157150E+03  0.00000000000E+00 0.  1.
         14    1    5    5    0    0  0.40562556207E+02 -0.91481579878E+01 -0.63491242859E+00  0.41586210147E+02  0.00000000000E+00 0. -1.
         11    1    3    3    0    0 -0.38492567232E+02 -0.11105701814E+02 -0.39120885850E+03  0.39325486051E+03  0.00000000000E+00 0. -1.
        -12    1    3    3    0    0  0.39268006216E+02  0.47827518370E+01 -0.44976407804E+03  0.45150036204E+03  0.00000000000E+00 0.  1.
          5    1    4    4  501    0  0.22598726001E+02  0.57978266634E+02 -0.77014046616E+03  0.77266162830E+03  0.41800000000E+01 0.  1.
         -5    1    4    4    0  501 -0.81976415893E+02  0.51092502219E+02 -0.46072494206E+03  0.47076057734E+03  0.41800000000E+01 0.  1.
</event>
<event>
11    1  0.1078607E-008  0.2410396E+03  0.7561462E-02  0.1028784E+00
         22   -1    0    0    0    0  0.00000000000E+00  0.00000000000E+00  0.13346407804E+03  0.13346407804E+03  0.00000000000E+00 0. -1.
         22   -1    0    0    0    0 -0.00000000000E+00 -0.00000000000E+00 -0.60628023493E+03  0.60628023493E+03  0.00000000000E+00 0. -1.
        -24    2    1    2    0    0  0.14244417329E+03 -0.17173237070E+03 -0.26437710659E+03  0.35512543228E+03  0.80227604452E+02 0.  0.
         25    2    1    2    0    0 -0.11852311733E+03  0.14421007102E+03 -0.19375496435E+03  0.29670307349E+03  0.12508978249E+03 0.  0.
         24    2    1    2    0    0 -0.23921055957E+02  0.27522299680E+02 -0.14684085956E+02  0.87915807188E+02  0.78637604715E+02 0.  0.
        -13    1    5    5    0    0  0.11464711575E+02  0.20329613553E+02  0.25041332508E+02  0.34231580923E+02  0.00000000000E+00 0.  1.
         14    1    5    5    0    0 -0.35385767532E+02  0.71926861265E+01 -0.39725418464E+02  0.53684226265E+02  0.00000000000E+00 0. -1.
         13    1    3    3    0    0  0.12048465368E+03 -0.15610395691E+03 -0.18161110932E+03  0.26808131633E+03  0.00000000000E+00 0. -1.
        -14    1    3    3    0    0  0.21959519612E+02 -0.15628413793E+02 -0.82765997267E+02  0.87044115957E+02  0.00000000000E+00 0.  1.
          5    1    4    4  501    0 -0.77908651032E+02  0.54296984631E+01 -0.86523470447E+02  0.11663199762E+03  0.41800000000E+01 0. -1.
         -5    1    4    4    0  501 -0.40614466299E+02  0.13878037256E+03 -0.10723149390E+03  0.18007107587E+03  0.41800000000E+01 0. -1.
</event>
<event>
11    1  0.1078607E-008  0.2906980E+03  0.7561462E-02  0.1004207E+00
         22   -1    0    0    0    0  0.00000000000E+00  0.00000000000E+00  0.15527102185E+03  0.15527102185E+03  0.00000000000E+00 0. -1.
         22   -1    0    0    0    0 -0.00000000000E+00 -0.00000000000E+00 -0.16191832264E+04  0.16191832264E+04  0.00000000000E+00 0.  1.
         24    2    1    2    0    0 -0.10867890379E+02  0.44070619408E+01 -0.33282504378E+03  0.34213207771E+03  0.78385684885E+02 0.  0.
         25    2    1    2    0    0  0.15939292804E+02 -0.26624928046E+03 -0.11198142381E+04  0.11579178350E+04  0.12508814678E+03 0.  0.
        -24    2    1    2    0    0 -0.50714024248E+01  0.26184221852E+03 -0.11272922659E+02  0.27440433549E+03  0.81139349442E+02 0.  0.
        -13    1    3    3    0    0 -0.36194107178E+02 -0.21140931738E+02 -0.21023331111E+03  0.21437116758E+03  0.00000000000E+00 0.  1.
         14    1    3    3    0    0  0.25326216799E+02  0.25547993679E+02 -0.12259173267E+03  0.12776091013E+03  0.00000000000E+00 0. -1.
         11    1    5    5    0    0  0.40317653128E+01  0.15544506407E+03  0.32735211117E+02  0.15890568625E+03  0.00000000000E+00 0. -1.
        -12    1    5    5    0    0 -0.91031677376E+01  0.10639715445E+03 -0.44008133776E+02  0.11549864924E+03  0.00000000000E+00 0.  1.
          5    1    4    4  501    0 -0.36193980548E+02 -0.12883187436E+03 -0.71029655314E+03  0.72280448385E+03  0.41800000000E+01 0. -1.
         -5    1    4    4    0  501  0.52133273352E+02 -0.13741740609E+03 -0.40951768497E+03  0.43511335120E+03  0.41800000000E+01 0. -1.
</event>
<event>
11    1  0.1078607E-008  0.1524151E+03  0.7561462E-02  0.1094436E+00
         22   -1    0    0    0    0  0.00000000000E+00  0.00000000000E+00  0.84770261164E+03  0.84770261164E+03  0.00000000000E+00 0.  1.
         22   -1    0    0    0    0 -0.00000000000E+00 -0.00000000000E+00 -0.51705332588E+03  0.51705332588E+03  0.00000000000E+00 0.  1.
        -24    2    1    2    0    0 -0.68355322924E+02  0.42299113560E+02 -0.35705043809E+03  0.37458007694E+03  0.79771884275E+02 0.  0.
         25    2    1    2    0    0  0.14126712403E+03 -0.21500844333E+02 -0.86530408254E+02  0.20869680702E+03  0.12509260197E+03 0.  0.
         24    2    1    2    0    0 -0.72911801108E+02 -0.20798269227E+02  0.77423013210E+03  0.78147905356E+03  0.74353984071E+02 0.  0.
        -11    1    5    5    0    0 -0.37651400318E+02  0.15483474112E+01  0.63520307482E+03  0.63631986578E+03  0.00000000000E+00 0.  1.
         12    1    5    5    0    0 -0.35260400790E+02 -0.22346616638E+02  0.13902705728E+03  0.14515918778E+03  0.00000000000E+00 0. -1.
         13    1    3    3    0    0 -0.26200512536E+02  0.40947939909E+02 -0.74887327598E+02  0.89282206933E+02  0.00000000000E+00 0. -1.
        -14    1    3    3    0    0 -0.42154810388E+02  0.13511736516E+01 -0.28216311049E+03  0.28529787000E+03  0.00000000000E+00 0.  1.
          5    1    4    4  501    0 -0.20866603707E+02 -0.10860048564E+02 -0.25856987778E+02  0.35205284007E+02  0.41800000000E+01 0.  1.
         -5    1    4    4    0  501  0.16213372774E+03 -0.10640795770E+02 -0.60673420477E+02  0.17349152301E+03  0.41800000000E+01 0.  1.
</event>
<event>
11    1  0.1078607E-008  0.2192370E+03  0.7561462E-02  0.1041696E+00
         22   -1    0    0    0    0  0.00000000000E+00  0.00000000000E+00  0.41025400068E+04  0.41025400068E+04  0.00000000000E+00 0.  1.
         22   -1    0    0    0    0 -0.00000000000E+00 -0.00000000000E+00 -0.16578488545E+03  0.16578488545E+03  0.00000000000E+00 0.  1.
        -24    2    1    2    0    0 -0.92114451735E+02  0.15618819789E+03 -0.56813511488E+02  0.20577607948E+03  0.78969579077E+02 0.  0.
         25    2    1    2    0    0  0.20387008575E+03 -0.70767991813E+02  0.44431046962E+03  0.50953919283E+03  0.12508906864E+03 0.  0.
         24    2    1    2    0    0 -0.11175563401E+03 -0.85420206073E+02  0.35492581633E+04  0.35530096200E+04  0.82812540338E+02 0.  0.
        -11    1    5    5    0    0 -0.85281054415E+02 -0.31522407283E+02  0.27483498178E+04  0.27498533127E+04  0.00000000000E+00 0.  1.
         12    1    5    5    0    0 -0.26474579597E+02 -0.53897798790E+02  0.80090834544E+03  0.80315630725E+03  0.00000000000E+00 0. -1.
         11    1    3    3    0    0  0.97848977536E+01  0.35659677711E+02 -0.25368359418E+02  0.44843176717E+02  0.00000000000E+00 0. -1.
        -12    1    3    3    0    0 -0.10189934949E+03  0.12052852018E+03 -0.31445152070E+02  0.16093290276E+03  0.00000000000E+00 0.  1.
          5    1    4    4  501    0  0.56747138560E+02  0.36114665310E+02  0.11252106985E+03  0.13116009433E+03  0.41800000000E+01 0. -1.
         -5    1    4    4    0  501  0.14712294719E+03 -0.10688265712E+03  0.33178939976E+03  0.37837909850E+03  0.41800000000E+01 0. -1.
</event>
<event>
11    1  0.1078607E-008  0.1480168E+03  0.7561462E-02  0.1098923E+00
         22   -1    0    0    0    0  0.00000000000E+00  0.00000000000E+00  0.99446821442E+02  0.99446821442E+02  0.00000000000E+00 0.  1.
         22   -1    0    0    0    0 -0.00000000000E+00 -0.00000000000E+00 -0.20125528558E+04  0.20125528558E+04  0.00000000000E+00 0. -1.
        -24    2    1    2    0    0 -0.45751732546E+02 -0.64432954422E+02 -0.15746349540E+04  0.15787680354E+04  0.82392017112E+02 0.  0.
         25    2    1    2    0    0 -0.22251074930E+02  0.10935815750E+02 -0.38282655247E+03  0.40350733994E+03  0.12508917504E+03 0.  0.
         24    2    1    2    0    0  0.68002807476E+02  0.53497138673E+02  0.44355472078E+02  0.12972430197E+03  0.85875846117E+02 0.  0.
        -11    1    5    5    0    0  0.73007024105E+02  0.43340432403E+02  0.99326908860E+00  0.84908216522E+02  0.00000000000E+00 0.  1.
         12    1    5    5    0    0 -0.50042166286E+01  0.10156706270E+02  0.43362202990E+02  0.44816085443E+02  0.00000000000E+00 0. -1.
         11    1    3    3    0    0 -0.65433607467E+02 -0.35542315807E+02 -0.12596859166E+04  0.12618848686E+04  0.00000000000E+00 0. -1.
        -12    1    3    3    0    0  0.19681874920E+02 -0.28890638616E+02 -0.31494903739E+03  0.31688316672E+03  0.00000000000E+00 0.  1.
          5    1    4    4  501    0 -0.56657401234E+02  0.26916119440E+02 -0.34156106864E+03  0.34729810626E+03  0.41800000000E+01 0. -1.
         -5    1    4    4    0  501  0.34406326304E+02 -0.15980303690E+02 -0.41265483826E+02  0.56209233683E+02  0.41800000000E+01 0. -1.
</event>
<event>
11    1  0.1078607E-008  0.1456325E+03  0.7561462E-02  0.1101427E+00
         22   -1    0    0    0    0  0.00000000000E+00  0.00000000000E+00  0.30695357152E+03  0.30695357152E+03  0.00000000000E+00 0. -1.
         22   -1    0    0    0    0 -0.00000000000E+00 -0.00000000000E+00 -0.18400753868E+04  0.18400753868E+04  0.00000000000E+00 0. -1.
        -24    2    1    2    0    0 -0.14927376822E+02 -0.12444594763E+02 -0.16636182399E+04  0.16656301507E+04  0.79501298604E+02 0.  0.
         25    2    1    2    0    0  0.62782591424E+02 -0.44729228958E+02 -0.13141877180E+03  0.19713249422E+03  0.12509184221E+03 0.  0.
         24    2    1    2    0    0 -0.47855214602E+02  0.57173823721E+02  0.26191519636E+03  0.28426631338E+03  0.81540168976E+02 0.  0.
        -11    1    5    5    0    0  0.20310003700E+02 -0.17505015525E+01  0.48596803606E+02  0.52699239337E+02  0.00000000000E+00 0.  1.
         12    1    5    5    0    0 -0.68165218302E+02  0.58924325274E+02  0.21331839276E+03  0.23156707405E+03  0.00000000000E+00 0. -1.
         11    1    3    3    0    0  0.14047279473E+02 -0.14343232540E+02 -0.14393462672E+04  0.14394862734E+04  0.00000000000E+00 0. -1.
        -12    1    3    3    0    0 -0.28974656295E+02  0.18986377762E+01 -0.22427197264E+03  0.22614387730E+03  0.00000000000E+00 0.  1.
          5    1    4    4  501    0  0.30728099855E+02 -0.83067213441E+02 -0.50796844672E+02  0.10218693604E+03  0.41800000000E+01 0.  1.
         -5    1    4    4    0  501  0.32054491569E+02  0.38337984483E+02 -0.80621927124E+02  0.94945558175E+02  0.41800000000E+01 0.  1.
</event>
<event>
11    1  0.1078607E-008  0.1460426E+03  0.7561462E-02  0.1100992E+00
         22   -1    0    0    0    0  0.00000000000E+00  0.00000000000E+00  0.43239355738E+03  0.43239355738E+03  0.00000000000E+00 0.  1.
         22   -1    0    0    0    0 -0.00000000000E+00 -0.00000000000E+00 -0.51081024836E+03  0.51081024836E+03  0.00000000000E+00 0.  1.
        -24    2    1    2    0    0 -0.28591351302E+02  0.45759622445E+02 -0.34434155348E+03  0.35763149770E+03  0.80111012246E+02 0.  0.
         25    2    1    2    0    0 -0.31461204465E+02 -0.90851465584E+02 -0.11099090918E+03  0.19289996956E+03  0.12509044789E+03 0.  0.
         24    2    1    2    0    0  0.60052555767E+02  0.45091843139E+02  0.37691577168E+03  0.39267233847E+03  0.80538703064E+02 0.  0.
        -11    1    5    5    0    0  0.62436100316E+02  0.52499251029E+02  0.20577048677E+03  0.22135024556E+03  0.00000000000E+00 0.  1.
         12    1    5    5    0    0 -0.23835445496E+01 -0.74074078899E+01  0.17114528491E+03  0.17132209292E+03  0.00000000000E+00 0. -1.
         11    1    3    3    0    0 -0.53855304976E+02  0.14140866282E+02 -0.18242849641E+03  0.19073676698E+03  0.00000000000E+00 0. -1.
        -12    1    3    3    0    0  0.25263953674E+02  0.31618756163E+02 -0.16191305706E+03  0.16689473072E+03  0.00000000000E+00 0.  1.
          5    1    4    4  501    0 -0.72345601320E+02 -0.31969169660E+02 -0.85884371013E+02  0.11683112352E+03  0.41800000000E+01 0.  1.
         -5    1    4    4    0  501  0.40884396855E+02 -0.58882295924E+02 -0.25106538163E+02  0.76068846041E+02  0.41800000000E+01 0.  1.
</event>
<event>
11    1  0.1078607E-008  0.1399769E+03  0.7561462E-02  0.1107584E+00
         22   -1    0    0    0    0  0.00000000000E+00  0.00000000000E+00  0.26405965052E+03  0.26405965052E+03  0.00000000000E+00 0. -1.
         22   -1    0    0    0    0 -0.00000000000E+00 -0.00000000000E+00 -0.52614347500E+03  0.52614347500E+03  0.00000000000E+00 0. -1.
         24    2    1    2    0    0  0.50039231327E+02 -0.35426924821E+02 -0.42371392087E+03  0.43537818409E+03  0.79130807985E+02 0.  0.
         25    2    1    2    0    0 -0.83140634273E+02  0.20050821668E+02 -0.19819372692E+02  0.15281959180E+03  0.12508644846E+03 0.  0.
        -24    2    1    2    0    0  0.33101402946E+02  0.15376103152E+02  0.18144946908E+03  0.20200534963E+03  0.80932836511E+02 0.  0.
        -13    1    3    3    0    0 -0.62458958113E+01  0.18224486970E+02 -0.13534658175E+03  0.13671079084E+03  0.00000000000E+00 0.  1.
         14    1    3    3    0    0  0.56285127138E+02 -0.53651411791E+02 -0.28836733911E+03  0.29866739325E+03  0.00000000000E+00 0. -1.
         13    1    5    5    0    0  0.46277048348E+02  0.20041813515E+02  0.18113519356E+03  0.18802446074E+03  0.00000000000E+00 0. -1.
        -14    1    5    5    0    0 -0.13175645402E+02 -0.46657103626E+01  0.31427551898E+00  0.13980888886E+02  0.00000000000E+00 0.  1.
          5    1    4    4  501    0  0.26598398301E+02 -0.84237087231E+01 -0.27122264856E+02  0.39134681700E+02  0.41800000000E+01 0. -1.
         -5    1    4    4    0  501 -0.10973903257E+03  0.28474530392E+02  0.73028921640E+01  0.11368491010E+03  0.41800000000E+01 0. -1.
</event>
<event>
11    1  0.1078607E-008  0.1297264E+03  0.7561462E-02  0.1119606E+00
         22   -1    0    0    0    0  0.00000000000E+00  0.00000000000E+00  0.13139699768E+04  0.13139699768E+04  0.00000000000E+00 0.  1.
         22   -1    0    0    0    0 -0.00000000000E+00 -0.00000000000E+00 -0.69003161526E+03  0.69003161526E+03  0.00000000000E+00 0.  1.
         24    2    1    2    0    0  0.29770825287E+02  0.28726258140E+02 -0.48023824664E+03  0.48902772344E+03  0.82509640752E+02 0.  0.
         25    2    1    2    0    0 -0.10766421567E+02  0.66831206182E+01 -0.18446788881E+03  0.22324050289E+03  0.12508932887E+03 0.  0.
        -24    2    1    2    0    0 -0.19004403720E+02 -0.35409378758E+02  0.12886444969E+04  0.12917333657E+04  0.79721120703E+02 0.  0.
        -13    1    3    3    0    0  0.99128875352E+01  0.18537138417E+02 -0.45439323219E+03  0.45487921507E+03  0.00000000000E+00 0.  1.
         14    1    3    3    0    0  0.19857937752E+02  0.10189119723E+02 -0.25845014449E+02  0.34148508377E+02  0.00000000000E+00 0. -1.
         13    1    5    5    0    0  0.52070525905E+01  0.17422047933E+02  0.98079967813E+02  0.99751296919E+02  0.00000000000E+00 0. -1.
        -14    1    5    5    0    0 -0.24211456311E+02 -0.52831426692E+02  0.11905645291E+04  0.11919820688E+04  0.00000000000E+00 0.  1.
          5    1    4    4  501    0  0.48635070726E+02 -0.26578699958E+02 -0.63679313299E+02  0.84524107438E+02  0.41800000000E+01 0.  1.
         -5    1    4    4    0  501 -0.59401492293E+02  0.33261820576E+02 -0.12078857551E+03  0.13871639545E+03  0.41800000000E+01 0.  1.
</event>
<event>
11    1  0.1078607E-008  0.1530130E+03  0.7561462E-02  0.1093839E+00
         22   -1    0    0    0    0  0.00000000000E+00  0.00000000000E+00  0.73887452475E+03  0.73887452475E+03  0.00000000000E+00 0.  1.
         22   -1    0    0    0    0 -0.00000000000E+00 -0.00000000000E+00 -0.29100317542E+03  0.29100317542E+03  0.00000000000E+00 0.  1.
        -24    2    1    2    0    0 -0.74077629982E+02 -0.43594275647E+02 -0.22686245370E+03  0.25671292901E+03  0.83946404858E+02 0.  0.
         25    2    1    2    0    0  0.87016029108E+02  0.69443724251E+02  0.10716333546E+03  0.19881120595E+03  0.12509074699E+03 0.  0.
         24    2    1    2    0    0 -0.12938399126E+02 -0.25849448604E+02  0.56757046756E+03  0.57435356521E+03  0.83127528876E+02 0.  0.
        -13    1    5    5    0    0 -0.46085479254E+02 -0.22348915145E+02  0.41726207856E+03  0.42039384821E+03  0.00000000000E+00 0.  1.
         14    1    5    5    0    0  0.33147080128E+02 -0.35005334586E+01  0.15030838900E+03  0.15395971700E+03  0.00000000000E+00 0. -1.
         11    1    3    3    0    0 -0.59470721986E+02  0.13560213004E+02 -0.12188017556E+03  0.13629168480E+03  0.00000000000E+00 0. -1.
        -12    1    3    3    0    0 -0.14606907996E+02 -0.57154488651E+02 -0.10498227813E+03  0.12042124421E+03  0.00000000000E+00 0.  1.
          5    1    4    4  501    0  0.82681442564E+02 -0.90231202047E+01  0.80217053387E+02  0.11562822189E+03  0.41800000000E+01 0.  1.
         -5    1    4    4    0  501  0.43345865436E+01  0.78466844455E+02  0.26946282076E+02  0.83182984059E+02  0.41800000000E+01 0.  1.
</event>
<event>
11    1  0.1078607E-008  0.1500724E+03  0.7561462E-02  0.1096805E+00
         22   -1    0    0    0    0  0.00000000000E+00  0.00000000000E+00  0.21981857888E+04  0.21981857888E+04  0.00000000000E+00 0. -1.
         22   -1    0    0    0    0 -0.00000000000E+00 -0.00000000000E+00 -0.13883391892E+03  0.13883391892E+03  0.00000000000E+00 0. -1.
         24    2    1    2    0    0  0.72846422479E+02  0.39840483771E+02 -0.10125763673E+03  0.15341134385E+03  0.79925377766E+02 0.  0.
         25    2    1    2    0    0 -0.81009862820E+02 -0.19540014248E+02  0.52919745153E+03  0.55012810205E+03  0.12508627398E+03 0.  0.
        -24    2    1    2    0    0  0.81634403407E+01 -0.20300469522E+02  0.16314120551E+04  0.16334802619E+04  0.79206827063E+02 0.  0.
        -11    1    3    3    0    0  0.57404791355E+02  0.10434293798E+02 -0.13936460446E+02  0.59986744263E+02  0.00000000000E+00 0.  1.
         12    1    3    3    0    0  0.15441631124E+02  0.29406189973E+02 -0.87321176286E+02  0.93424599589E+02  0.00000000000E+00 0. -1.
         11    1    5    5    0    0 -0.22789966903E+02 -0.21887717447E+02  0.13494403336E+04  0.13498102343E+04  0.00000000000E+00 0. -1.
        -12    1    5    5    0    0  0.30953407244E+02  0.15872479246E+01  0.28197172152E+03  0.28367002752E+03  0.00000000000E+00 0.  1.
          5    1    4    4  501    0 -0.11438468245E+03 -0.20257427413E+02  0.39243115135E+03  0.40928461966E+03  0.41800000000E+01 0. -1.
         -5    1    4    4    0  501  0.33374819635E+02  0.71741316449E+00  0.13676630018E+03  0.14084348239E+03  0.41800000000E+01 0. -1.
</event>
<event>
11    1  0.1078607E-008  0.1404469E+03  0.7561462E-02  0.1107060E+00
         22   -1    0    0    0    0  0.00000000000E+00  0.00000000000E+00  0.42728292658E+03  0.42728292658E+03  0.00000000000E+00 0.  1.
         22   -1    0    0    0    0 -0.00000000000E+00 -0.00000000000E+00 -0.19317612418E+03  0.19317612418E+03  0.00000000000E+00 0.  1.
        -24    2    1    2    0    0 -0.69239782815E+01 -0.28827655592E+02 -0.11400968034E+03  0.14220305790E+03  0.79652540847E+02 0.  0.
         25    2    1    2    0    0  0.69713226983E+02  0.20142245575E+02  0.35058302446E+02  0.14880098188E+03  0.12508798329E+03 0.  0.
         24    2    1    2    0    0 -0.62789248702E+02  0.86854100175E+01  0.31305818030E+03  0.32945501098E+03  0.80729510768E+02 0.  0.
        -13    1    5    5    0    0 -0.69136109119E+02 -0.20259481998E+01  0.30855975981E+03  0.31621674754E+03  0.00000000000E+00 0.  1.
         14    1    5    5    0    0  0.63468604174E+01  0.10711358217E+02  0.44984204862E+01  0.13238263439E+02  0.00000000000E+00 0. -1.
         13    1    3    3    0    0 -0.32959778005E+02 -0.33965942403E+02 -0.35025192617E+02  0.58879506853E+02  0.00000000000E+00 0. -1.
        -14    1    3    3    0    0  0.26035799723E+02  0.51382868103E+01 -0.78984487724E+02  0.83323551050E+02  0.00000000000E+00 0.  1.
          5    1    4    4  501    0  0.13545653997E+02 -0.36185393528E+02 -0.27422524097E+02  0.47564006085E+02  0.41800000000E+01 0. -1.
         -5    1    4    4    0  501  0.56167572987E+02  0.56327639102E+02  0.62480826544E+02  0.10123697579E+03  0.41800000000E+01 0. -1.
</event>
<event>
11    1  0.1078607E-008  0.2598304E+03  0.7561462E-02  0.1018789E+00
         22   -1    0    0    0    0  0.00000000000E+00  0.00000000000E+00  0.95120246092E+03  0.95120246092E+03  0.00000000000E+00 0. -1.
         22   -1    0    0    0    0 -0.00000000000E+00 -0.00000000000E+00 -0.15199242038E+03  0.15199242038E+03  0.00000000000E+00 0. -1.
         24    2    1    2    0    0 -0.14564896248E+03 -0.17208971672E+02  0.27300153144E+02  0.16974207870E+03  0.80977193959E+02 0.  0.
         25    2    1    2    0    0  0.13662193540E+03 -0.21152982174E+03  0.38324369592E+03  0.47532515985E+03  0.12509140019E+03 0.  0.
        -24    2    1    2    0    0  0.90270270782E+01  0.22873879341E+03  0.38866619147E+03  0.45812764275E+03  0.80103719206E+02 0.  0.
        -13    1    3    3    0    0 -0.96954300511E+02  0.21046524674E+02  0.39215566787E+02  0.10668155073E+03  0.00000000000E+00 0.  1.
         14    1    3    3    0    0 -0.48694661970E+02 -0.38255496346E+02 -0.11915413643E+02  0.63060527965E+02  0.00000000000E+00 0. -1.
         13    1    5    5    0    0 -0.45997582266E+01  0.97380973172E+02  0.94947773842E+02  0.13608560346E+03  0.00000000000E+00 0. -1.
        -14    1    5    5    0    0  0.13626785305E+02  0.13135782024E+03  0.29371841763E+03  0.32204203929E+03  0.00000000000E+00 0.  1.
          5    1    4    4  501    0  0.61806445203E+01 -0.12020751689E+03  0.18913881029E+03  0.22422981390E+03  0.41800000000E+01 0. -1.
         -5    1    4    4    0  501  0.13044129088E+03 -0.91322304851E+02  0.19410488563E+03  0.25109534594E+03  0.41800000000E+01 0. -1.
</event>
<event>
11    1  0.1078607E-008  0.1556655E+03  0.7561462E-02  0.1091226E+00
         22   -1    0    0    0    0  0.00000000000E+00  0.00000000000E+00  0.26288819907E+03  0.26288819907E+03  0.00000000000E+00 0. -1.
         22   -1    0    0    0    0 -0.00000000000E+00 -0.00000000000E+00 -0.87948404667E+03  0.87948404667E+03  0.00000000000E+00 0.  1.
        -24    2    1    2    0    0  0.31571840171E+02  0.89337337133E+02 -0.73035062721E+03  0.74072331849E+03  0.79253107109E+02 0.  0.
         25    2    1    2    0    0 -0.10475332467E+03 -0.26385863983E+02 -0.69561495102E+02  0.17931754139E+03  0.12508599523E+03 0.  0.
         24    2    1    2    0    0  0.73181484495E+02 -0.62951473150E+02  0.18331627471E+03  0.22233138585E+03  0.80671995863E+02 0.  0.
        -13    1    5    5    0    0  0.61313234568E+02 -0.40920686749E+01  0.12149186123E+03  0.13614819170E+03  0.00000000000E+00 0.  1.
         14    1    5    5    0    0  0.11868249927E+02 -0.58859404475E+02  0.61824413487E+02  0.86183194153E+02  0.00000000000E+00 0. -1.
         13    1    3    3    0    0  0.26398054598E+02  0.66958566277E+02 -0.25903550842E+03  0.26884884509E+03  0.00000000000E+00 0. -1.
        -14    1    3    3    0    0  0.51737855729E+01  0.22378770855E+02 -0.47131511880E+03  0.47187447340E+03  0.00000000000E+00 0.  1.
          5    1    4    4  501    0 -0.10642317359E+03  0.21801306196E+02 -0.72759327777E+02  0.13081506414E+03  0.41800000000E+01 0.  1.
         -5    1    4    4    0  501  0.16698489215E+01 -0.48187170179E+02  0.31978326750E+01  0.48502477247E+02  0.41800000000E+01 0.  1.
</event>
<event>
11    1  0.1078607E-008  0.1892025E+03  0.7561462E-02  0.1062433E+00
         22   -1    0    0    0    0  0.00000000000E+00  0.00000000000E+00  0.82009036351E+03  0.82009036351E+03  0.00000000000E+00 0. -1.
         22   -1    0    0    0    0 -0.00000000000E+00 -0.00000000000E+00 -0.17749207478E+03  0.17749207478E+03  0.00000000000E+00 0.  1.
        -24    2    1    2    0    0 -0.85400179936E+02  0.92388719037E+02 -0.77775708240E+02  0.16874009164E+03  0.81211400655E+02 0.  0.
         25    2    1    2    0    0  0.78693205863E+02  0.72543190959E+02  0.12805655598E+03  0.20857066609E+03  0.12509238994E+03 0.  0.
         24    2    1    2    0    0  0.67069740735E+01 -0.16493191000E+03  0.59231744099E+03  0.62027168055E+03  0.81544394968E+02 0.  0.
        -11    1    5    5    0    0  0.38250022712E+02 -0.10001652970E+03  0.28134649787E+03  0.30103525095E+03  0.00000000000E+00 0.  1.
         12    1    5    5    0    0 -0.31543048639E+02 -0.64915380293E+02  0.31097094312E+03  0.31923642959E+03  0.00000000000E+00 0. -1.
         13    1    3    3    0    0 -0.35234072241E+01 -0.48679224919E+00 -0.38763444849E+02  0.38926289596E+02  0.00000000000E+00 0. -1.
        -14    1    3    3    0    0 -0.81876772712E+02  0.92875511286E+02 -0.39012263391E+02  0.12981380205E+03  0.00000000000E+00 0.  1.
          5    1    4    4  501    0  0.85754533783E+01 -0.45244412111E+01  0.10004180889E+03  0.10059743980E+03  0.41800000000E+01 0. -1.
         -5    1    4    4    0  501  0.70117752485E+02  0.77067632170E+02  0.28014747094E+02  0.10797322629E+03  0.41800000000E+01 0. -1.
</event>
<event>
11    1  0.1078607E-008  0.1514854E+03  0.7561462E-02  0.1095371E+00
         22   -1    0    0    0    0  0.00000000000E+00  0.00000000000E+00  0.60003924137E+03  0.60003924137E+03  0.00000000000E+00 0.  1.
         22   -1    0    0    0    0 -0.00000000000E+00 -0.00000000000E+00 -0.16084400116E+04  0.16084400116E+04  0.00000000000E+00 0. -1.
        -24    2    1    2    0    0  0.70998850281E+02 -0.45776592790E+02 -0.15082846191E+04  0.15128600146E+04  0.81771622343E+02 0.  0.
         25    2    1    2    0    0 -0.75511368888E+02  0.11023461594E+03 -0.21752464395E+01  0.18304620996E+03  0.12509015110E+03 0.  0.
         24    2    1    2    0    0  0.45125186071E+01 -0.64458023154E+02  0.50205909534E+03  0.51257302842E+03  0.80576514439E+02 0.  0.
        -11    1    5    5    0    0  0.16170272037E+02 -0.55149288590E+02  0.49008600881E+03  0.49344423977E+03  0.00000000000E+00 0.  1.
         12    1    5    5    0    0 -0.11657753430E+02 -0.93087345648E+01  0.11973086525E+02  0.19128788649E+02  0.00000000000E+00 0. -1.
         13    1    3    3    0    0  0.84937215522E+01  0.39253809854E+01 -0.80526669875E+03  0.80532105898E+03  0.00000000000E+00 0. -1.
        -14    1    3    3    0    0  0.62505128729E+02 -0.49701973775E+02 -0.70301792036E+03  0.70753895558E+03  0.00000000000E+00 0.  1.
          5    1    4    4  501    0  0.13125653587E+02 -0.20553394469E+02 -0.35180060473E+01  0.24991470001E+02  0.41800000000E+01 0. -1.
         -5    1    4    4    0  501 -0.88637022475E+02  0.13078801041E+03  0.13427596078E+01  0.15805473996E+03  0.41800000000E+01 0. -1.
</event>
<event>
11    1  0.1078607E-008  0.1433445E+03  0.7561462E-02  0.1103880E+00
         22   -1    0    0    0    0  0.00000000000E+00  0.00000000000E+00  0.17734409509E+03  0.17734409509E+03  0.00000000000E+00 0. -1.
         22   -1    0    0    0    0 -0.00000000000E+00 -0.00000000000E+00 -0.49551910742E+03  0.49551910742E+03  0.00000000000E+00 0.  1.
         24    2    1    2    0    0  0.92837329818E+01 -0.48740020916E+02 -0.33114014695E+03  0.34447255845E+03  0.80905928509E+02 0.  0.
         25    2    1    2    0    0 -0.38702087131E+02  0.10486231539E+03 -0.83991237255E+02  0.18760984796E+03  0.12509584477E+03 0.  0.
        -24    2    1    2    0    0  0.29418354149E+02 -0.56122294470E+02  0.96956371880E+02  0.14078079610E+03  0.80022140711E+02 0.  0.
        -13    1    3    3    0    0 -0.18581893271E+02 -0.59924981414E+02 -0.18719826827E+03  0.19743222077E+03  0.00000000000E+00 0.  1.
         14    1    3    3    0    0  0.27865626253E+02  0.11184960498E+02 -0.14394187868E+03  0.14704033768E+03  0.00000000000E+00 0. -1.
         11    1    5    5    0    0 -0.19167210281E+02 -0.17766540217E+02  0.67191958425E+02  0.72095708460E+02  0.00000000000E+00 0. -1.
        -12    1    5    5    0    0  0.48585564431E+02 -0.38355754253E+02  0.29764413454E+02  0.68685087636E+02  0.00000000000E+00 0.  1.
          5    1    4    4  501    0 -0.56848510611E+02 -0.39963535186E+01 -0.24585798231E+02  0.62206574209E+02  0.41800000000E+01 0. -1.
         -5    1    4    4    0  501  0.18146423480E+02  0.10885866890E+03 -0.59405439024E+02  0.12540327375E+03  0.41800000000E+01 0. -1.
</event>
<event>
11    1  0.1078607E-008  0.2558174E+03  0.7561462E-02  0.1020845E+00
         22   -1    0    0    0    0  0.00000000000E+00  0.00000000000E+00  0.40785141717E+03  0.40785141717E+03  0.00000000000E+00 0.  1.
         22   -1    0    0    0    0 -0.00000000000E+00 -0.00000000000E+00 -0.74312106150E+03  0.74312106150E+03  0.00000000000E+00 0.  1.
         24    2    1    2    0    0  0.56300790098E+02  0.31322100295E+02 -0.53373103886E+03  0.54337481274E+03  0.78971592046E+02 0.  0.
         25    2    1    2    0    0 -0.25251597440E+03 -0.10110435952E+03 -0.13568698135E+02  0.29968822391E+03  0.12507003295E+03 0.  0.
        -24    2    1    2    0    0  0.19621518430E+03  0.69782259229E+02  0.21203009266E+03  0.30790944202E+03  0.80507776264E+02 0.  0.
        -13    1    3    3    0    0  0.42057167230E+02 -0.21401884532E+02 -0.23458587346E+03  0.23928513954E+03  0.00000000000E+00 0.  1.
         14    1    3    3    0    0  0.14243622868E+02  0.52723984828E+02 -0.29914516540E+03  0.30408967320E+03  0.00000000000E+00 0. -1.
         13    1    5    5    0    0  0.42164236146E+02  0.31555627586E+02  0.10195223855E+03  0.11475120648E+03  0.00000000000E+00 0. -1.
        -14    1    5    5    0    0  0.15405094815E+03  0.38226631643E+02  0.11007785411E+03  0.19315823555E+03  0.00000000000E+00 0.  1.
          5    1    4    4  501    0 -0.20150845014E+03 -0.11755178585E+03 -0.44696761073E+02  0.23756967543E+03  0.41800000000E+01 0.  1.
         -5    1    4    4    0  501 -0.51007524261E+02  0.16447426321E+02  0.31128062939E+02  0.62118548487E+02  0.41800000000E+01 0.  1.
</event>
<event>
11    1  0.1078607E-008  0.1809573E+03  0.7561462E-02  0.1068871E+00
         22   -1    0    0    0    0  0.00000000000E+00  0.00000000000E+00  0.11471409990E+04  0.11471409990E+04  0.00000000000E+00 0. -1.
         22   -1    0    0    0    0 -0.00000000000E+00 -0.00000000000E+00 -0.11027898306E+03  0.11027898306E+03  0.00000000000E+00 0. -1.
         24    2    1    2    0    0 -0.20854300698E+02  0.12246003569E+03 -0.11058266429E+02  0.14781952733E+03  0.79353419619E+02 0.  0.
         25    2    1    2    0    0 -0.34829881645E+02 -0.18987514875E+03  0.52452093618E+03  0.57274401758E+03  0.12509118440E+03 0.  0.
        -24    2    1    2    0    0  0.55684182344E+02  0.67415113058E+02  0.52339934619E+03  0.53685643716E+03  0.81378331856E+02 0.  0.
        -13    1    3    3    0    0 -0.22464486053E+02  0.13993306390E+02  0.21999391178E+02  0.34415679124E+02  0.00000000000E+00 0.  1.
         14    1    3    3    0    0  0.16101853543E+01  0.10846672930E+03 -0.33057657607E+02  0.11340384821E+03  0.00000000000E+00 0. -1.
         11    1    5    5    0    0  0.66389009925E+02  0.34443667065E+02  0.24103802491E+03  0.25237511029E+03  0.00000000000E+00 0. -1.
        -12    1    5    5    0    0 -0.10704827581E+02  0.32971445993E+02  0.28236132128E+03  0.28448132687E+03  0.00000000000E+00 0.  1.
          5    1    4    4  501    0 -0.34753707409E+01  0.66282577944E+00  0.16103864478E+03  0.16113173199E+03  0.41800000000E+01 0. -1.
         -5    1    4    4    0  501 -0.31354510904E+02 -0.19053797453E+03  0.36348229139E+03  0.41161228559E+03  0.41800000000E+01 0. -1.
</event>
<event>
11    1  0.1078607E-008  0.1329181E+03  0.7561462E-02  0.1115735E+00
         22   -1    0    0    0    0  0.00000000000E+00  0.00000000000E+00  0.11133413792E+03  0.11133413792E+03  0.00000000000E+00 0. -1.
         22   -1    0    0    0    0 -0.00000000000E+00 -0.00000000000E+00 -0.74036397816E+03  0.74036397816E+03  0.00000000000E+00 0. -1.
        -24    2    1    2    0    0 -0.11340652726E+02  0.41832120586E+02 -0.60249135466E+03  0.60893321582E+03  0.76975919383E+02 0.  0.
         25    2    1    2    0    0 -0.29597329371E+02 -0.68922400268E+01 -0.57916552061E+02  0.14115617774E+03  0.12508890692E+03 0.  0.
         24    2    1    2    0    0  0.40937982097E+02 -0.34939880560E+02  0.31378066483E+02  0.10160872253E+03  0.80268523130E+02 0.  0.
        -13    1    5    5    0    0  0.33829021567E+02 -0.39678062237E+02 -0.15153808039E+02  0.54299072010E+02  0.00000000000E+00 0.  1.
         14    1    5    5    0    0  0.71089605298E+01  0.47381816777E+01  0.46531874522E+02  0.47309650516E+02  0.00000000000E+00 0. -1.
         11    1    3    3    0    0 -0.27517560782E+01  0.48331565389E+02 -0.59173242876E+03  0.59370933934E+03  0.00000000000E+00 0. -1.
        -12    1    3    3    0    0 -0.85888966478E+01 -0.64994448031E+01 -0.10758925903E+02  0.15223876476E+02  0.00000000000E+00 0.  1.
          5    1    4    4  501    0 -0.57408244525E+00 -0.42083116750E+02  0.23022580403E+02  0.48154230286E+02  0.41800000000E+01 0.  1.
         -5    1    4    4    0  501 -0.29023246926E+02  0.35190876723E+02 -0.80939132464E+02  0.93001947456E+02  0.41800000000E+01 0.  1.
</event>
<event>
11    1  0.1078607E-008  0.1357881E+03  0.7561462E-02  0.1112355E+00
         22   -1    0    0    0    0  0.00000000000E+00  0.00000000000E+00  0.12132149124E+04  0.12132149124E+04  0.00000000000E+00 0.  1.
         22   -1    0    0    0    0 -0.00000000000E+00 -0.00000000000E+00 -0.23451227651E+02  0.23451227651E+02  0.00000000000E+00 0.  1.
         24    2    1    2    0    0  0.52027222141E+02  0.10385557904E+02  0.37774125566E+03  0.38989526328E+03  0.80716593346E+02 0.  0.
         25    2    1    2    0    0 -0.50191961663E+02  0.38098475558E+02  0.38905004315E+03  0.41349417084E+03  0.12508703526E+03 0.  0.
        -24    2    1    2    0    0 -0.18352604782E+01 -0.48484033462E+02  0.42297238590E+03  0.43327670590E+03  0.80430062506E+02 0.  0.
        -13    1    3    3    0    0 -0.81842254314E+01  0.29465417399E+02  0.82803705296E+02  0.88270300663E+02  0.00000000000E+00 0.  1.
         14    1    3    3    0    0  0.60211447572E+02 -0.19079859495E+02  0.29493755037E+03  0.30162496261E+03  0.00000000000E+00 0. -1.
         11    1    5    5    0    0 -0.16044090224E+02  0.10882338602E+02  0.23147462863E+03  0.23228504434E+03  0.00000000000E+00 0. -1.
        -12    1    5    5    0    0  0.14208829745E+02 -0.59366372064E+02  0.19149775727E+03  0.20099166155E+03  0.00000000000E+00 0.  1.
          5    1    4    4  501    0  0.32149043489E+02 -0.15467997540E+01  0.20931419756E+03  0.21181562569E+03  0.41800000000E+01 0. -1.
         -5    1    4    4    0  501 -0.82341005152E+02  0.39645275312E+02  0.17973584559E+03  0.20167854515E+03  0.41800000000E+01 0. -1.
</event>
<event>
11    1  0.1078607E-008  0.2253997E+03  0.7561462E-02  0.1037887E+00
         22   -1    0    0    0    0  0.00000000000E+00  0.00000000000E+00  0.91978747572E+03  0.91978747572E+03  0.00000000000E+00 0.  1.
         22   -1    0    0    0    0 -0.00000000000E+00 -0.00000000000E+00 -0.59535208647E+03  0.59535208647E+03  0.00000000000E+00 0.  1.
         24    2    1    2    0    0 -0.14310854593E+02 -0.28628345421E+02 -0.53740905248E+03  0.54570220664E+03  0.89207768289E+02 0.  0.
         25    2    1    2    0    0 -0.16146417031E+03  0.96098495942E+02  0.34133092809E+03  0.40921856250E+03  0.12508968865E+03 0.  0.
        -24    2    1    2    0    0  0.17577502490E+03 -0.67470150521E+02  0.52051351364E+03  0.56021879305E+03  0.86381118373E+02 0.  0.
        -11    1    3    3    0    0 -0.32863176783E+02  0.11148346502E+00 -0.45876538111E+03  0.45994094808E+03  0.00000000000E+00 0.  1.
         12    1    3    3    0    0  0.18552322190E+02 -0.28739828886E+02 -0.78643671379E+02  0.85761258567E+02  0.00000000000E+00 0. -1.
         13    1    5    5    0    0  0.75941918806E+02 -0.64238638305E+02  0.18362784031E+03  0.20883716485E+03  0.00000000000E+00 0. -1.
        -14    1    5    5    0    0  0.99833106093E+02 -0.32315122157E+01  0.33688567333E+03  0.35138162820E+03  0.00000000000E+00 0.  1.
          5    1    4    4  501    0 -0.12668357779E+02  0.44885274136E+02  0.17095579267E+03  0.17725273078E+03  0.41800000000E+01 0.  1.
         -5    1    4    4    0  501 -0.14879581253E+03  0.51213221806E+02  0.17037513543E+03  0.23196583172E+03  0.41800000000E+01 0.  1.
</event>
<event>
11    1  0.1078607E-008  0.2364220E+03  0.7561462E-02  0.1031392E+00
         22   -1    0    0    0    0  0.00000000000E+00  0.00000000000E+00  0.46373014068E+03  0.46373014068E+03  0.00000000000E+00 0. -1.
         22   -1    0    0    0    0 -0.00000000000E+00 -0.00000000000E+00 -0.51490812852E+03  0.51490812852E+03  0.00000000000E+00 0. -1.
        -24    2    1    2    0    0 -0.32249252916E+02 -0.83239813978E+02 -0.24660823978E+03  0.27449284058E+03  0.81005028595E+02 0.  0.
         25    2    1    2    0    0  0.17637721250E+03  0.20852747801E+03 -0.12253124297E+03  0.32442885116E+03  0.12509014266E+03 0.  0.
         24    2    1    2    0    0 -0.14412795958E+03 -0.12528766403E+03  0.31796149492E+03  0.37971657745E+03  0.81334491123E+02 0.  0.
        -13    1    5    5    0    0 -0.75049514593E+01  0.37116401016E+01 -0.20484119539E+01  0.86195452423E+01  0.00000000000E+00 0.  1.
         14    1    5    5    0    0 -0.13662300812E+03 -0.12899930414E+03  0.32000990687E+03  0.37109703220E+03  0.00000000000E+00 0. -1.
         13    1    3    3    0    0  0.11353203741E+02 -0.88508028356E+00 -0.10086402324E+03  0.10150482642E+03  0.00000000000E+00 0. -1.
        -14    1    3    3    0    0 -0.43602456657E+02 -0.82354733694E+02 -0.14574421654E+03  0.17298801416E+03  0.00000000000E+00 0.  1.
          5    1    4    4  501    0  0.10815147601E+03  0.83526084312E+02 -0.30594573995E+00  0.13671471949E+03  0.41800000000E+01 0. -1.
         -5    1    4    4    0  501  0.68225736488E+02  0.12500139370E+03 -0.12222529723E+03  0.18771413167E+03  0.41800000000E+01 0. -1.
</event>
<event>
11    1  0.1078607E-008  0.1299937E+03  0.7561462E-02  0.1119277E+00
         22   -1    0    0    0    0  0.00000000000E+00  0.00000000000E+00  0.52383748757E+03  0.52383748757E+03  0.00000000000E+00 0. -1.
         22   -1    0    0    0    0 -0.00000000000E+00 -0.00000000000E+00 -0.10782869125E+04  0.10782869125E+04  0.00000000000E+00 0. -1.
         24    2    1    2    0    0  0.11334597416E+02 -0.38640901074E+02 -0.84928393004E+03  0.85339306121E+03  0.73313919296E+02 0.  0.
         25    2    1    2    0    0 -0.95579756851E+01  0.73297409654E+02 -0.19927061981E+03  0.24661652664E+03  0.12508823337E+03 0.  0.
        -24    2    1    2    0    0 -0.17766217310E+01 -0.34656508580E+02  0.49410512491E+03  0.50211481224E+03  0.82311483010E+02 0.  0.
        -13    1    3    3    0    0 -0.83077213985E+01  0.38638884627E+01 -0.13600224461E+02  0.16398596717E+02  0.00000000000E+00 0.  1.
         14    1    3    3    0    0  0.19642318815E+02 -0.42504789537E+02 -0.83568370558E+03  0.83699446450E+03  0.00000000000E+00 0. -1.
         11    1    5    5    0    0 -0.83364778720E+00 -0.60690583593E+02  0.39531764796E+03  0.39995010276E+03  0.00000000000E+00 0. -1.
        -12    1    5    5    0    0 -0.94297394382E+00  0.26034075013E+02  0.98787476952E+02  0.10216470949E+03  0.00000000000E+00 0.  1.
          5    1    4    4  501    0 -0.25003510958E+02 -0.26366172625E+02 -0.93551119486E+02  0.10044717505E+03  0.41800000000E+01 0.  1.
         -5    1    4    4    0  501  0.15445535273E+02  0.99663582279E+02 -0.10571950033E+03  0.14616935158E+03  0.41800000000E+01 0.  1.
</event>
<event>
11    1  0.1078607E-008  0.1513280E+03  0.7561462E-02  0.1095530E+00
         22   -1    0    0    0    0  0.00000000000E+00  0.00000000000E+00  0.26096905541E+04  0.26096905541E+04  0.00000000000E+00 0.  1.
         22   -1    0    0    0    0 -0.00000000000E+00 -0.00000000000E+00 -0.48126964621E+03  0.48126964621E+03  0.00000000000E+00 0. -1.
         24    2    1    2    0    0  0.38231998544E-01  0.68809498197E+02 -0.43313941780E+03  0.44621649977E+03  0.82247558668E+02 0.  0.
         25    2    1    2    0    0  0.63165126308E+02 -0.12357961107E+03  0.17694542298E+03  0.25732910705E+03  0.12508730218E+03 0.  0.
        -24    2    1    2    0    0 -0.63203358307E+02  0.54770112873E+02  0.23846149028E+04  0.23874145935E+04  0.79785821205E+02 0.  0.
        -11    1    3    3    0    0  0.26931600610E+02  0.71260028530E+02 -0.25814852679E+03  0.26915416523E+03  0.00000000000E+00 0.  1.
         12    1    3    3    0    0 -0.26893368611E+02 -0.24505303331E+01 -0.17499089101E+03  0.17706233453E+03  0.00000000000E+00 0. -1.
         13    1    5    5    0    0 -0.21222152310E+02  0.73194767765E+01  0.16271029246E+04  0.16272577797E+04  0.00000000000E+00 0. -1.
        -14    1    5    5    0    0 -0.41981205997E+02  0.47450636096E+02  0.75751197815E+03  0.76015681379E+03  0.00000000000E+00 0.  1.
          5    1    4    4  501    0 -0.30225222695E+02 -0.14817274569E+02  0.72081694753E+02  0.79664037250E+02  0.41800000000E+01 0.  1.
         -5    1    4    4    0  501  0.93390349003E+02 -0.10876233650E+03  0.10486372823E+03  0.17766506980E+03  0.41800000000E+01 0.  1.
</event>
<event>
11    1  0.1078607E-008  0.1342709E+03  0.7561462E-02  0.1114130E+00
         22   -1    0    0    0    0  0.00000000000E+00  0.00000000000E+00  0.19574923054E+04  0.19574923054E+04  0.00000000000E+00 0. -1.
         22   -1    0    0    0    0 -0.00000000000E+00 -0.00000000000E+00 -0.11484886254E+04  0.11484886254E+04  0.00000000000E+00 0. -1.
        -24    2    1    2    0    0 -0.61913695074E+01 -0.32124436940E+02 -0.11288954839E+04  0.11323671252E+04  0.82340635234E+02 0.  0.
         25    2    1    2    0    0 -0.27597910970E+02  0.65362080279E+02  0.29653189715E+03  0.32956364038E+03  0.12508869177E+03 0.  0.
         24    2    1    2    0    0  0.33789280478E+02 -0.33237643339E+02  0.16413672667E+04  0.16440501653E+04  0.81043108166E+02 0.  0.
        -11    1    5    5    0    0 -0.35685285063E+01  0.28257570515E+01  0.46416026688E+01  0.65010594482E+01  0.00000000000E+00 0.  1.
         12    1    5    5    0    0  0.37357808984E+02 -0.36063400391E+02  0.16367256641E+04  0.16375491059E+04  0.00000000000E+00 0. -1.
         13    1    3    3    0    0 -0.12211355524E+02 -0.14718739414E+02 -0.10791870162E+04  0.10793564631E+04  0.00000000000E+00 0. -1.
        -14    1    3    3    0    0  0.60199860167E+01 -0.17405697525E+02 -0.49708467698E+02  0.53010662124E+02  0.00000000000E+00 0.  1.
          5    1    4    4  501    0  0.60551487253E+00  0.96867956289E+02  0.16546370940E+03  0.19177976726E+03  0.41800000000E+01 0. -1.
         -5    1    4    4    0  501 -0.28203425843E+02 -0.31505876010E+02  0.13106818775E+03  0.13778387312E+03  0.41800000000E+01 0. -1.
</event>
<event>
11    1  0.1078607E-008  0.1671896E+03  0.7561462E-02  0.1080504E+00
         22   -1    0    0    0    0  0.00000000000E+00  0.00000000000E+00  0.50647661463E+03  0.50647661463E+03  0.00000000000E+00 0. -1.
         22   -1    0    0    0    0 -0.00000000000E+00 -0.00000000000E+00 -0.68450083655E+03  0.68450083655E+03  0.00000000000E+00 0. -1.
         24    2    1    2    0    0 -0.23928270934E+02 -0.76087238316E+02 -0.19566476421E+03  0.22596433949E+03  0.80083411392E+02 0.  0.
         25    2    1    2    0    0  0.99207251860E+02  0.15528215770E+03 -0.43590659765E+03  0.48950641500E+03  0.12508933260E+03 0.  0.
        -24    2    1    2    0    0 -0.75278980925E+02 -0.79194919384E+02  0.45354713995E+03  0.47550669668E+03  0.91993750943E+02 0.  0.
        -13    1    3    3    0    0 -0.25960560703E+01 -0.16427808229E+02 -0.14189103356E+03  0.14286244361E+03  0.00000000000E+00 0.  1.
         14    1    3    3    0    0 -0.21332214864E+02 -0.59659430086E+02 -0.53773730653E+02  0.83101895872E+02  0.00000000000E+00 0. -1.
         13    1    5    5    0    0 -0.52812351785E+02 -0.23780391145E+02  0.35896802782E+03  0.36361063860E+03  0.00000000000E+00 0. -1.
        -14    1    5    5    0    0 -0.22466629140E+02 -0.55414528239E+02  0.94579112128E+02  0.11189605809E+03  0.00000000000E+00 0.  1.
          5    1    4    4  501    0 -0.29253465095E+02  0.19813516209E+02 -0.81028964600E+02  0.88495797351E+02  0.41800000000E+01 0. -1.
         -5    1    4    4    0  501  0.12846071695E+03  0.13546864149E+03 -0.35487763305E+03  0.40101061765E+03  0.41800000000E+01 0. -1.
</event>
<event>
11    1  0.1078607E-008  0.5934485E+03  0.7561462E-02  0.9205977E-01
         22   -1    0    0    0    0  0.00000000000E+00  0.00000000000E+00  0.20094426088E+03  0.20094426088E+03  0.00000000000E+00 0.  1.
         22   -1    0    0    0    0 -0.00000000000E+00 -0.00000000000E+00 -0.33061278327E+04  0.33061278327E+04  0.00000000000E+00 0.  1.
        -24    2    1    2    0    0  0.53205547885E+03 -0.31491781685E+03 -0.21661332227E+04  0.22541149253E+04  0.81514994398E+02 0.  0.
         25    2    1    2    0    0 -0.44791153548E+03  0.26592802930E+03 -0.98289140954E+03  0.11194060873E+04  0.12510797313E+03 0.  0.
         24    2    1    2    0    0 -0.84143943371E+02  0.48989787548E+02  0.43841060396E+02  0.13355108094E+03  0.80210037735E+02 0.  0.
        -11    1    5    5    0    0 -0.40205344701E+02  0.66569406304E+02  0.18796547901E+02  0.80007910929E+02  0.00000000000E+00 0.  1.
         12    1    5    5    0    0 -0.43938598670E+02 -0.17579618756E+02  0.25044512495E+02  0.53543170011E+02  0.00000000000E+00 0. -1.
         13    1    3    3    0    0  0.16959612273E+03 -0.62515147124E+02 -0.69383289387E+03  0.71699028800E+03  0.00000000000E+00 0. -1.
        -14    1    3    3    0    0  0.36245935612E+03 -0.25240266973E+03 -0.14723003288E+04  0.15371246374E+04  0.00000000000E+00 0.  1.
          5    1    4    4  501    0 -0.80984887661E+01  0.22157253115E+01 -0.83931147580E+02  0.84453566491E+02  0.41800000000E+01 0. -1.
         -5    1    4    4    0  501 -0.43981304671E+03  0.26371230399E+03 -0.89896026196E+03  0.10349525208E+04  0.41800000000E+01 0. -1.
</event>
<event>
11    1  0.1078607E-008  0.6054982E+03  0.7561462E-02  0.9184474E-01
         22   -1    0    0    0    0  0.00000000000E+00  0.00000000000E+00  0.10525975370E+04  0.10525975370E+04  0.00000000000E+00 0. -1.
         22   -1    0    0    0    0 -0.00000000000E+00 -0.00000000000E+00 -0.66842824860E+03  0.66842824860E+03  0.00000000000E+00 0. -1.
         24    2    1    2    0    0 -0.21078408142E+02  0.25408337433E+02 -0.31457470796E+03  0.32893524934E+03  0.90284375563E+02 0.  0.
         25    2    1    2    0    0  0.59639645882E+03 -0.10335565642E+03  0.35519070150E+03  0.71286603925E+03  0.12508568132E+03 0.  0.
        -24    2    1    2    0    0 -0.57531805068E+03  0.77947318991E+02  0.34355329489E+03  0.67922449705E+03  0.79059515444E+02 0.  0.
        -11    1    3    3    0    0 -0.28147607242E+01  0.24662726041E+01  0.59732634995E+01  0.70487768674E+01  0.00000000000E+00 0.  1.
         12    1    3    3    0    0 -0.18263647418E+02  0.22942064829E+02 -0.32054797146E+03  0.32188647247E+03  0.00000000000E+00 0. -1.
         11    1    5    5    0    0 -0.54500996674E+03  0.60366175527E+02  0.30633893235E+03  0.62811104151E+03  0.00000000000E+00 0. -1.
        -12    1    5    5    0    0 -0.30308083937E+02  0.17581143464E+02  0.37214362537E+02  0.51113455532E+02  0.00000000000E+00 0.  1.
          5    1    4    4  501    0  0.17993390645E+02 -0.29576036259E+02  0.17130079803E+02  0.38851204122E+02  0.41800000000E+01 0. -1.
         -5    1    4    4    0  501  0.57840306818E+03 -0.73779620165E+02  0.33806062170E+03  0.67401483513E+03  0.41800000000E+01 0. -1.
</event>
<event>
11    1  0.1078607E-008  0.1386108E+03  0.7561462E-02  0.1109120E+00
         22   -1    0    0    0    0  0.00000000000E+00  0.00000000000E+00  0.21326847160E+03  0.21326847160E+03  0.00000000000E+00 0.  1.
         22   -1    0    0    0    0 -0.00000000000E+00 -0.00000000000E+00 -0.18440539761E+04  0.18440539761E+04  0.00000000000E+00 0. -1.
         24    2    1    2    0    0  0.92544712619E+02  0.64431144717E+02 -0.17290462792E+04  0.17345379444E+04  0.79403706677E+02 0.  0.
         25    2    1    2    0    0 -0.22102919659E+02  0.12388054214E+02 -0.37963777946E+02  0.13315696060E+03  0.12509006665E+03 0.  0.
        -24    2    1    2    0    0 -0.70441792960E+02 -0.76819198931E+02  0.13622455265E+03  0.18962754272E+03  0.80859388414E+02 0.  0.
        -11    1    3    3    0    0  0.18725506726E+02  0.13251920025E+02 -0.85048924951E+02  0.88088464749E+02  0.00000000000E+00 0.  1.
         12    1    3    3    0    0  0.73819205893E+02  0.51179224693E+02 -0.16439973543E+04  0.16464494796E+04  0.00000000000E+00 0. -1.
         13    1    5    5    0    0 -0.82484489152E+02 -0.37162785492E+02  0.93624926498E+02  0.13019366512E+03  0.00000000000E+00 0. -1.
        -14    1    5    5    0    0  0.12042696191E+02 -0.39656413439E+02  0.42599626152E+02  0.59433877601E+02  0.00000000000E+00 0.  1.
          5    1    4    4  501    0 -0.23330470880E+01 -0.53233068906E+02 -0.36048547316E+02  0.64468386806E+02  0.41800000000E+01 0. -1.
         -5    1    4    4    0  501 -0.19769872571E+02  0.65621123119E+02 -0.19152306298E+01  0.68688573790E+02  0.41800000000E+01 0. -1.
</event>
<event>
11    1  0.1078607E-008  0.1301519E+03  0.7561462E-02  0.1119082E+00
         22   -1    0    0    0    0  0.00000000000E+00  0.00000000000E+00  0.74146367657E+02  0.74146367657E+02  0.00000000000E+00 0.  1.
         22   -1    0    0    0    0 -0.00000000000E+00 -0.00000000000E+00 -0.13095790048E+04  0.13095790048E+04  0.00000000000E+00 0. -1.
         24    2    1    2    0    0  0.18645262361E+02  0.17516945275E+02 -0.77263954378E+03  0.77721917504E+03  0.80270120538E+02 0.  0.
         25    2    1    2    0    0 -0.23518335417E+02 -0.52022991147E+02 -0.49550224876E+03  0.51422522875E+03  0.12508238742E+03 0.  0.
        -24    2    1    2    0    0  0.48730730559E+01  0.34506045872E+02  0.32709155412E+02  0.92280968662E+02  0.78939687653E+02 0.  0.
        -13    1    3    3    0    0  0.23290839757E+02  0.47577698847E+02 -0.43538864709E+03  0.43859933271E+03  0.00000000000E+00 0.  1.
         14    1    3    3    0    0 -0.46455773962E+01 -0.30060753572E+02 -0.33725089670E+03  0.33861984233E+03  0.00000000000E+00 0. -1.
         11    1    5    5    0    0  0.37370985758E+02  0.17977263841E+02 -0.25664588130E+01  0.41549480172E+02  0.00000000000E+00 0. -1.
        -12    1    5    5    0    0 -0.32497912702E+02  0.16528782031E+02  0.35275614225E+02  0.50731488490E+02  0.00000000000E+00 0.  1.
          5    1    4    4  501    0  0.13435565051E+02 -0.75862857582E+02 -0.18277183348E+03  0.19839027971E+03  0.41800000000E+01 0. -1.
         -5    1    4    4    0  501 -0.36953900467E+02  0.23839866435E+02 -0.31273041528E+03  0.31583494904E+03  0.41800000000E+01 0. -1.
</event>
<event>
11    1  0.1078607E-008  0.1542664E+03  0.7561462E-02  0.1092597E+00
         22   -1    0    0    0    0  0.00000000000E+00  0.00000000000E+00  0.11557652351E+04  0.11557652351E+04  0.00000000000E+00 0.  1.
         22   -1    0    0    0    0 -0.00000000000E+00 -0.00000000000E+00 -0.41072097066E+03  0.41072097066E+03  0.00000000000E+00 0.  1.
         24    2    1    2    0    0 -0.13408269557E+02  0.42846666524E+02 -0.31661378868E+03  0.33025434386E+03  0.82510738278E+02 0.  0.
         25    2    1    2    0    0 -0.91810150264E+01 -0.12875373420E+03  0.12257762060E+02  0.18016350685E+03  0.12508725499E+03 0.  0.
        -24    2    1    2    0    0  0.22589284584E+02  0.85907067680E+02  0.10494002911E+04  0.10560683550E+04  0.78416194633E+02 0.  0.
        -13    1    3    3    0    0  0.40633501163E+01  0.21932132573E+02 -0.29399087557E+03  0.29483582580E+03  0.00000000000E+00 0.  1.
         14    1    3    3    0    0 -0.17471619673E+02  0.20914533952E+02 -0.22622913112E+02  0.35418518068E+02  0.00000000000E+00 0. -1.
         11    1    5    5    0    0 -0.12583929156E+02  0.47199405579E+02  0.23675408360E+03  0.24174084318E+03  0.00000000000E+00 0. -1.
        -12    1    5    5    0    0  0.35173213739E+02  0.38707662100E+02  0.81264620747E+03  0.81432751187E+03  0.00000000000E+00 0.  1.
          5    1    4    4  501    0  0.56721319364E+00 -0.14655669429E+03 -0.13346738045E+02  0.14722361967E+03  0.41800000000E+01 0.  1.
         -5    1    4    4    0  501 -0.97482282201E+01  0.17802960091E+02  0.25604500105E+02  0.32939887175E+02  0.41800000000E+01 0.  1.
</event>
<event>
11    1  0.1078607E-008  0.2399826E+03  0.7561462E-02  0.1029375E+00
         22   -1    0    0    0    0  0.00000000000E+00  0.00000000000E+00  0.36430617553E+04  0.36430617553E+04  0.00000000000E+00 0.  1.
         22   -1    0    0    0    0 -0.00000000000E+00 -0.00000000000E+00 -0.15147044562E+03  0.15147044562E+03  0.00000000000E+00 0.  1.
         24    2    1    2    0    0  0.20236076220E+02 -0.10013985382E+03 -0.68991739367E+02  0.14738872286E+03  0.80784196603E+02 0.  0.
         25    2    1    2    0    0  0.35350995787E+02  0.28891589508E+03  0.59639950109E+03  0.67532320244E+03  0.12508787120E+03 0.  0.
        -24    2    1    2    0    0 -0.55587072007E+02 -0.18877604126E+03  0.29641835480E+04  0.29718202756E+04  0.81273170713E+02 0.  0.
        -11    1    3    3    0    0  0.44890886324E+02 -0.39724542046E+02 -0.53446126506E+02  0.80310144778E+02  0.00000000000E+00 0.  1.
         12    1    3    3    0    0 -0.24654810103E+02 -0.60415311774E+02 -0.15545612861E+02  0.67078578080E+02  0.00000000000E+00 0. -1.
         13    1    5    5    0    0 -0.51620557519E+02 -0.44665420957E+02  0.10486035541E+04  0.10508230562E+04  0.00000000000E+00 0. -1.
        -14    1    5    5    0    0 -0.39665144877E+01 -0.14411062030E+03  0.19155799939E+04  0.19209972195E+04  0.00000000000E+00 0.  1.
          5    1    4    4  501    0  0.52073396442E+02  0.21643509337E+03  0.53249241480E+03  0.57716672849E+03  0.41800000000E+01 0. -1.
         -5    1    4    4    0  501 -0.16722400655E+02  0.72480801708E+02  0.63907086297E+02  0.98156473953E+02  0.41800000000E+01 0. -1.
</event>
<event>
11    1  0.1078607E-008  0.6460399E+03  0.7561462E-02  0.9115833E-01
         22   -1    0    0    0    0  0.00000000000E+00  0.00000000000E+00  0.15104487981E+04  0.15104487981E+04  0.00000000000E+00 0.  1.
         22   -1    0    0    0    0 -0.00000000000E+00 -0.00000000000E+00 -0.29012852856E+04  0.29012852856E+04  0.00000000000E+00 0. -1.
        -24    2    1    2    0    0  0.25741104491E+03 -0.44234436020E+03 -0.25494980619E+04  0.26014695631E+04  0.75990400457E+02 0.  0.
         25    2    1    2    0    0 -0.72930948055E+03  0.43388567204E+01  0.56933383404E+03  0.93364891909E+03  0.12509254746E+03 0.  0.
         24    2    1    2    0    0  0.47189843563E+03  0.43800550348E+03  0.58932774039E+03  0.87661560153E+03  0.81306657948E+02 0.  0.
        -13    1    5    5    0    0  0.35622780655E+03  0.27987818820E+03  0.40844373638E+03  0.60996420893E+03  0.00000000000E+00 0.  1.
         14    1    5    5    0    0  0.11567062909E+03  0.15812731528E+03  0.18088400401E+03  0.26665139260E+03  0.00000000000E+00 0. -1.
         13    1    3    3    0    0  0.11340883624E+03 -0.13504531614E+03 -0.77484089475E+03  0.79465540565E+03  0.00000000000E+00 0. -1.
        -14    1    3    3    0    0  0.14400220867E+03 -0.30729904406E+03 -0.17746571672E+04  0.18068141575E+04  0.00000000000E+00 0.  1.
          5    1    4    4  501    0 -0.23726475228E+03 -0.51098110769E+02  0.22051697600E+03  0.32794936911E+03  0.41800000000E+01 0.  1.
         -5    1    4    4    0  501 -0.49204472827E+03  0.55436967490E+02  0.34881685805E+03  0.60569954998E+03  0.41800000000E+01 0.  1.
</event>
<event>
11    1  0.1078607E-008  0.1543655E+03  0.7561462E-02  0.1092500E+00
         22   -1    0    0    0    0  0.00000000000E+00  0.00000000000E+00  0.76097568272E+02  0.76097568272E+02  0.00000000000E+00 0.  1.
         22   -1    0    0    0    0 -0.00000000000E+00 -0.00000000000E+00 -0.60683802402E+03  0.60683802402E+03  0.00000000000E+00 0. -1.
        -24    2    1    2    0    0 -0.10666896421E+03  0.28904592745E+02 -0.35146530612E+03  0.37706929266E+03  0.80247409015E+02 0.  0.
         25    2    1    2    0    0  0.49245406155E+02  0.11337420306E+02 -0.13027465750E+03  0.18754791045E+03  0.12509630371E+03 0.  0.
         24    2    1    2    0    0  0.57423558054E+02 -0.40242013051E+02 -0.49000492135E+02  0.11831838919E+03  0.81739270588E+02 0.  0.
        -13    1    5    5    0    0  0.43625714991E+02 -0.34192759240E+02  0.10953318773E+02  0.56500645882E+02  0.00000000000E+00 0.  1.
         14    1    5    5    0    0  0.13797843063E+02 -0.60492538107E+01 -0.59953810908E+02  0.61817743304E+02  0.00000000000E+00 0. -1.
         13    1    3    3    0    0 -0.42173796516E+02  0.20112092883E+02 -0.26366146980E+03  0.26776948304E+03  0.00000000000E+00 0. -1.
        -14    1    3    3    0    0 -0.64495167693E+02  0.87924998620E+01 -0.87803836322E+02  0.10929980962E+03  0.00000000000E+00 0.  1.
          5    1    4    4  501    0  0.89930355542E+02  0.21887806531E+02 -0.91290537679E+02  0.13006913390E+03  0.41800000000E+01 0. -1.
         -5    1    4    4    0  501 -0.40684949387E+02 -0.10550386225E+02 -0.38984119819E+02  0.57478776554E+02  0.41800000000E+01 0. -1.
</event>
<event>
11    1  0.1078607E-008  0.1321143E+03  0.7561462E-02  0.1116698E+00
         22   -1    0    0    0    0  0.00000000000E+00  0.00000000000E+00  0.32132210895E+03  0.32132210895E+03  0.00000000000E+00 0. -1.
         22   -1    0    0    0    0 -0.00000000000E+00 -0.00000000000E+00 -0.30779335947E+03  0.30779335947E+03  0.00000000000E+00 0.  1.
         24    2    1    2    0    0  0.45360611758E+02 -0.91593518070E+01 -0.24636498559E+03  0.26344048005E+03  0.81016674711E+02 0.  0.
         25    2    1    2    0    0 -0.43007104474E+01 -0.11500510062E+02  0.48558790558E+02  0.13474328022E+03  0.12508811927E+03 0.  0.
        -24    2    1    2    0    0 -0.41059901310E+02  0.20659861869E+02  0.21133494451E+03  0.23093170815E+03  0.80958320561E+02 0.  0.
        -11    1    3    3    0    0  0.62923340844E+02 -0.20824256934E+02 -0.13860156758E+03  0.15363395145E+03  0.00000000000E+00 0.  1.
         12    1    3    3    0    0 -0.17562729086E+02  0.11664905127E+02 -0.10776341800E+03  0.10980652861E+03  0.00000000000E+00 0. -1.
         13    1    5    5    0    0  0.49985468250E+01 -0.26622609213E+02  0.60954143303E+02  0.66701996803E+02  0.00000000000E+00 0. -1.
        -14    1    5    5    0    0 -0.46058448135E+02  0.47282471082E+02  0.15038080121E+03  0.16422971135E+03  0.00000000000E+00 0.  1.
          5    1    4    4  501    0  0.27623589941E+02 -0.32337656590E+02  0.76271143742E+02  0.87427378565E+02  0.41800000000E+01 0. -1.
         -5    1    4    4    0  501 -0.31924300388E+02  0.20837146528E+02 -0.27712353183E+02  0.47315901658E+02  0.41800000000E+01 0. -1.
</event>
<event>
11    1  0.1078607E-008  0.1892550E+03  0.7561462E-02  0.1062393E+00
         22   -1    0    0    0    0  0.00000000000E+00  0.00000000000E+00  0.17473340027E+04  0.17473340027E+04  0.00000000000E+00 0.  1.
         22   -1    0    0    0    0 -0.00000000000E+00 -0.00000000000E+00 -0.23030726363E+03  0.23030726363E+03  0.00000000000E+00 0. -1.
         24    2    1    2    0    0 -0.33147773167E+02  0.17357680568E+02 -0.10818918618E+03  0.14002646191E+03  0.80637746053E+02 0.  0.
         25    2    1    2    0    0 -0.94209596932E+02 -0.82061756481E+02 -0.25577282309E+02  0.17863765597E+03  0.12509050614E+03 0.  0.
        -24    2    1    2    0    0  0.12735737010E+03  0.64704075913E+02  0.16507932076E+04  0.16589771485E+04  0.81734006384E+02 0.  0.
        -13    1    3    3    0    0 -0.26619651194E+02 -0.85851417337E+01  0.62030174720E+00  0.27976691415E+02  0.00000000000E+00 0.  1.
         14    1    3    3    0    0 -0.65281219732E+01  0.25942822302E+02 -0.10880948793E+03  0.11204977050E+03  0.00000000000E+00 0. -1.
         13    1    5    5    0    0  0.31913079730E+02  0.24483996412E+01  0.12854987588E+03  0.13247456324E+03  0.00000000000E+00 0. -1.
        -14    1    5    5    0    0  0.95444290369E+02  0.62255676272E+02  0.15222433317E+04  0.15265025852E+04  0.00000000000E+00 0.  1.
          5    1    4    4  501    0 -0.20604720815E+02 -0.96424484691E+02  0.17662582805E+01  0.98705763946E+02  0.41800000000E+01 0. -1.
         -5    1    4    4    0  501 -0.73604876117E+02  0.14362728210E+02 -0.27343540590E+02  0.79931892019E+02  0.41800000000E+01 0. -1.
</event>
<event>
11    1  0.1078607E-008  0.1416611E+03  0.7561462E-02  0.1105718E+00
         22   -1    0    0    0    0  0.00000000000E+00  0.00000000000E+00  0.22916790104E+04  0.22916790104E+04  0.00000000000E+00 0. -1.
         22   -1    0    0    0    0 -0.00000000000E+00 -0.00000000000E+00 -0.40760306350E+03  0.40760306350E+03  0.00000000000E+00 0. -1.
         24    2    1    2    0    0  0.90763267495E+01  0.65862121914E+02 -0.36991329705E+03  0.38855983647E+03  0.98603754359E+02 0.  0.
         25    2    1    2    0    0  0.13933730856E+02 -0.68656536229E+02  0.15901721054E+03  0.21411015951E+03  0.12509523705E+03 0.  0.
        -24    2    1    2    0    0 -0.23010057606E+02  0.27944143149E+01  0.20949720335E+04  0.20966120780E+04  0.79605985670E+02 0.  0.
        -13    1    3    3    0    0 -0.24948185219E+02 -0.96760563565E+01 -0.38085532593E+02  0.46546168534E+02  0.00000000000E+00 0.  1.
         14    1    3    3    0    0  0.34024511968E+02  0.75538178271E+02 -0.33182776446E+03  0.34201366794E+03  0.00000000000E+00 0. -1.
         13    1    5    5    0    0 -0.11483232633E+02  0.32272502297E+02  0.17093698268E+04  0.17097130122E+04  0.00000000000E+00 0. -1.
        -14    1    5    5    0    0 -0.11526824973E+02 -0.29478087983E+02  0.38560220662E+03  0.38689906580E+03  0.00000000000E+00 0.  1.
          5    1    4    4  501    0  0.28303927090E+02 -0.69221735089E+02  0.24565638686E+02  0.78827050570E+02  0.41800000000E+01 0.  1.
         -5    1    4    4    0  501 -0.14370196234E+02  0.56519886018E+00  0.13445157185E+03  0.13528310894E+03  0.41800000000E+01 0.  1.
</event>
<event>
11    1  0.1078607E-008  0.2608047E+03  0.7561462E-02  0.1018296E+00
         22   -1    0    0    0    0  0.00000000000E+00  0.00000000000E+00  0.15697706528E+04  0.15697706528E+04  0.00000000000E+00 0.  1.
         22   -1    0    0    0    0 -0.00000000000E+00 -0.00000000000E+00 -0.31718766281E+04  0.31718766281E+04  0.00000000000E+00 0. -1.
         24    2    1    2    0    0  0.43992723674E+02  0.11063515727E+03 -0.28245461954E+04  0.28282046597E+04  0.80652894150E+02 0.  0.
         25    2    1    2    0    0 -0.26821409054E+03 -0.68340568696E+02 -0.26692617031E+03  0.40435930089E+03  0.12509049575E+03 0.  0.
        -24    2    1    2    0    0  0.22422136687E+03 -0.42294588575E+02  0.14893663903E+04  0.15090833204E+04  0.84001009592E+02 0.  0.
        -11    1    3    3    0    0  0.41979288771E+02  0.16847683784E+02 -0.12907786427E+04  0.12915709852E+04  0.00000000000E+00 0.  1.
         12    1    3    3    0    0  0.20134349038E+01  0.93787473486E+02 -0.15337675526E+04  0.15366336745E+04  0.00000000000E+00 0. -1.
         13    1    5    5    0    0  0.16951534591E+03 -0.23619072867E+02  0.84688345892E+03  0.86400515397E+03  0.00000000000E+00 0. -1.
        -14    1    5    5    0    0  0.54706020958E+02 -0.18675515708E+02  0.64248293143E+03  0.64507816642E+03  0.00000000000E+00 0.  1.
          5    1    4    4  501    0 -0.26955006973E+03 -0.83317263217E+02 -0.26740718833E+03  0.38874552500E+03  0.41800000000E+01 0. -1.
         -5    1    4    4    0  501  0.13359791866E+01  0.14976694522E+02  0.48101801896E+00  0.15613775889E+02  0.41800000000E+01 0. -1.
</event>
<event>
11    1  0.1078607E-008  0.1699257E+03  0.7561462E-02  0.1078096E+00
         22   -1    0    0    0    0  0.00000000000E+00  0.00000000000E+00  0.36758842094E+03  0.36758842094E+03  0.00000000000E+00 0. -1.
         22   -1    0    0    0    0 -0.00000000000E+00 -0.00000000000E+00 -0.58892269991E+03  0.58892269991E+03  0.00000000000E+00 0. -1.
        -24    2    1    2    0    0 -0.17232978348E+02  0.12040071401E+03 -0.38563478958E+03  0.41229452159E+03  0.80493938421E+02 0.  0.
         25    2    1    2    0    0  0.21249682371E+01 -0.98462041437E+02 -0.14996788284E+03  0.21871754512E+03  0.12509080529E+03 0.  0.
         24    2    1    2    0    0  0.15108010110E+02 -0.21938672576E+02  0.31426839345E+03  0.32549905414E+03  0.80470204434E+02 0.  0.
        -13    1    5    5    0    0  0.25220044497E+02  0.17150385728E+02  0.53161835585E+02  0.61289208984E+02  0.00000000000E+00 0.  1.
         14    1    5    5    0    0 -0.10112034387E+02 -0.39089058304E+02  0.26110655786E+03  0.26420984516E+03  0.00000000000E+00 0. -1.
         11    1    3    3    0    0 -0.38311816674E+02  0.22427668317E+02 -0.14445750756E+03  0.15112500486E+03  0.00000000000E+00 0. -1.
        -12    1    3    3    0    0  0.21078838327E+02  0.97973045696E+02 -0.24117728202E+03  0.26116951674E+03  0.00000000000E+00 0.  1.
          5    1    4    4  501    0  0.29734316387E+02 -0.32656592273E+02 -0.13960641943E+03  0.14648551920E+03  0.41800000000E+01 0.  1.
         -5    1    4    4    0  501 -0.27609348150E+02 -0.65805449165E+02 -0.10361463410E+02  0.72232025924E+02  0.41800000000E+01 0.  1.
</event>
<event>
11    1  0.1078607E-008  0.1943946E+03  0.7561462E-02  0.1058560E+00
         22   -1    0    0    0    0  0.00000000000E+00  0.00000000000E+00  0.66963993302E+03  0.66963993302E+03  0.00000000000E+00 0. -1.
         22   -1    0    0    0    0 -0.00000000000E+00 -0.00000000000E+00 -0.29891475006E+03  0.29891475006E+03  0.00000000000E+00 0.  1.
        -24    2    1    2    0    0  0.15411837553E+03  0.52371221851E+02 -0.18778199119E+03  0.25843589989E+03  0.70935319682E+02 0.  0.
         25    2    1    2    0    0 -0.11523385983E+03  0.85012921159E+01  0.32372088965E+02  0.17333878934E+03  0.12508904559E+03 0.  0.
         24    2    1    2    0    0 -0.38884515702E+02 -0.60872513967E+02  0.52613508520E+03  0.53677999386E+03  0.78084348088E+02 0.  0.
        -13    1    5    5    0    0 -0.31821720889E+02 -0.65582929670E+02  0.24740081086E+03  0.25791646670E+03  0.00000000000E+00 0.  1.
         14    1    5    5    0    0 -0.70627948132E+01  0.47104157029E+01  0.27873427434E+03  0.27886352716E+03  0.00000000000E+00 0. -1.
         13    1    3    3    0    0  0.69349503017E+02 -0.12592437141E+02 -0.67667879473E+02  0.97708059822E+02  0.00000000000E+00 0. -1.
        -14    1    3    3    0    0  0.84768872513E+02  0.64963658992E+02 -0.12011411172E+03  0.16072784006E+03  0.00000000000E+00 0.  1.
          5    1    4    4  501    0 -0.43095429681E+02 -0.21903243633E+02  0.70957803154E+02  0.85961912318E+02  0.41800000000E+01 0.  1.
         -5    1    4    4    0  501 -0.72138430148E+02  0.30404535748E+02 -0.38585714189E+02  0.87376877020E+02  0.41800000000E+01 0.  1.
</event>
<event>
11    1  0.1078607E-008  0.1407983E+03  0.7561462E-02  0.1106670E+00
         22   -1    0    0    0    0  0.00000000000E+00  0.00000000000E+00  0.44990288604E+03  0.44990288604E+03  0.00000000000E+00 0. -1.
         22   -1    0    0    0    0 -0.00000000000E+00 -0.00000000000E+00 -0.13441545229E+04  0.13441545229E+04  0.00000000000E+00 0.  1.
         24    2    1    2    0    0 -0.53150120682E+01  0.53139711930E+02 -0.12481429738E+04  0.12517516861E+04  0.78545033896E+02 0.  0.
         25    2    1    2    0    0  0.67545270480E+02 -0.33295340747E+02 -0.26419834270E+02  0.14837926276E+03  0.12508978654E+03 0.  0.
        -24    2    1    2    0    0 -0.62230258411E+02 -0.19844371182E+02  0.38031117114E+03  0.39392646011E+03  0.79215307546E+02 0.  0.
        -13    1    3    3    0    0  0.16226609297E+02 -0.90267647331E+00 -0.75709339663E+03  0.75726780527E+03  0.00000000000E+00 0.  1.
         14    1    3    3    0    0 -0.21541621365E+02  0.54042388403E+02 -0.49104957715E+03  0.49448388084E+03  0.00000000000E+00 0. -1.
         13    1    5    5    0    0 -0.62873307791E+02 -0.53097196967E+01  0.37170581422E+03  0.37702315351E+03  0.00000000000E+00 0. -1.
        -14    1    5    5    0    0  0.64304937939E+00 -0.14534651486E+02  0.86053569204E+01  0.16903306601E+02  0.00000000000E+00 0.  1.
          5    1    4    4  501    0 -0.34115619092E+02  0.21717096503E+01 -0.21326352534E+02  0.40507746188E+02  0.41800000000E+01 0. -1.
         -5    1    4    4    0  501  0.10166088957E+03 -0.35467050398E+02 -0.50934817362E+01  0.10787151658E+03  0.41800000000E+01 0. -1.
</event>
<event>
11    1  0.1078607E-008  0.3935076E+03  0.7561462E-02  0.9669111E-01
         22   -1    0    0    0    0  0.00000000000E+00  0.00000000000E+00  0.93072965678E+03  0.93072965678E+03  0.00000000000E+00 0.  1.
         22   -1    0    0    0    0 -0.00000000000E+00 -0.00000000000E+00 -0.26546981082E+04  0.26546981082E+04  0.00000000000E+00 0.  1.
        -24    2    1    2    0    0 -0.36031348506E+03 -0.52866744543E+01 -0.19736688283E+04  0.20079546389E+04  0.81605339709E+02 0.  0.
         25    2    1    2    0    0  0.43042204504E+03 -0.49065293216E+02 -0.58227242016E+03  0.73645039065E+03  0.12508983474E+03 0.  0.
         24    2    1    2    0    0 -0.70108559979E+02  0.54351967671E+02  0.83197279705E+03  0.84102273547E+03  0.85271096950E+02 0.  0.
        -13    1    5    5    0    0 -0.81928305746E+02  0.40078700313E+02  0.48160652230E+03  0.49016669799E+03  0.00000000000E+00 0.  1.
         14    1    5    5    0    0  0.11819745767E+02  0.14273267358E+02  0.35036627475E+03  0.35085603747E+03  0.00000000000E+00 0. -1.
         13    1    3    3    0    0 -0.52443849332E+00  0.52619929544E+01 -0.79190007143E+01  0.95222989818E+01  0.00000000000E+00 0. -1.
        -14    1    3    3    0    0 -0.35978904656E+03 -0.10548667409E+02 -0.19657498276E+04  0.19984323399E+04  0.00000000000E+00 0.  1.
          5    1    4    4  501    0  0.27604321647E+03 -0.65783022122E+02 -0.45202515093E+03  0.53373352231E+03  0.41800000000E+01 0.  1.
         -5    1    4    4    0  501  0.15437882856E+03  0.16717728905E+02 -0.13024726923E+03  0.20271686834E+03  0.41800000000E+01 0.  1.
</event>
<event>
11    1  0.1078607E-008  0.1382301E+03  0.7561462E-02  0.1109551E+00
         22   -1    0    0    0    0  0.00000000000E+00  0.00000000000E+00  0.32513128362E+03  0.32513128362E+03  0.00000000000E+00 0.  1.
         22   -1    0    0    0    0 -0.00000000000E+00 -0.00000000000E+00 -0.14006167598E+04  0.14006167598E+04  0.00000000000E+00 0. -1.
         24    2    1    2    0    0 -0.12968647725E+02  0.10758631061E+02 -0.12718492964E+04  0.12744370680E+04  0.79405753560E+02 0.  0.
         25    2    1    2    0    0  0.83538287569E+01 -0.68718430368E+02 -0.75698302579E+02  0.16177311269E+03  0.12509315669E+03 0.  0.
        -24    2    1    2    0    0  0.46148189682E+01  0.57959799307E+02  0.27206212275E+03  0.28953786273E+03  0.80210600468E+02 0.  0.
        -13    1    3    3    0    0  0.33655954516E+02  0.48945521116E+01 -0.49351056846E+03  0.49468107008E+03  0.00000000000E+00 0.  1.
         14    1    3    3    0    0 -0.46624602241E+02  0.58640789494E+01 -0.77833872791E+03  0.77975599794E+03  0.00000000000E+00 0. -1.
         13    1    5    5    0    0  0.10771193543E+02  0.63578862908E+02  0.11183718801E+03  0.12909627044E+03  0.00000000000E+00 0. -1.
        -14    1    5    5    0    0 -0.61563745753E+01 -0.56190636013E+01  0.16022493474E+03  0.16044159229E+03  0.00000000000E+00 0.  1.
          5    1    4    4  501    0  0.65404774879E+02 -0.22068182823E+02 -0.36992496980E+02  0.78426440075E+02  0.41800000000E+01 0.  1.
         -5    1    4    4    0  501 -0.57050946122E+02 -0.46650247545E+02 -0.38705805599E+02  0.83346672618E+02  0.41800000000E+01 0.  1.
</event>
<event>
11    1  0.1078607E-008  0.3556474E+03  0.7561462E-02  0.9790524E-01
         22   -1    0    0    0    0  0.00000000000E+00  0.00000000000E+00  0.67441175549E+03  0.67441175549E+03  0.00000000000E+00 0. -1.
         22   -1    0    0    0    0 -0.00000000000E+00 -0.00000000000E+00 -0.11929781380E+04  0.11929781380E+04  0.00000000000E+00 0.  1.
        -24    2    1    2    0    0 -0.31920388019E+03  0.24753466879E+02 -0.92637836409E+03  0.98338285765E+03  0.79756629879E+02 0.  0.
         25    2    1    2    0    0  0.45242546183E+03 -0.16057018119E+03  0.88532865410E+02  0.50394161842E+03  0.12508998728E+03 0.  0.
         24    2    1    2    0    0 -0.13322158164E+03  0.13581671431E+03  0.31927911616E+03  0.38006541743E+03  0.79475768701E+02 0.  0.
        -13    1    5    5    0    0  0.96907553290E+01  0.10522712539E+01  0.15409403520E+02  0.18233697663E+02  0.00000000000E+00 0.  1.
         14    1    5    5    0    0 -0.14291233697E+03  0.13476444305E+03  0.30386971264E+03  0.36183171977E+03  0.00000000000E+00 0. -1.
         11    1    3    3    0    0  0.41118106225E+01  0.39287622757E+01 -0.11444926025E+02  0.12780003573E+02  0.00000000000E+00 0. -1.
        -12    1    3    3    0    0 -0.32331569081E+03  0.20824704604E+02 -0.91493343806E+03  0.97060285407E+03  0.00000000000E+00 0.  1.
          5    1    4    4  501    0  0.21353604083E+03 -0.20810287595E+02  0.73151539908E+02  0.22671420113E+03  0.41800000000E+01 0.  1.
         -5    1    4    4    0  501  0.23888942100E+03 -0.13975989359E+03  0.15381325501E+02  0.27722741729E+03  0.41800000000E+01 0.  1.
</event>
<event>
11    1  0.1078607E-008  0.1555921E+03  0.7561462E-02  0.1091298E+00
         22   -1    0    0    0    0  0.00000000000E+00  0.00000000000E+00  0.44364745190E+03  0.44364745190E+03  0.00000000000E+00 0.  1.
         22   -1    0    0    0    0 -0.00000000000E+00 -0.00000000000E+00 -0.62790027833E+03  0.62790027833E+03  0.00000000000E+00 0.  1.
         24    2    1    2    0    0 -0.80376200740E+02 -0.49591213368E+02 -0.47960665399E+03  0.49537780127E+03  0.80355468705E+02 0.  0.
         25    2    1    2    0    0  0.85365006854E+02  0.16506408124E+02 -0.92494740359E+02  0.17822024698E+03  0.12509010167E+03 0.  0.
        -24    2    1    2    0    0 -0.49888061135E+01  0.33084805244E+02  0.38784856792E+03  0.39794968198E+03  0.82570849727E+02 0.  0.
        -13    1    3    3    0    0 -0.91202005933E+02 -0.28366390091E+02 -0.31830554518E+03  0.33232646308E+03  0.00000000000E+00 0.  1.
         14    1    3    3    0    0  0.10825805192E+02 -0.21224823278E+02 -0.16130110881E+03  0.16305133819E+03  0.00000000000E+00 0. -1.
         11    1    5    5    0    0  0.16775948098E+02  0.26250342417E+02  0.47297431897E+02  0.56635324451E+02  0.00000000000E+00 0. -1.
        -12    1    5    5    0    0 -0.21764754211E+02  0.68344628279E+01  0.34055113602E+03  0.34131435753E+03  0.00000000000E+00 0.  1.
          5    1    4    4  501    0 -0.27568371076E+02  0.27030036921E+02 -0.22952003915E+02  0.45109919790E+02  0.41800000000E+01 0.  1.
         -5    1    4    4    0  501  0.11293337793E+03 -0.10523628797E+02 -0.69542736444E+02  0.13311032719E+03  0.41800000000E+01 0.  1.
</event>
<event>
11    1  0.1078607E-008  0.1753583E+03  0.7561462E-02  0.1073461E+00
         22   -1    0    0    0    0  0.00000000000E+00  0.00000000000E+00  0.14912561304E+04  0.14912561304E+04  0.00000000000E+00 0. -1.
         22   -1    0    0    0    0 -0.00000000000E+00 -0.00000000000E+00 -0.14018597871E+03  0.14018597871E+03  0.00000000000E+00 0.  1.
        -24    2    1    2    0    0  0.13770943661E+02  0.12284605860E+03 -0.71611231875E+02  0.16366222862E+03  0.79852135492E+02 0.  0.
         25    2    1    2    0    0 -0.11170918535E+02 -0.11680776951E+03  0.32974806636E+03  0.37168832816E+03  0.12509828770E+03 0.  0.
         24    2    1    2    0    0 -0.26000251267E+01 -0.60382890823E+01  0.10929333172E+04  0.10960915523E+04  0.82886875616E+02 0.  0.
        -13    1    5    5    0    0  0.16691316825E+01 -0.38978751165E+02  0.30877064102E+03  0.31122570235E+03  0.00000000000E+00 0.  1.
         14    1    5    5    0    0 -0.42691568093E+01  0.32940462083E+02  0.78416267614E+03  0.78486584993E+03  0.00000000000E+00 0. -1.
         13    1    3    3    0    0  0.35520807000E+02  0.17503860615E+02 -0.19390215970E+02  0.44091873874E+02  0.00000000000E+00 0. -1.
        -14    1    3    3    0    0 -0.21749863338E+02  0.10534219798E+03 -0.52221015905E+02  0.11957035474E+03  0.00000000000E+00 0.  1.
          5    1    4    4  501    0 -0.37154037003E+01 -0.63788950218E+02  0.36792643613E+02  0.73851238436E+02  0.41800000000E+01 0. -1.
         -5    1    4    4    0  501 -0.74555148342E+01 -0.53018819297E+02  0.29295542274E+03  0.29783708973E+03  0.41800000000E+01 0. -1.
</event>
<event>
11    1  0.1078607E-008  0.2938555E+03  0.7561462E-02  0.1002826E+00
         22   -1    0    0    0    0  0.00000000000E+00  0.00000000000E+00  0.64764374678E+03  0.64764374678E+03  0.00000000000E+00 0.  1.
         22   -1    0    0    0    0 -0.00000000000E+00 -0.00000000000E+00 -0.89782329942E+03  0.89782329942E+03  0.00000000000E+00 0. -1.
         24    2    1    2    0    0  0.14111354236E+02  0.28629464651E+01 -0.74799907531E+03  0.75346617267E+03  0.89450153287E+02 0.  0.
         25    2    1    2    0    0 -0.16044539970E+03  0.21714179115E+03  0.11341651016E+03  0.31843832203E+03  0.12508547642E+03 0.  0.
        -24    2    1    2    0    0  0.14633404546E+03 -0.22000473762E+03  0.38440301250E+03  0.47356255150E+03  0.81731736363E+02 0.  0.
        -11    1    3    3    0    0 -0.36503736396E+02 -0.46249810152E+00 -0.41803683444E+03  0.41962784896E+03  0.00000000000E+00 0.  1.
         12    1    3    3    0    0  0.50615090632E+02  0.33254445666E+01 -0.32996224086E+03  0.33383832371E+03  0.00000000000E+00 0. -1.
         13    1    5    5    0    0  0.70573710545E+02 -0.15146708109E+03  0.18355046863E+03  0.24822107043E+03  0.00000000000E+00 0. -1.
        -14    1    5    5    0    0  0.75760334917E+02 -0.68537656529E+02  0.20085254388E+03  0.22534148107E+03  0.00000000000E+00 0.  1.
          5    1    4    4  501    0 -0.28718810956E+02  0.40320154076E+02 -0.27446277020E+02  0.56756104955E+02  0.41800000000E+01 0.  1.
         -5    1    4    4    0  501 -0.13172658874E+03  0.17682163708E+03  0.14086278718E+03  0.26168221708E+03  0.41800000000E+01 0.  1.
</event>
<event>
11    1  0.1078607E-008  0.1760356E+03  0.7561462E-02  0.1072895E+00
         22   -1    0    0    0    0  0.00000000000E+00  0.00000000000E+00  0.23974802473E+03  0.23974802473E+03  0.00000000000E+00 0.  1.
         22   -1    0    0    0    0 -0.00000000000E+00 -0.00000000000E+00 -0.11767454205E+04  0.11767454205E+04  0.00000000000E+00 0. -1.
         24    2    1    2    0    0 -0.16446970619E+02 -0.72975302546E+02 -0.95149275678E+03  0.95783320933E+03  0.80685147705E+02 0.  0.
         25    2    1    2    0    0  0.11950335519E+03  0.12968185139E+03 -0.13500209827E+03  0.25488647456E+03  0.12507243461E+03 0.  0.
        -24    2    1    2    0    0 -0.10305638457E+03 -0.56706548841E+02  0.14949745925E+03  0.20377376137E+03  0.73061648070E+02 0.  0.
        -11    1    3    3    0    0 -0.72546376171E+01  0.69049163546E+01 -0.15898870428E+02  0.18790468799E+02  0.00000000000E+00 0.  1.
         12    1    3    3    0    0 -0.91923330023E+01 -0.79880218900E+02 -0.93559388636E+03  0.93904274053E+03  0.00000000000E+00 0. -1.
         13    1    5    5    0    0 -0.17187861432E+02 -0.15987793479E+02 -0.34297902404E+01  0.23723313049E+02  0.00000000000E+00 0. -1.
        -14    1    5    5    0    0 -0.85868523136E+02 -0.40718755362E+02  0.15292724949E+03  0.18005044832E+03  0.00000000000E+00 0.  1.
          5    1    4    4  501    0  0.14302764467E+03  0.99959330343E+02 -0.12715951548E+03  0.21595321169E+03  0.41800000000E+01 0. -1.
         -5    1    4    4    0  501 -0.23524289484E+02  0.29722521044E+02 -0.78425827861E+01  0.38933262870E+02  0.41800000000E+01 0. -1.
</event>
<event>
11    1  0.1078607E-008  0.1468598E+03  0.7561462E-02  0.1100131E+00
         22   -1    0    0    0    0  0.00000000000E+00  0.00000000000E+00  0.35660373103E+03  0.35660373103E+03  0.00000000000E+00 0. -1.
         22   -1    0    0    0    0 -0.00000000000E+00 -0.00000000000E+00 -0.14542783103E+04  0.14542783103E+04  0.00000000000E+00 0.  1.
        -24    2    1    2    0    0  0.88663098014E+01 -0.76424796046E+02 -0.13934420276E+04  0.13978685948E+04  0.80228194822E+02 0.  0.
         25    2    1    2    0    0 -0.15587838374E+02  0.75659426314E+02  0.51560050538E+02  0.15580160693E+03  0.12509345473E+03 0.  0.
         24    2    1    2    0    0  0.67215285722E+01  0.76536973183E+00  0.24420739774E+03  0.25721183961E+03  0.80466841527E+02 0.  0.
        -11    1    5    5    0    0  0.37654309576E+02  0.19105265624E+02  0.99207972635E+02  0.10781966443E+03  0.00000000000E+00 0.  1.
         12    1    5    5    0    0 -0.30932781004E+02 -0.18339895892E+02  0.14499942511E+03  0.14939217518E+03  0.00000000000E+00 0. -1.
         11    1    3    3    0    0 -0.28956412943E+02 -0.14296612280E+02 -0.24403002357E+03  0.24615750928E+03  0.00000000000E+00 0. -1.
        -12    1    3    3    0    0  0.37822722745E+02 -0.62128183766E+02 -0.11494120040E+04  0.11517110855E+04  0.00000000000E+00 0.  1.
          5    1    4    4  501    0  0.16963961940E+01 -0.19943264689E+02  0.54815288513E+02  0.58504699139E+02  0.41800000000E+01 0.  1.
         -5    1    4    4    0  501 -0.17284234568E+02  0.95602691003E+02 -0.32552379753E+01  0.97296907792E+02  0.41800000000E+01 0.  1.
</event>
<event>
11    1  0.1078607E-008  0.1425829E+03  0.7561462E-02  0.1104708E+00
         22   -1    0    0    0    0  0.00000000000E+00  0.00000000000E+00  0.58825851561E+03  0.58825851561E+03  0.00000000000E+00 0. -1.
         22   -1    0    0    0    0 -0.00000000000E+00 -0.00000000000E+00 -0.16324459331E+04  0.16324459331E+04  0.00000000000E+00 0. -1.
        -24    2    1    2    0    0 -0.19130435898E+02  0.10412087819E+02 -0.15314216871E+04  0.15346703165E+04  0.97397183449E+02 0.  0.
         25    2    1    2    0    0  0.84146001318E+02 -0.27894362877E+02 -0.31861159499E+02  0.15659287688E+03  0.12509016982E+03 0.  0.
         24    2    1    2    0    0 -0.65015565419E+02  0.17482275058E+02  0.51909542911E+03  0.52944125537E+03  0.79469017098E+02 0.  0.
        -11    1    5    5    0    0  0.73091627045E+01  0.27120487178E+02  0.20890988700E+03  0.21078967140E+03  0.00000000000E+00 0.  1.
         12    1    5    5    0    0 -0.72324728124E+02 -0.96382121203E+01  0.31018554211E+03  0.31865158397E+03  0.00000000000E+00 0. -1.
         11    1    3    3    0    0 -0.14290580750E+02 -0.41836859061E+02 -0.89401021797E+03  0.89510268311E+03  0.00000000000E+00 0. -1.
        -12    1    3    3    0    0 -0.48398551480E+01  0.52248946880E+02 -0.63741146914E+03  0.63956763336E+03  0.00000000000E+00 0.  1.
          5    1    4    4  501    0  0.40136560009E+01 -0.44743043385E+02  0.29742020472E+02  0.54038037970E+02  0.41800000000E+01 0.  1.
         -5    1    4    4    0  501  0.80132345317E+02  0.16848680509E+02 -0.61603179971E+02  0.10255483891E+03  0.41800000000E+01 0.  1.
</event>
<event>
11    1  0.1078607E-008  0.1386662E+03  0.7561462E-02  0.1109057E+00
         22   -1    0    0    0    0  0.00000000000E+00  0.00000000000E+00  0.64784161377E+03  0.64784161377E+03  0.00000000000E+00 0. -1.
         22   -1    0    0    0    0 -0.00000000000E+00 -0.00000000000E+00 -0.36147267074E+03  0.36147267074E+03  0.00000000000E+00 0.  1.
        -24    2    1    2    0    0  0.36411075766E+00 -0.20617115204E+02 -0.26725124756E+03  0.28132547576E+03  0.85414260957E+02 0.  0.
         25    2    1    2    0    0 -0.23036717594E+02 -0.35772297976E+02 -0.30595644973E+02  0.13560303581E+03  0.12506695075E+03 0.  0.
         24    2    1    2    0    0  0.22672606836E+02  0.56389413180E+02  0.58421583555E+03  0.59238577294E+03  0.76934702525E+02 0.  0.
        -13    1    5    5    0    0 -0.13385252867E+02 -0.12349925250E+02  0.69350201793E+02  0.71701716414E+02  0.00000000000E+00 0.  1.
         14    1    5    5    0    0  0.36057859704E+02  0.68739338431E+02  0.51486563376E+03  0.52068405653E+03  0.00000000000E+00 0. -1.
         11    1    3    3    0    0 -0.20716475242E+02 -0.43099064535E+00 -0.11080839084E+02  0.23497725299E+02  0.00000000000E+00 0. -1.
        -12    1    3    3    0    0  0.21080586000E+02 -0.20186124559E+02 -0.25617040847E+03  0.25782775046E+03  0.00000000000E+00 0.  1.
          5    1    4    4  501    0  0.26246974191E+02 -0.26930738448E+02 -0.64647779023E+02  0.74906448722E+02  0.41800000000E+01 0. -1.
         -5    1    4    4    0  501 -0.49283691785E+02 -0.88415595281E+01  0.34052134050E+02  0.60696587089E+02  0.41800000000E+01 0. -1.
</event>
<event>
11    1  0.1078607E-008  0.2045708E+03  0.7561462E-02  0.1051338E+00
         22   -1    0    0    0    0  0.00000000000E+00  0.00000000000E+00  0.19095190693E+03  0.19095190693E+03  0.00000000000E+00 0.  1.
         22   -1    0    0    0    0 -0.00000000000E+00 -0.00000000000E+00 -0.56198835140E+03  0.56198835140E+03  0.00000000000E+00 0. -1.
        -24    2    1    2    0    0 -0.37003266973E+02  0.13435276137E+02 -0.30888056481E+03  0.32252423439E+03  0.84053138209E+02 0.  0.
         25    2    1    2    0    0  0.18862048366E+03 -0.13601799231E+00 -0.10880766679E+03  0.25112494007E+03  0.12508765653E+03 0.  0.
         24    2    1    2    0    0 -0.15161721669E+03 -0.13299258144E+02  0.46651787122E+02  0.17929108387E+03  0.82487895166E+02 0.  0.
        -13    1    5    5    0    0 -0.12580582136E+03 -0.12612342622E+02  0.53462259088E+00  0.12643758024E+03  0.00000000000E+00 0.  1.
         14    1    5    5    0    0 -0.25811395329E+02 -0.68691552224E+00  0.46117164531E+02  0.52853503632E+02  0.00000000000E+00 0. -1.
         13    1    3    3    0    0 -0.56069250052E+02 -0.13164373496E+02 -0.23048318130E+03  0.23757011258E+03  0.00000000000E+00 0. -1.
        -14    1    3    3    0    0  0.19065983079E+02  0.26599649633E+02 -0.78397383507E+02  0.84954121807E+02  0.00000000000E+00 0.  1.
          5    1    4    4  501    0  0.17581071871E+03 -0.31177547525E+01 -0.39253618794E+02  0.18021500547E+03  0.41800000000E+01 0. -1.
         -5    1    4    4    0  501  0.12809764950E+02  0.29817367602E+01 -0.69554047996E+02  0.70909934599E+02  0.41800000000E+01 0. -1.
</event>
<event>
11    1  0.1078607E-008  0.1553906E+03  0.7561462E-02  0.1091494E+00
         22   -1    0    0    0    0  0.00000000000E+00  0.00000000000E+00  0.50328260061E+03  0.50328260061E+03  0.00000000000E+00 0. -1.
         22   -1    0    0    0    0 -0.00000000000E+00 -0.00000000000E+00 -0.12619206055E+04  0.12619206055E+04  0.00000000000E+00 0. -1.
         24    2    1    2    0    0  0.14872075788E+02  0.37149445699E+02 -0.11180839180E+04  0.11216874245E+04  0.80434885280E+02 0.  0.
         25    2    1    2    0    0 -0.10529887823E+03 -0.47605945980E+02 -0.79342963109E+02  0.18787798058E+03  0.12509456401E+03 0.  0.
        -24    2    1    2    0    0  0.90426802438E+02  0.10456500281E+02  0.43878887614E+03  0.45563780104E+03  0.82363723318E+02 0.  0.
        -13    1    3    3    0    0  0.24010126237E+02  0.51098520333E+02 -0.46851514125E+03  0.47190463287E+03  0.00000000000E+00 0.  1.
         14    1    3    3    0    0 -0.91380504484E+01 -0.13949074634E+02 -0.64956877672E+03  0.64978279166E+03  0.00000000000E+00 0. -1.
         11    1    5    5    0    0  0.85410999369E+02 -0.17136136347E+02  0.38761173818E+03  0.39728018521E+03  0.00000000000E+00 0. -1.
        -12    1    5    5    0    0  0.50158030694E+01  0.27592636628E+02  0.51177137953E+02  0.58357615831E+02  0.00000000000E+00 0.  1.
          5    1    4    4  501    0 -0.11037990385E+03 -0.73514323660E+02 -0.88647407940E+02  0.15957416549E+03  0.41800000000E+01 0. -1.
         -5    1    4    4    0  501  0.50810256205E+01  0.25908377681E+02  0.93044448310E+01  0.28303815096E+02  0.41800000000E+01 0. -1.
</event>
<event>
11    1  0.1078607E-008  0.1960864E+03  0.7561462E-02  0.1057326E+00
         22   -1    0    0    0    0  0.00000000000E+00  0.00000000000E+00  0.56185672566E+03  0.56185672566E+03  0.00000000000E+00 0. -1.
         22   -1    0    0    0    0 -0.00000000000E+00 -0.00000000000E+00 -0.24871086539E+03  0.24871086539E+03  0.00000000000E+00 0. -1.
        -24    2    1    2    0    0  0.11330929822E+03 -0.97654818149E+02 -0.17206543978E+03  0.24106995726E+03  0.78311864708E+02 0.  0.
         25    2    1    2    0    0 -0.10475284732E+03  0.13726656045E+03  0.41818697599E+03  0.46940737894E+03  0.12509065864E+03 0.  0.
         24    2    1    2    0    0 -0.85564509063E+01 -0.39611742297E+02  0.67024324063E+02  0.10009025485E+03  0.62317703098E+02 0.  0.
        -11    1    5    5    0    0 -0.26961145833E+02 -0.14204765115E+01  0.94781707131E+01  0.28613927696E+02  0.00000000000E+00 0.  1.
         12    1    5    5    0    0  0.18404694926E+02 -0.38191265786E+02  0.57546153350E+02  0.71476327151E+02  0.00000000000E+00 0. -1.
         11    1    3    3    0    0  0.11475255482E+03 -0.10021325910E+03 -0.17809153795E+03  0.23436604282E+03  0.00000000000E+00 0. -1.
        -12    1    3    3    0    0 -0.14432566011E+01  0.25584409476E+01  0.60260981673E+01  0.67039144401E+01  0.00000000000E+00 0.  1.
          5    1    4    4  501    0 -0.96695277757E+02  0.70164794860E+02  0.14485243710E+03  0.18781047924E+03  0.41800000000E+01 0. -1.
         -5    1    4    4    0  501 -0.80575695591E+01  0.67101765586E+02  0.27333453889E+03  0.28159689970E+03  0.41800000000E+01 0. -1.
</event>
<event>
11    1  0.1078607E-008  0.1509705E+03  0.7561462E-02  0.1095891E+00
         22   -1    0    0    0    0  0.00000000000E+00  0.00000000000E+00  0.18976185178E+04  0.18976185178E+04  0.00000000000E+00 0.  1.
         22   -1    0    0    0    0 -0.00000000000E+00 -0.00000000000E+00 -0.34273721271E+03  0.34273721271E+03  0.00000000000E+00 0. -1.
        -24    2    1    2    0    0 -0.15767578138E+02  0.59764824071E+02 -0.28924886176E+03  0.30593982533E+03  0.78190932819E+02 0.  0.
         25    2    1    2    0    0  0.99437467656E+02 -0.51290927055E+02  0.11909927495E+03  0.20579647447E+03  0.12509589297E+03 0.  0.
         24    2    1    2    0    0 -0.83669889517E+02 -0.84738970157E+01  0.17250308919E+04  0.17286194307E+04  0.72945876605E+02 0.  0.
        -13    1    5    5    0    0 -0.40504360462E+02  0.31987803406E+02  0.71869539517E+03  0.72054624683E+03  0.00000000000E+00 0.  1.
         14    1    5    5    0    0 -0.43165529055E+02 -0.40461700421E+02  0.10063354967E+04  0.10080731839E+04  0.00000000000E+00 0. -1.
         11    1    3    3    0    0 -0.26126864977E+02  0.58193900791E+02 -0.28846378851E+03  0.29543273421E+03  0.00000000000E+00 0. -1.
        -12    1    3    3    0    0  0.10359286839E+02  0.15709232798E+01 -0.78507325493E+00  0.10507091119E+02  0.00000000000E+00 0.  1.
          5    1    4    4  501    0  0.10373388139E+03 -0.56809784029E+02  0.38010546496E+02  0.12429941173E+03  0.41800000000E+01 0. -1.
         -5    1    4    4    0  501 -0.42964137385E+01  0.55188569744E+01  0.81088728457E+02  0.81497062745E+02  0.41800000000E+01 0. -1.
</event>
<event>
11    1  0.1078607E-008  0.1840868E+03  0.7561462E-02  0.1066384E+00
         22   -1    0    0    0    0  0.00000000000E+00  0.00000000000E+00  0.62627223239E+03  0.62627223239E+03  0.00000000000E+00 0. -1.
         22   -1    0    0    0    0 -0.00000000000E+00 -0.00000000000E+00 -0.31411240491E+04  0.31411240491E+04  0.00000000000E+00 0.  1.
         24    2    1    2    0    0 -0.53372131571E+01 -0.51324276674E+02 -0.30522510931E+04  0.30542074460E+04  0.96352065445E+02 0.  0.
         25    2    1    2    0    0  0.87461185598E+02  0.15043745039E+03  0.78023015562E+02  0.22806329084E+03  0.12507752877E+03 0.  0.
        -24    2    1    2    0    0 -0.82123972441E+02 -0.99113173712E+02  0.45937626082E+03  0.48512554469E+03  0.88048151918E+02 0.  0.
        -13    1    3    3    0    0  0.16637583933E+02 -0.69018710307E+02 -0.26580759120E+04  0.26590238708E+04  0.00000000000E+00 0.  1.
         14    1    3    3    0    0 -0.21974797090E+02  0.17694433633E+02 -0.39417518107E+03  0.39518357514E+03  0.00000000000E+00 0. -1.
         11    1    5    5    0    0 -0.74579890763E+02 -0.79286481936E+02  0.44804005453E+03  0.46107309267E+03  0.00000000000E+00 0. -1.
        -12    1    5    5    0    0 -0.75440816781E+01 -0.19826691776E+02  0.11336206291E+02  0.24052452021E+02  0.00000000000E+00 0.  1.
          5    1    4    4  501    0  0.16344088608E+02  0.11463403867E+03 -0.90622067228E+00  0.11587228181E+03  0.41800000000E+01 0.  1.
         -5    1    4    4    0  501  0.71117096990E+02  0.35803411713E+02  0.78929236234E+02  0.11219100903E+03  0.41800000000E+01 0.  1.
</event>
<event>
11    1  0.1078607E-008  0.1401051E+03  0.7561462E-02  0.1107441E+00
         22   -1    0    0    0    0  0.00000000000E+00  0.00000000000E+00  0.17203149791E+03  0.17203149791E+03  0.00000000000E+00 0.  1.
         22   -1    0    0    0    0 -0.00000000000E+00 -0.00000000000E+00 -0.78745117005E+03  0.78745117005E+03  0.00000000000E+00 0. -1.
         24    2    1    2    0    0  0.19122944225E+02 -0.60962565212E+02 -0.57554940202E+03  0.58439729903E+03  0.78619129968E+02 0.  0.
         25    2    1    2    0    0 -0.66484630179E+02  0.36928810433E+02 -0.16346570940E+03  0.21943673499E+03  0.12508996532E+03 0.  0.
        -24    2    1    2    0    0  0.47361685954E+02  0.24033754779E+02  0.12359543928E+03  0.15564863393E+03  0.78293767101E+02 0.  0.
        -13    1    3    3    0    0 -0.16299958092E+01 -0.48561886251E+02 -0.14027376015E+03  0.14845080488E+03  0.00000000000E+00 0.  1.
         14    1    3    3    0    0  0.20752940034E+02 -0.12400678962E+02 -0.43527564187E+03  0.43594649416E+03  0.00000000000E+00 0. -1.
         11    1    5    5    0    0  0.10365444374E+02  0.58795601458E+01 -0.10177781625E+02  0.15671595432E+02  0.00000000000E+00 0. -1.
        -12    1    5    5    0    0  0.36996241581E+02  0.18154194633E+02  0.13377322091E+03  0.13997703850E+03  0.00000000000E+00 0.  1.
          5    1    4    4  501    0  0.85043194644E+01  0.17388017275E+02 -0.13551004388E+03  0.13694930079E+03  0.41800000000E+01 0.  1.
         -5    1    4    4    0  501 -0.74988949644E+02  0.19540793158E+02 -0.27955665517E+02  0.82487434197E+02  0.41800000000E+01 0.  1.
</event>
<event>
11    1  0.1078607E-008  0.1521333E+03  0.7561462E-02  0.1094719E+00
         22   -1    0    0    0    0  0.00000000000E+00  0.00000000000E+00  0.85486025504E+02  0.85486025504E+02  0.00000000000E+00 0. -1.
         22   -1    0    0    0    0 -0.00000000000E+00 -0.00000000000E+00 -0.19592667605E+04  0.19592667605E+04  0.00000000000E+00 0. -1.
        -24    2    1    2    0    0  0.31391396677E+02 -0.82420970243E+02 -0.14696908648E+04  0.14744674824E+04  0.79274728218E+02 0.  0.
         25    2    1    2    0    0 -0.14596859105E+02  0.78335750991E+02 -0.45201756991E+03  0.47572752785E+03  0.12508892463E+03 0.  0.
         24    2    1    2    0    0 -0.16794537572E+02  0.40852192513E+01  0.47927699634E+02  0.94557775811E+02  0.79657787225E+02 0.  0.
        -11    1    5    5    0    0 -0.57804709209E+01  0.19668410262E+02 -0.17157523846E+02  0.26732766988E+02  0.00000000000E+00 0.  1.
         12    1    5    5    0    0 -0.11014066651E+02 -0.15583191011E+02  0.65085223480E+02  0.67825008823E+02  0.00000000000E+00 0. -1.
         11    1    3    3    0    0  0.40793930286E+02 -0.85486134632E+02 -0.14411942036E+04  0.14443035541E+04  0.00000000000E+00 0. -1.
        -12    1    3    3    0    0 -0.94025336088E+01  0.30651643897E+01 -0.28496661165E+02  0.30163928268E+02  0.00000000000E+00 0.  1.
          5    1    4    4  501    0 -0.50037514898E+02  0.59701695201E+01 -0.29384398302E+03  0.29816296648E+03  0.41800000000E+01 0.  1.
         -5    1    4    4    0  501  0.35440655793E+02  0.72365581471E+02 -0.15817358688E+03  0.17756456137E+03  0.41800000000E+01 0.  1.
</event>
<event>
11    1  0.1078607E-008  0.1580947E+03  0.7561462E-02  0.1088883E+00
         22   -1    0    0    0    0  0.00000000000E+00  0.00000000000E+00  0.52714763396E+03  0.52714763396E+03  0.00000000000E+00 0.  1.
         22   -1    0    0    0    0 -0.00000000000E+00 -0.00000000000E+00 -0.10429332201E+04  0.10429332201E+04  0.00000000000E+00 0.  1.
        -24    2    1    2    0    0  0.61082574038E+02 -0.32809492674E+02 -0.95909397355E+03  0.96497791090E+03  0.80706720651E+02 0.  0.
         25    2    1    2    0    0 -0.13056063381E+03 -0.30022748827E+02  0.45887157652E+02  0.18895010672E+03  0.12509623114E+03 0.  0.
         24    2    1    2    0    0  0.69478059770E+02  0.62832241501E+02  0.39742122978E+03  0.41615283643E+03  0.80401853365E+02 0.  0.
        -13    1    5    5    0    0  0.60776073227E+02  0.37310196707E+02  0.37305377134E+03  0.37980902855E+03  0.00000000000E+00 0.  1.
         14    1    5    5    0    0  0.87019865425E+01  0.25522044794E+02  0.24367458437E+02  0.36343807876E+02  0.00000000000E+00 0. -1.
         13    1    3    3    0    0 -0.14085966378E+02  0.11971843855E+02 -0.13722542184E+03  0.13846499880E+03  0.00000000000E+00 0. -1.
        -14    1    3    3    0    0  0.75168540416E+02 -0.44781336529E+02 -0.82186855172E+03  0.82651291210E+03  0.00000000000E+00 0.  1.
          5    1    4    4  501    0 -0.63313175700E+02 -0.62165364240E+02  0.67122265657E+02  0.11133715317E+03  0.41800000000E+01 0.  1.
         -5    1    4    4    0  501 -0.67247458108E+02  0.32142615413E+02 -0.21235108004E+02  0.77612953555E+02  0.41800000000E+01 0.  1.
</event>
<event>
11    1  0.1078607E-008  0.1326844E+03  0.7561462E-02  0.1116014E+00
         22   -1    0    0    0    0  0.00000000000E+00  0.00000000000E+00  0.19841801545E+03  0.19841801545E+03  0.00000000000E+00 0. -1.
         22   -1    0    0    0    0 -0.00000000000E+00 -0.00000000000E+00 -0.46653849447E+03  0.46653849447E+03  0.00000000000E+00 0.  1.
         24    2    1    2    0    0  0.17897246035E+02  0.13749562340E+02 -0.37660985268E+03  0.38574091954E+03  0.80322562160E+02 0.  0.
         25    2    1    2    0    0 -0.47551182238E+02 -0.40319691656E+02  0.26742467661E+01  0.13978991599E+03  0.12508907446E+03 0.  0.
        -24    2    1    2    0    0  0.29653936203E+02  0.26570129316E+02  0.10581512689E+03  0.13942567439E+03  0.81592584809E+02 0.  0.
        -11    1    3    3    0    0  0.46433514359E+02  0.11147273235E+02 -0.30318830687E+03  0.30692585812E+03  0.00000000000E+00 0.  1.
         12    1    3    3    0    0 -0.28536268325E+02  0.26022891047E+01 -0.73421545810E+02  0.78815061426E+02  0.00000000000E+00 0. -1.
         11    1    5    5    0    0  0.28584071260E+01  0.53040702327E+02  0.62701682837E+02  0.82176563722E+02  0.00000000000E+00 0. -1.
        -12    1    5    5    0    0  0.26795529077E+02 -0.26470573010E+02  0.43113444054E+02  0.57249110667E+02  0.00000000000E+00 0.  1.
          5    1    4    4  501    0 -0.47618097243E+02  0.38089217373E+02  0.40835227990E+01  0.61256993263E+02  0.41800000000E+01 0.  1.
         -5    1    4    4    0  501  0.66915004979E-01 -0.78408909029E+02 -0.14092760329E+01  0.78532922725E+02  0.41800000000E+01 0.  1.
</event>
<event>
11    1  0.1078607E-008  0.1325252E+03  0.7561462E-02  0.1116205E+00
         22   -1    0    0    0    0  0.00000000000E+00  0.00000000000E+00  0.69999051054E+03  0.69999051054E+03  0.00000000000E+00 0.  1.
         22   -1    0    0    0    0 -0.00000000000E+00 -0.00000000000E+00 -0.15903461195E+03  0.15903461195E+03  0.00000000000E+00 0.  1.
         24    2    1    2    0    0  0.12889906669E+01  0.41944072017E+02 -0.90718210345E+02  0.12526900332E+03  0.75508693734E+02 0.  0.
         25    2    1    2    0    0 -0.80567240543E+01 -0.53488945439E+02  0.48028756982E+02  0.14450105555E+03  0.12509122859E+03 0.  0.
        -24    2    1    2    0    0  0.67677333874E+01  0.11544873422E+02  0.58364535195E+03  0.58925506363E+03  0.80003417667E+02 0.  0.
        -11    1    3    3    0    0  0.22952640317E+02  0.31117214470E+02 -0.85427249300E+01  0.39599026290E+02  0.00000000000E+00 0.  1.
         12    1    3    3    0    0 -0.21663649650E+02  0.10826857547E+02 -0.82175485415E+02  0.85669977026E+02  0.00000000000E+00 0. -1.
         11    1    5    5    0    0 -0.93559851841E+01  0.30355215717E+02  0.98874321938E+02  0.10385136070E+03  0.00000000000E+00 0. -1.
        -12    1    5    5    0    0  0.16123718572E+02 -0.18810342295E+02  0.48477103001E+03  0.48540370293E+03  0.00000000000E+00 0.  1.
          5    1    4    4  501    0 -0.45185835069E+02 -0.38832251040E+02  0.75200577310E+02  0.96032820637E+02  0.41800000000E+01 0.  1.
         -5    1    4    4    0  501  0.37129111014E+02 -0.14656694398E+02 -0.27171820328E+02  0.48468234911E+02  0.41800000000E+01 0.  1.
</event>
<event>
11    1  0.1078607E-008  0.1891511E+03  0.7561462E-02  0.1062472E+00
         22   -1    0    0    0    0  0.00000000000E+00  0.00000000000E+00  0.11893469254E+03  0.11893469254E+03  0.00000000000E+00 0. -1.
         22   -1    0    0    0    0 -0.00000000000E+00 -0.00000000000E+00 -0.21779103786E+04  0.21779103786E+04  0.00000000000E+00 0. -1.
         24    2    1    2    0    0  0.23208245807E+01  0.27467201079E+02 -0.15205499469E+04  0.15230359983E+04  0.82502591947E+02 0.  0.
         25    2    1    2    0    0 -0.54098370246E+02  0.10723733839E+03 -0.57894051260E+03  0.60435640111E+03  0.12509221406E+03 0.  0.
        -24    2    1    2    0    0  0.51777545665E+02 -0.13470453946E+03  0.40514773413E+02  0.16945267179E+03  0.79035017086E+02 0.  0.
        -11    1    3    3    0    0  0.86116122499E+01  0.33914702727E+02 -0.24821979039E+03  0.25067395411E+03  0.00000000000E+00 0.  1.
         12    1    3    3    0    0 -0.62907876693E+01 -0.64475016479E+01 -0.12723301565E+04  0.12723620441E+04  0.00000000000E+00 0. -1.
         11    1    5    5    0    0  0.49824790384E+02 -0.30473966616E+02  0.26956163769E+02  0.64325789099E+02  0.00000000000E+00 0. -1.
        -12    1    5    5    0    0  0.19527552814E+01 -0.10423057285E+03  0.13558609644E+02  0.10512688269E+03  0.00000000000E+00 0.  1.
          5    1    4    4  501    0 -0.25778151077E+02 -0.76433386902E+01 -0.22058990023E+02  0.35028633146E+02  0.41800000000E+01 0.  1.
         -5    1    4    4    0  501 -0.28320219169E+02  0.11488067708E+03 -0.55688152258E+03  0.56932776796E+03  0.41800000000E+01 0.  1.
</event>
<event>
11    1  0.1093329E-008  0.1598460E+03  0.7561462E-02  0.1087222E+00
         22   -1    0    0    0    0  0.00000000000E+00  0.00000000000E+00  0.92452684060E+03  0.92452684060E+03  0.00000000000E+00 0.  1.
         22   -1    0    0    0    0 -0.00000000000E+00 -0.00000000000E+00 -0.11608150694E+04  0.11608150694E+04  0.00000000000E+00 0.  1.
         24    2    1    2    0    0 -0.27363387017E+02  0.78484200648E+02 -0.73246908534E+03  0.74156276243E+03  0.80596804827E+02 0.  0.
         25    2    1    2    0    0  0.63123272903E+02 -0.17034868879E+03 -0.38998205206E+03  0.44803583706E+03  0.12508751741E+03 0.  0.
        -24    2    1    2    0    0 -0.35759885886E+02  0.91864488141E+02  0.88616290858E+03  0.89574331052E+03  0.85752692030E+02 0.  0.
        -13    1    3    3    0    0 -0.50266779688E+02  0.64187542436E+02 -0.64184861996E+03  0.64700575012E+03  0.00000000000E+00 0.  1.
         14    1    3    3    0    0  0.22903392671E+02  0.14296658213E+02 -0.90620465380E+02  0.94557012313E+02  0.00000000000E+00 0. -1.
         13    1    5    5    0    0 -0.69441824678E+01  0.65489345642E+02  0.25480341775E+03  0.26317647646E+03  0.00000000000E+00 0. -1.
        -14    1    5    5    0    0 -0.28815703418E+02  0.26375142499E+02  0.63135949082E+03  0.63256683406E+03  0.00000000000E+00 0.  1.
          5    1    4    4  501    0  0.59921190016E+02 -0.92206018194E+02 -0.10360495199E+03  0.15114217572E+03  0.41800000000E+01 0.  1.
         -5    1    4    4    0  501  0.32020828874E+01 -0.78142670595E+02 -0.28637710007E+03  0.29689366135E+03  0.41800000000E+01 0.  1.
</event>
<event>
11    1  0.1078607E-008  0.1476988E+03  0.7561462E-02  0.1099254E+00
         22   -1    0    0    0    0  0.00000000000E+00  0.00000000000E+00  0.59943310419E+03  0.59943310419E+03  0.00000000000E+00 0.  1.
         22   -1    0    0    0    0 -0.00000000000E+00 -0.00000000000E+00 -0.17030419439E+04  0.17030419439E+04  0.00000000000E+00 0. -1.
        -24    2    1    2    0    0  0.19163594275E+02 -0.76870275266E+02 -0.16254702978E+04  0.16292148748E+04  0.76883916499E+02 0.  0.
         25    2    1    2    0    0 -0.35378923882E+02  0.46931068636E+02 -0.55576450548E+01  0.13831870766E+03  0.12508790514E+03 0.  0.
         24    2    1    2    0    0  0.16215329607E+02  0.29939206630E+02  0.52741910309E+03  0.53494146569E+03  0.82656931935E+02 0.  0.
        -11    1    5    5    0    0  0.49739012128E+02  0.19154406509E+02  0.35318416929E+03  0.35718331155E+03  0.00000000000E+00 0.  1.
         12    1    5    5    0    0 -0.33523682521E+02  0.10784800121E+02  0.17423493381E+03  0.17775815414E+03  0.00000000000E+00 0. -1.
         13    1    3    3    0    0  0.39490340775E+02 -0.70675800491E+02 -0.96079001520E+03  0.96419500574E+03  0.00000000000E+00 0. -1.
        -14    1    3    3    0    0 -0.20326746501E+02 -0.61944747752E+01 -0.66468028259E+03  0.66501986903E+03  0.00000000000E+00 0.  1.
          5    1    4    4  501    0  0.56903612091E+01  0.65431855720E+02  0.37600983340E+02  0.75795872591E+02  0.41800000000E+01 0.  1.
         -5    1    4    4    0  501 -0.41069285091E+02 -0.18500787084E+02 -0.43158628395E+02  0.62522835073E+02  0.41800000000E+01 0.  1.
</event>
<event>
11    1  0.1078607E-008  0.1653643E+03  0.7561462E-02  0.1082138E+00
         22   -1    0    0    0    0  0.00000000000E+00  0.00000000000E+00  0.12905325023E+04  0.12905325023E+04  0.00000000000E+00 0. -1.
         22   -1    0    0    0    0 -0.00000000000E+00 -0.00000000000E+00 -0.19940618070E+03  0.19940618070E+03  0.00000000000E+00 0. -1.
         24    2    1    2    0    0 -0.19000619445E+02  0.10430385479E+03 -0.15295048795E+03  0.20247824422E+03  0.79770106909E+02 0.  0.
         25    2    1    2    0    0  0.64837931532E+02 -0.15075840426E+03  0.58571187915E+03  0.62099769299E+03  0.12509066912E+03 0.  0.
        -24    2    1    2    0    0 -0.45837312087E+02  0.46454549472E+02  0.65836493044E+03  0.66646274583E+03  0.80430874622E+02 0.  0.
        -11    1    3    3    0    0  0.20688397901E+01  0.50809161499E+02 -0.14986493687E+02  0.53013639597E+02  0.00000000000E+00 0.  1.
         12    1    3    3    0    0 -0.21069459235E+02  0.53494693287E+02 -0.13796399427E+03  0.14946460463E+03  0.00000000000E+00 0. -1.
         11    1    5    5    0    0 -0.41009435045E+02 -0.95538067440E+01  0.39042009017E+03  0.39268421893E+03  0.00000000000E+00 0. -1.
        -12    1    5    5    0    0 -0.48278770426E+01  0.56008356216E+02  0.26794484028E+03  0.27377852690E+03  0.00000000000E+00 0.  1.
          5    1    4    4  501    0 -0.36177601383E+02 -0.23773537871E+02  0.14302027957E+03  0.14948669745E+03  0.41800000000E+01 0. -1.
         -5    1    4    4    0  501  0.10101553291E+03 -0.12698486639E+03  0.44269159958E+03  0.47151099555E+03  0.41800000000E+01 0. -1.
</event>
<event>
11    1  0.1078607E-008  0.1329703E+03  0.7561462E-02  0.1115672E+00
         22   -1    0    0    0    0  0.00000000000E+00  0.00000000000E+00  0.19566233433E+04  0.19566233433E+04  0.00000000000E+00 0.  1.
         22   -1    0    0    0    0 -0.00000000000E+00 -0.00000000000E+00 -0.12362111903E+03  0.12362111903E+03  0.00000000000E+00 0.  1.
        -24    2    1    2    0    0  0.13321473589E+02  0.40293283469E+02 -0.50002998433E+02  0.10805425190E+03  0.85874391708E+02 0.  0.
         25    2    1    2    0    0 -0.55880336727E+02 -0.36047260334E+02  0.71764639584E+02  0.15880498201E+03  0.12508733672E+03 0.  0.
         24    2    1    2    0    0  0.42558863138E+02 -0.42460231348E+01  0.18112405831E+04  0.18133852284E+04  0.77098969873E+02 0.  0.
        -13    1    5    5    0    0  0.74993585290E+01 -0.16770818115E+02  0.14708531181E+04  0.14709678432E+04  0.00000000000E+00 0.  1.
         14    1    5    5    0    0  0.35059504609E+02  0.12524794980E+02  0.34038746506E+03  0.34241738525E+03  0.00000000000E+00 0. -1.
         11    1    3    3    0    0 -0.24196538211E+02 -0.20186701605E+01  0.94015001483E+01  0.26037198306E+02  0.00000000000E+00 0. -1.
        -12    1    3    3    0    0  0.37518011800E+02  0.42311953629E+02 -0.59404498581E+02  0.82017053598E+02  0.00000000000E+00 0.  1.
          5    1    4    4  501    0 -0.44997554633E+02  0.31360263764E+02  0.71734641393E+02  0.90396776724E+02  0.41800000000E+01 0. -1.
         -5    1    4    4    0  501 -0.10882782095E+02 -0.67407524098E+02  0.29998190170E-01  0.68408205290E+02  0.41800000000E+01 0. -1.
</event>
<event>
11    1  0.1078607E-008  0.1419657E+03  0.7561462E-02  0.1105383E+00
         22   -1    0    0    0    0  0.00000000000E+00  0.00000000000E+00  0.29206301799E+03  0.29206301799E+03  0.00000000000E+00 0.  1.
         22   -1    0    0    0    0 -0.00000000000E+00 -0.00000000000E+00 -0.19991951648E+04  0.19991951648E+04  0.00000000000E+00 0.  1.
         24    2    1    2    0    0  0.12439427008E+02 -0.31885930209E+02 -0.18351930507E+04  0.18372495041E+04  0.79879628790E+02 0.  0.
         25    2    1    2    0    0 -0.78761861684E+02  0.30330713733E+02 -0.11498459139E+03  0.18971544436E+03  0.12508841082E+03 0.  0.
        -24    2    1    2    0    0  0.66322434676E+02  0.15552164761E+01  0.24304549533E+03  0.26429323428E+03  0.79866869529E+02 0.  0.
        -13    1    3    3    0    0  0.70489026448E+01  0.24090628101E+02 -0.91194296278E+03  0.91228833861E+03  0.00000000000E+00 0.  1.
         14    1    3    3    0    0  0.53905243633E+01 -0.55976558310E+02 -0.92325008794E+03  0.92496116552E+03  0.00000000000E+00 0. -1.
         13    1    5    5    0    0  0.42734509287E+02 -0.28553825620E+02  0.68678505748E+02  0.85780512900E+02  0.00000000000E+00 0. -1.
        -14    1    5    5    0    0  0.23587925389E+02  0.30109042097E+02  0.17436698958E+03  0.17851272138E+03  0.00000000000E+00 0.  1.
          5    1    4    4  501    0  0.10817312504E+02 -0.36844543664E+02 -0.25027800469E+02  0.46026056141E+02  0.41800000000E+01 0. -1.
         -5    1    4    4    0  501 -0.89579174188E+02  0.67175257396E+02 -0.89956790919E+02  0.14368938822E+03  0.41800000000E+01 0. -1.
</event>
<event>
11    1  0.1078607E-008  0.1727472E+03  0.7561462E-02  0.1075665E+00
         22   -1    0    0    0    0  0.00000000000E+00  0.00000000000E+00  0.11798481054E+03  0.11798481054E+03  0.00000000000E+00 0. -1.
         22   -1    0    0    0    0 -0.00000000000E+00 -0.00000000000E+00 -0.11750459498E+04  0.11750459498E+04  0.00000000000E+00 0. -1.
         24    2    1    2    0    0 -0.35989514028E+02  0.33244751332E+02 -0.68092572335E+03  0.68742473452E+03  0.80575841887E+02 0.  0.
         25    2    1    2    0    0  0.86732628490E+02  0.76235337977E+02 -0.42088639208E+03  0.45401195264E+03  0.12508845871E+03 0.  0.
        -24    2    1    2    0    0 -0.50743114462E+02 -0.10948008931E+03  0.44750976129E+02  0.15159407322E+03  0.80108423726E+02 0.  0.
        -11    1    3    3    0    0 -0.10492884473E+02  0.40367506063E+02 -0.14590524236E+03  0.15174971472E+03  0.00000000000E+00 0.  1.
         12    1    3    3    0    0 -0.25496629554E+02 -0.71227547302E+01 -0.53502048099E+03  0.53567501979E+03  0.00000000000E+00 0. -1.
         11    1    5    5    0    0 -0.45010681346E+02 -0.12077164621E+03  0.49506086518E+02  0.13806739139E+03  0.00000000000E+00 0. -1.
        -12    1    5    5    0    0 -0.57324331161E+01  0.11291556899E+02 -0.47551103888E+01  0.13526681834E+02  0.00000000000E+00 0.  1.
          5    1    4    4  501    0  0.10076564602E+03  0.47763173388E+02 -0.40119354344E+03  0.41642378396E+03  0.41800000000E+01 0.  1.
         -5    1    4    4    0  501 -0.14033017526E+02  0.28472164589E+02 -0.19692848639E+02  0.37588168681E+02  0.41800000000E+01 0.  1.
</event>
<event>
11    1  0.1078607E-008  0.1284459E+03  0.7561462E-02  0.1121193E+00
         22   -1    0    0    0    0  0.00000000000E+00  0.00000000000E+00  0.42817103647E+03  0.42817103647E+03  0.00000000000E+00 0. -1.
         22   -1    0    0    0    0 -0.00000000000E+00 -0.00000000000E+00 -0.16695349498E+04  0.16695349498E+04  0.00000000000E+00 0. -1.
         24    2    1    2    0    0  0.45232703589E+01 -0.34255775948E+02 -0.15726548113E+04  0.15747186301E+04  0.72812705541E+02 0.  0.
         25    2    1    2    0    0  0.24491754154E+02  0.37079971146E+02 -0.42516454344E+02  0.13939633989E+03  0.12509564502E+03 0.  0.
        -24    2    1    2    0    0 -0.29015024513E+02 -0.28241951983E+01  0.37380735240E+03  0.38359101626E+03  0.80995575909E+02 0.  0.
        -13    1    3    3    0    0 -0.13996317018E+02  0.19264263201E+02 -0.42288183031E+03  0.42355171010E+03  0.00000000000E+00 0.  1.
         14    1    3    3    0    0  0.18519587377E+02 -0.53520039150E+02 -0.11497729810E+04  0.11511669200E+04  0.00000000000E+00 0. -1.
         11    1    5    5    0    0 -0.40360639896E+02 -0.32843805180E+02  0.18968936744E+03  0.19669710956E+03  0.00000000000E+00 0. -1.
        -12    1    5    5    0    0  0.11345615383E+02  0.30019609981E+02  0.18411798497E+03  0.18689390670E+03  0.00000000000E+00 0.  1.
          5    1    4    4  501    0 -0.50308494090E+02  0.70880959260E+01 -0.25184382097E+02  0.56858694877E+02  0.41800000000E+01 0.  1.
         -5    1    4    4    0  501  0.74800248244E+02  0.29991875221E+02 -0.17332072247E+02  0.82537645017E+02  0.41800000000E+01 0.  1.
</event>
<event>
11    1  0.1078607E-008  0.1341140E+03  0.7561462E-02  0.1114315E+00
         22   -1    0    0    0    0  0.00000000000E+00  0.00000000000E+00  0.30075904512E+03  0.30075904512E+03  0.00000000000E+00 0.  1.
         22   -1    0    0    0    0 -0.00000000000E+00 -0.00000000000E+00 -0.22221700807E+03  0.22221700807E+03  0.00000000000E+00 0.  1.
        -24    2    1    2    0    0 -0.39290224132E+02  0.25972583949E+02 -0.16298142231E+03  0.19245558654E+03  0.90873053994E+02 0.  0.
         25    2    1    2    0    0  0.48164785958E+02 -0.44286870776E+02  0.16468230494E+03  0.21690862766E+03  0.12509163706E+03 0.  0.
         24    2    1    2    0    0 -0.88745618256E+01  0.18314286828E+02  0.76841154410E+02  0.11361183899E+03  0.81172138058E+02 0.  0.
        -11    1    5    5    0    0 -0.17054693909E+02  0.40426000274E+02  0.13315340807E+02  0.45852179701E+02  0.00000000000E+00 0.  1.
         12    1    5    5    0    0  0.81801320839E+01 -0.22111713446E+02  0.63525813603E+02  0.67759659285E+02  0.00000000000E+00 0. -1.
         11    1    3    3    0    0 -0.83312098145E+01 -0.16509441949E+02 -0.12796531234E+03  0.12929459344E+03  0.00000000000E+00 0. -1.
        -12    1    3    3    0    0 -0.30959014318E+02  0.42482025897E+02 -0.35016109972E+02  0.63160993100E+02  0.00000000000E+00 0.  1.
          5    1    4    4  501    0  0.48261596831E+02  0.36125382146E+02  0.76635128813E+02  0.97594263828E+02  0.41800000000E+01 0. -1.
         -5    1    4    4    0  501 -0.96810873347E-01 -0.80412252922E+02  0.88047176132E+02  0.11931436383E+03  0.41800000000E+01 0. -1.
</event>
<event>
11    1  0.1078607E-008  0.1558144E+03  0.7561462E-02  0.1091081E+00
         22   -1    0    0    0    0  0.00000000000E+00  0.00000000000E+00  0.56271782452E+03  0.56271782452E+03  0.00000000000E+00 0.  1.
         22   -1    0    0    0    0 -0.00000000000E+00 -0.00000000000E+00 -0.94418077365E+02  0.94418077365E+02  0.00000000000E+00 0.  1.
        -24    2    1    2    0    0 -0.91268659305E+02  0.78219317570E+02  0.48423238405E+02  0.15083751810E+03  0.77194022031E+02 0.  0.
         25    2    1    2    0    0 -0.13841184596E+02 -0.68072794495E+02  0.16376690429E+03  0.21746699264E+03  0.12508721039E+03 0.  0.
         24    2    1    2    0    0  0.10510984390E+03 -0.10146523075E+02  0.25610960447E+03  0.28883139115E+03  0.81733786155E+02 0.  0.
        -11    1    5    5    0    0  0.10856203605E+03 -0.25274977250E+02  0.24662630589E+03  0.27064566301E+03  0.00000000000E+00 0.  1.
         12    1    5    5    0    0 -0.34521921454E+01  0.15128454176E+02  0.94832985732E+01  0.18185728145E+02  0.00000000000E+00 0. -1.
         13    1    3    3    0    0 -0.27997924048E+02  0.56817801220E+02 -0.74220415604E+01  0.63774861720E+02  0.00000000000E+00 0. -1.
        -14    1    3    3    0    0 -0.63270735258E+02  0.21401516350E+02  0.55845279965E+02  0.87062656383E+02  0.00000000000E+00 0.  1.
          5    1    4    4  501    0 -0.22328078890E+02 -0.65109978905E+02  0.18314667040E+03  0.19569881895E+03  0.41800000000E+01 0.  1.
         -5    1    4    4    0  501  0.84868942941E+01 -0.29628155902E+01 -0.19379766112E+02  0.21768173684E+02  0.41800000000E+01 0.  1.
</event>
<event>
11    1  0.1078607E-008  0.2168956E+03  0.7561462E-02  0.1043180E+00
         22   -1    0    0    0    0  0.00000000000E+00  0.00000000000E+00  0.46671120201E+03  0.46671120201E+03  0.00000000000E+00 0.  1.
         22   -1    0    0    0    0 -0.00000000000E+00 -0.00000000000E+00 -0.53628433590E+03  0.53628433590E+03  0.00000000000E+00 0. -1.
        -24    2    1    2    0    0  0.57350945163E+02 -0.19379009696E+03 -0.23142245893E+03  0.31757900658E+03  0.80351343054E+02 0.  0.
         25    2    1    2    0    0 -0.12372217546E+03  0.11078009359E+03 -0.20711124477E+03  0.29346704480E+03  0.12509369624E+03 0.  0.
         24    2    1    2    0    0  0.66371230297E+02  0.83010003370E+02  0.36896056982E+03  0.39194948653E+03  0.78719102132E+02 0.  0.
        -11    1    5    5    0    0  0.71120049372E+02  0.27352009081E+02  0.22346713741E+03  0.23610115486E+03  0.00000000000E+00 0.  1.
         12    1    5    5    0    0 -0.47488190750E+01  0.55657994290E+02  0.14549343240E+03  0.15584833167E+03  0.00000000000E+00 0. -1.
         11    1    3    3    0    0  0.51331092626E+02 -0.99380242272E+02 -0.74654942186E+02  0.13447926984E+03  0.00000000000E+00 0. -1.
        -12    1    3    3    0    0  0.60198525365E+01 -0.94409854690E+02 -0.15676751675E+03  0.18309973674E+03  0.00000000000E+00 0.  1.
          5    1    4    4  501    0 -0.93761224913E+01 -0.19716042463E+02 -0.66444565358E+02  0.70064161089E+02  0.41800000000E+01 0.  1.
         -5    1    4    4    0  501 -0.11434605297E+03  0.13049613605E+03 -0.14066667941E+03  0.22340288371E+03  0.41800000000E+01 0.  1.
</event>
<event>
11    1  0.1078607E-008  0.1304894E+03  0.7561462E-02  0.1118669E+00
         22   -1    0    0    0    0  0.00000000000E+00  0.00000000000E+00  0.22262361243E+03  0.22262361243E+03  0.00000000000E+00 0. -1.
         22   -1    0    0    0    0 -0.00000000000E+00 -0.00000000000E+00 -0.59230712195E+03  0.59230712195E+03  0.00000000000E+00 0.  1.
         24    2    1    2    0    0  0.97629520743E+01  0.36868406580E+02 -0.44327596555E+03  0.45577245512E+03  0.98895675207E+02 0.  0.
         25    2    1    2    0    0 -0.12078482381E+02 -0.30029378859E+02 -0.10332153479E+03  0.16544277681E+03  0.12509324329E+03 0.  0.
        -24    2    1    2    0    0  0.23155303064E+01 -0.68390277215E+01  0.17691399083E+03  0.19371550245E+03  0.78581179413E+02 0.  0.
        -13    1    3    3    0    0  0.24393415731E+02  0.34251564824E+02 -0.43798072940E+03  0.43999469060E+03  0.00000000000E+00 0.  1.
         14    1    3    3    0    0 -0.14630463657E+02  0.26168417558E+01 -0.52952361499E+01  0.15777764527E+02  0.00000000000E+00 0. -1.
         11    1    5    5    0    0 -0.25755463015E+02 -0.22257949810E+02  0.14329661650E+03  0.14728435255E+03  0.00000000000E+00 0. -1.
        -12    1    5    5    0    0  0.28070993321E+02  0.15418922089E+02  0.33617374322E+02  0.46431149897E+02  0.00000000000E+00 0.  1.
          5    1    4    4  501    0  0.50955663555E+02  0.13013706580E+02 -0.43351958203E+02  0.68283972404E+02  0.41800000000E+01 0.  1.
         -5    1    4    4    0  501 -0.63034145935E+02 -0.43043085439E+02 -0.59969576591E+02  0.97158804410E+02  0.41800000000E+01 0.  1.
</event>
<event>
11    1  0.1078607E-008  0.1335289E+03  0.7561462E-02  0.1115008E+00
         22   -1    0    0    0    0  0.00000000000E+00  0.00000000000E+00  0.13438576366E+04  0.13438576366E+04  0.00000000000E+00 0. -1.
         22   -1    0    0    0    0 -0.00000000000E+00 -0.00000000000E+00 -0.33574387263E+03  0.33574387263E+03  0.00000000000E+00 0.  1.
         24    2    1    2    0    0 -0.20482528163E+01  0.22617682966E+02 -0.27806769205E+03  0.29023291851E+03  0.79985940639E+02 0.  0.
         25    2    1    2    0    0  0.23080074779E+02 -0.63539211083E+02  0.51535767113E+02  0.15123785671E+03  0.12508810020E+03 0.  0.
        -24    2    1    2    0    0 -0.21031821962E+02  0.40921528117E+02  0.12346456889E+04  0.12381307340E+04  0.80627714681E+02 0.  0.
        -11    1    3    3    0    0  0.22166741193E+02  0.38005341990E+02 -0.23066740882E+03  0.23482594390E+03  0.00000000000E+00 0.  1.
         12    1    3    3    0    0 -0.24214994009E+02 -0.15387659024E+02 -0.47400283233E+02  0.55406974612E+02  0.00000000000E+00 0. -1.
         13    1    5    5    0    0 -0.51981012281E+02  0.26782464653E+02  0.82970031446E+03  0.83175834102E+03  0.00000000000E+00 0. -1.
        -14    1    5    5    0    0  0.30949190319E+02  0.14139063464E+02  0.40494537446E+03  0.40637239301E+03  0.00000000000E+00 0.  1.
          5    1    4    4  501    0 -0.17813676956E+02  0.28296451110E+02  0.36206195278E+02  0.49460865426E+02  0.41800000000E+01 0.  1.
         -5    1    4    4    0  501  0.40893751735E+02 -0.91835662193E+02  0.15329571835E+02  0.10177699128E+03  0.41800000000E+01 0.  1.
</event>
<event>
11    1  0.1078607E-008  0.2281669E+03  0.7561462E-02  0.1036219E+00
         22   -1    0    0    0    0  0.00000000000E+00  0.00000000000E+00  0.13116873323E+04  0.13116873323E+04  0.00000000000E+00 0.  1.
         22   -1    0    0    0    0 -0.00000000000E+00 -0.00000000000E+00 -0.42328553384E+03  0.42328553384E+03  0.00000000000E+00 0.  1.
         24    2    1    2    0    0  0.69569785713E+02 -0.25567715536E+02 -0.31359017092E+03  0.33273324235E+03  0.82939448410E+02 0.  0.
         25    2    1    2    0    0  0.46306827457E+02  0.17954673478E+03  0.47067117815E+02  0.22856937843E+03  0.12508914795E+03 0.  0.
        -24    2    1    2    0    0 -0.11587661317E+03 -0.15397901925E+03  0.11549248516E+04  0.11736702454E+04  0.80706283877E+02 0.  0.
        -13    1    3    3    0    0  0.55505723726E+02 -0.19283382827E+01 -0.79190090267E+02  0.96724734434E+02  0.00000000000E+00 0.  1.
         14    1    3    3    0    0  0.14064061987E+02 -0.23639377254E+02 -0.23440008065E+03  0.23600850791E+03  0.00000000000E+00 0. -1.
         11    1    5    5    0    0  0.39803623301E+00  0.16389508671E+01 -0.70410591505E+00  0.18276646102E+01  0.00000000000E+00 0. -1.
        -12    1    5    5    0    0 -0.11627464940E+03 -0.15561797011E+03  0.11556289575E+04  0.11718425808E+04  0.00000000000E+00 0.  1.
          5    1    4    4  501    0  0.73869752419E+02  0.17804446419E+03  0.53146764926E+02  0.19999655640E+03  0.41800000000E+01 0. -1.
         -5    1    4    4    0  501 -0.27562924962E+02  0.15022705952E+01 -0.60796471110E+01  0.28572822024E+02  0.41800000000E+01 0. -1.
</event>
<event>
11    1  0.1078607E-008  0.1269363E+03  0.7561462E-02  0.1123092E+00
         22   -1    0    0    0    0  0.00000000000E+00  0.00000000000E+00  0.54467405382E+03  0.54467405382E+03  0.00000000000E+00 0. -1.
         22   -1    0    0    0    0 -0.00000000000E+00 -0.00000000000E+00 -0.19388044091E+03  0.19388044091E+03  0.00000000000E+00 0.  1.
         24    2    1    2    0    0 -0.11537386413E+01  0.21694159348E+02 -0.15522074720E+03  0.17630162371E+03  0.80726789234E+02 0.  0.
         25    2    1    2    0    0  0.10574542366E+01 -0.19533399799E+02  0.14424426219E+03  0.19192564590E+03  0.12508546863E+03 0.  0.
        -24    2    1    2    0    0  0.96284404703E-01 -0.21607595493E+01  0.36177009792E+03  0.37032722513E+03  0.79119983351E+02 0.  0.
        -11    1    3    3    0    0  0.16504362851E+02  0.43340709243E+02 -0.13221408344E+03  0.14011200852E+03  0.00000000000E+00 0.  1.
         12    1    3    3    0    0 -0.17658101493E+02 -0.21646549895E+02 -0.23006663758E+02  0.36189615195E+02  0.00000000000E+00 0. -1.
         11    1    5    5    0    0  0.24217308477E+02 -0.52159872586E+00  0.32746002191E+03  0.32835471071E+03  0.00000000000E+00 0. -1.
        -12    1    5    5    0    0 -0.24121024072E+02 -0.16391608234E+01  0.34310076013E+02  0.41972514417E+02  0.00000000000E+00 0.  1.
          5    1    4    4  501    0  0.54637929220E+02  0.89689717729E+01  0.31559681118E+02  0.63868862808E+02  0.41800000000E+01 0.  1.
         -5    1    4    4    0  501 -0.53580474984E+02 -0.28502371572E+02  0.11268458107E+03  0.12805678309E+03  0.41800000000E+01 0.  1.
</event>
<event>
11    1  0.1078607E-008  0.1360001E+03  0.7561462E-02  0.1112109E+00
         22   -1    0    0    0    0  0.00000000000E+00  0.00000000000E+00  0.11251035383E+04  0.11251035383E+04  0.00000000000E+00 0. -1.
         22   -1    0    0    0    0 -0.00000000000E+00 -0.00000000000E+00 -0.49895008506E+02  0.49895008506E+02  0.00000000000E+00 0. -1.
        -24    2    1    2    0    0  0.58868726032E+02  0.33997947783E+01  0.57128924092E+02  0.12245293028E+03  0.90851090568E+02 0.  0.
         25    2    1    2    0    0 -0.30428077724E+02  0.47504017628E+02  0.33148757226E+03  0.35875243321E+03  0.12504718374E+03 0.  0.
         24    2    1    2    0    0 -0.28440648307E+02 -0.50903812406E+02  0.68659203344E+03  0.69379318332E+03  0.80872073328E+02 0.  0.
        -13    1    5    5    0    0 -0.95522299161E+01 -0.34956981233E+02  0.94879842532E+02  0.10156485688E+03  0.00000000000E+00 0.  1.
         14    1    5    5    0    0 -0.18888418391E+02 -0.15946831173E+02  0.59171219090E+03  0.59222832644E+03  0.00000000000E+00 0. -1.
         11    1    3    3    0    0  0.15805731404E+02  0.18814014504E+02 -0.20733203910E+02  0.32150490375E+02  0.00000000000E+00 0. -1.
        -12    1    3    3    0    0  0.43062994628E+02 -0.15414219726E+02  0.77862128002E+02  0.90302439906E+02  0.00000000000E+00 0.  1.
          5    1    4    4  501    0  0.20658939224E+02  0.67550439221E+02  0.25423396453E+03  0.26389815219E+03  0.41800000000E+01 0.  1.
         -5    1    4    4    0  501 -0.51087016948E+02 -0.20046421593E+02  0.77253607732E+02  0.94854281016E+02  0.41800000000E+01 0.  1.
</event>
<event>
11    1  0.1078607E-008  0.1360031E+03  0.7561462E-02  0.1112105E+00
         22   -1    0    0    0    0  0.00000000000E+00  0.00000000000E+00  0.20715724658E+03  0.20715724658E+03  0.00000000000E+00 0.  1.
         22   -1    0    0    0    0 -0.00000000000E+00 -0.00000000000E+00 -0.31455057771E+04  0.31455057771E+04  0.00000000000E+00 0.  1.
        -24    2    1    2    0    0 -0.49320781800E+02  0.20215972582E+02 -0.29891033231E+04  0.29906058486E+04  0.78380103788E+02 0.  0.
         25    2    1    2    0    0  0.65202171995E+02  0.99994843039E+01 -0.10938978878E+03  0.17878822736E+03  0.12509113252E+03 0.  0.
         24    2    1    2    0    0 -0.15881390195E+02 -0.30215456886E+02  0.16014458128E+03  0.18326894775E+03  0.82316632013E+02 0.  0.
        -11    1    5    5    0    0  0.77743642334E+01 -0.52087426469E+02  0.12472938813E+03  0.13539187936E+03  0.00000000000E+00 0.  1.
         12    1    5    5    0    0 -0.23655754428E+02  0.21871969582E+02  0.35415193157E+02  0.47877068387E+02  0.00000000000E+00 0. -1.
         13    1    3    3    0    0 -0.10898264839E+02 -0.28832325610E+02 -0.74416851926E+03  0.74480659250E+03  0.00000000000E+00 0. -1.
        -14    1    3    3    0    0 -0.38422516961E+02  0.49048298193E+02 -0.22449348038E+04  0.22457992561E+04  0.00000000000E+00 0.  1.
          5    1    4    4  501    0  0.21950826236E+02  0.66426748737E+02 -0.57852614867E+02  0.90877660441E+02  0.41800000000E+01 0.  1.
         -5    1    4    4    0  501  0.43251345759E+02 -0.56427264433E+02 -0.51537173913E+02  0.87910566921E+02  0.41800000000E+01 0.  1.
</event>
<event>
11    1  0.1078607E-008  0.1401669E+03  0.7561462E-02  0.1107372E+00
         22   -1    0    0    0    0  0.00000000000E+00  0.00000000000E+00  0.31879094653E+03  0.31879094653E+03  0.00000000000E+00 0. -1.
         22   -1    0    0    0    0 -0.00000000000E+00 -0.00000000000E+00 -0.37096664429E+03  0.37096664429E+03  0.00000000000E+00 0. -1.
        -24    2    1    2    0    0 -0.27478785022E+02 -0.28157127446E+02 -0.16999848898E+03  0.19280221372E+03  0.82007925896E+02 0.  0.
         25    2    1    2    0    0  0.60829082970E+02  0.79514220616E+02 -0.14401063127E+03  0.21542771620E+03  0.12508936954E+03 0.  0.
         24    2    1    2    0    0 -0.33350297948E+02 -0.51357093171E+02  0.26183342249E+03  0.28152766090E+03  0.83374392490E+02 0.  0.
        -13    1    5    5    0    0 -0.25846461822E+02 -0.19822477057E+02  0.21523564270E+02  0.39041439577E+02  0.00000000000E+00 0.  1.
         14    1    5    5    0    0 -0.75038361263E+01 -0.31534616113E+02  0.24030985823E+03  0.24248622132E+03  0.00000000000E+00 0. -1.
         13    1    3    3    0    0 -0.16702211353E+02 -0.57389888161E+02 -0.11409552508E+03  0.12880354021E+03  0.00000000000E+00 0. -1.
        -14    1    3    3    0    0 -0.10776573669E+02  0.29232760715E+02 -0.55902963901E+02  0.63998673517E+02  0.00000000000E+00 0.  1.
          5    1    4    4  501    0 -0.34219151871E+02  0.17657555888E+01 -0.16180296317E+02  0.38122731230E+02  0.41800000000E+01 0.  1.
         -5    1    4    4    0  501  0.95048234841E+02  0.77748465028E+02 -0.12783033496E+03  0.17730498497E+03  0.41800000000E+01 0.  1.
</event>
<event>
11    1  0.1078607E-008  0.1758339E+03  0.7561462E-02  0.1073063E+00
         22   -1    0    0    0    0  0.00000000000E+00  0.00000000000E+00  0.50587318318E+03  0.50587318318E+03  0.00000000000E+00 0.  1.
         22   -1    0    0    0    0 -0.00000000000E+00 -0.00000000000E+00 -0.43203413710E+04  0.43203413710E+04  0.00000000000E+00 0.  1.
        -24    2    1    2    0    0 -0.63724819658E+02 -0.10621588595E+03 -0.41642676102E+04  0.41668849994E+04  0.80394041028E+02 0.  0.
         25    2    1    2    0    0  0.11574804982E+03  0.60197067977E+02 -0.93333838917E+02  0.20341544374E+03  0.12508133048E+03 0.  0.
         24    2    1    2    0    0 -0.52023230164E+02  0.46018817969E+02  0.44313326137E+03  0.45591411098E+03  0.81648277210E+02 0.  0.
        -13    1    5    5    0    0 -0.55006846222E+02  0.39608366972E+02  0.17471982873E+03  0.18740756233E+03  0.00000000000E+00 0.  1.
         14    1    5    5    0    0  0.29836160586E+01  0.64104509966E+01  0.26841343264E+03  0.26850654865E+03  0.00000000000E+00 0. -1.
         13    1    3    3    0    0  0.54156284019E+01  0.36196609723E+01 -0.91917979284E+03  0.91920287344E+03  0.00000000000E+00 0. -1.
        -14    1    3    3    0    0 -0.69140448060E+02 -0.10983554692E+03 -0.32450878174E+04  0.32476821260E+04  0.00000000000E+00 0.  1.
          5    1    4    4  501    0  0.22894372763E+01 -0.20638323069E+02  0.15778225611E+02  0.26412245372E+02  0.41800000000E+01 0.  1.
         -5    1    4    4    0  501  0.11345861255E+03  0.80835391046E+02 -0.10911206453E+03  0.17700319837E+03  0.41800000000E+01 0.  1.
</event>
<event>
11    1  0.1078607E-008  0.1397820E+03  0.7561462E-02  0.1107802E+00
         22   -1    0    0    0    0  0.00000000000E+00  0.00000000000E+00  0.11827928456E+04  0.11827928456E+04  0.00000000000E+00 0. -1.
         22   -1    0    0    0    0 -0.00000000000E+00 -0.00000000000E+00 -0.44470749857E+03  0.44470749857E+03  0.00000000000E+00 0.  1.
         24    2    1    2    0    0  0.34590362830E+02 -0.51172117678E+02 -0.41645179062E+03  0.42894465342E+03  0.82136124541E+02 0.  0.
         25    2    1    2    0    0 -0.67225228471E+02  0.66294453866E+02  0.28833660416E+03  0.32817680292E+03  0.12509128953E+03 0.  0.
        -24    2    1    2    0    0  0.32634865641E+02 -0.15122336188E+02  0.86620053346E+03  0.87037888781E+03  0.77216090686E+02 0.  0.
        -13    1    3    3    0    0  0.87828675074E+01 -0.11726439008E+02 -0.33123931650E+03  0.33156316582E+03  0.00000000000E+00 0.  1.
         14    1    3    3    0    0  0.25807495323E+02 -0.39445678670E+02 -0.85212474123E+02  0.97381487598E+02  0.00000000000E+00 0. -1.
         13    1    5    5    0    0  0.10404304942E+02 -0.20925754640E+02  0.79932764552E+03  0.79966919515E+03  0.00000000000E+00 0. -1.
        -14    1    5    5    0    0  0.22230560698E+02  0.58034184520E+01  0.66872887940E+02  0.70709692661E+02  0.00000000000E+00 0.  1.
          5    1    4    4  501    0  0.29357619286E+02  0.35699873395E+02  0.14754460372E+03  0.15467137181E+03  0.41800000000E+01 0. -1.
         -5    1    4    4    0  501 -0.96582847757E+02  0.30594580471E+02  0.14079200045E+03  0.17350543111E+03  0.41800000000E+01 0. -1.
</event>
<event>
11    1  0.1078607E-008  0.3430603E+03  0.7561462E-02  0.9834526E-01
         22   -1    0    0    0    0  0.00000000000E+00  0.00000000000E+00  0.34803877146E+03  0.34803877146E+03  0.00000000000E+00 0.  1.
         22   -1    0    0    0    0 -0.00000000000E+00 -0.00000000000E+00 -0.48177823228E+03  0.48177823228E+03  0.00000000000E+00 0.  1.
         24    2    1    2    0    0  0.33622761991E+02  0.61397064104E+02 -0.10976509660E+03  0.15254781220E+03  0.79513325735E+02 0.  0.
         25    2    1    2    0    0 -0.10598105262E+03  0.27815678727E+03  0.70797457903E+00  0.32286119202E+03  0.12504265779E+03 0.  0.
        -24    2    1    2    0    0  0.72358290629E+02 -0.33955385137E+03 -0.24682338794E+02  0.35440799952E+03  0.66807724659E+02 0.  0.
        -11    1    3    3    0    0  0.36924462480E+02  0.39722723588E+02 -0.11740849404E+03  0.12932928969E+03  0.00000000000E+00 0.  1.
         12    1    3    3    0    0 -0.33017004883E+01  0.21674340516E+02  0.76433974404E+01  0.23218522506E+02  0.00000000000E+00 0. -1.
         11    1    5    5    0    0  0.51835289898E+02 -0.98302970032E+02 -0.10729869210E+01  0.11113740368E+03  0.00000000000E+00 0. -1.
        -12    1    5    5    0    0  0.20523000731E+02 -0.24125088134E+03 -0.23609351873E+02  0.24327059584E+03  0.00000000000E+00 0.  1.
          5    1    4    4  501    0 -0.36985721179E+01  0.15052999512E+03  0.37360224471E+02  0.15519735062E+03  0.41800000000E+01 0. -1.
         -5    1    4    4    0  501 -0.10228248050E+03  0.12762679215E+03 -0.36652249892E+02  0.16766384140E+03  0.41800000000E+01 0. -1.
</event>
<event>
11    1  0.1078607E-008  0.2420766E+03  0.7561462E-02  0.1028207E+00
         22   -1    0    0    0    0  0.00000000000E+00  0.00000000000E+00  0.21726189506E+03  0.21726189506E+03  0.00000000000E+00 0. -1.
         22   -1    0    0    0    0 -0.00000000000E+00 -0.00000000000E+00 -0.92985091312E+03  0.92985091312E+03  0.00000000000E+00 0.  1.
         24    2    1    2    0    0 -0.10354888119E+03 -0.44388617412E+02 -0.46717094564E+03  0.48654416648E+03  0.76051386105E+02 0.  0.
         25    2    1    2    0    0 -0.68827996771E+02  0.17479380722E+03 -0.34132357032E+03  0.40919350792E+03  0.12508948433E+03 0.  0.
        -24    2    1    2    0    0  0.17237687796E+03 -0.13040518980E+03  0.95905497902E+02  0.25137513378E+03  0.85277733165E+02 0.  0.
        -13    1    3    3    0    0 -0.67022153919E+02 -0.23941980896E+02 -0.14351888574E+03  0.16019631123E+03  0.00000000000E+00 0.  1.
         14    1    3    3    0    0 -0.36526727266E+02 -0.20446636517E+02 -0.32365205990E+03  0.32634785525E+03  0.00000000000E+00 0. -1.
         13    1    5    5    0    0  0.11775889441E+03 -0.13304827847E+03  0.73813307067E+02  0.19239907982E+03  0.00000000000E+00 0. -1.
        -14    1    5    5    0    0  0.54617983550E+02  0.26430886666E+01  0.22092190835E+02  0.58976053960E+02  0.00000000000E+00 0.  1.
          5    1    4    4  501    0 -0.41478357125E+02  0.30329084235E+02 -0.19087437649E+02  0.54973722234E+02  0.41800000000E+01 0.  1.
         -5    1    4    4    0  501 -0.27349639646E+02  0.14446472298E+03 -0.32223613267E+03  0.35421978569E+03  0.41800000000E+01 0.  1.
</event>
<event>
11    1  0.1805307E-008  0.1923833E+03  0.7561462E-02  0.1060044E+00
         22   -1    0    0    0    0  0.00000000000E+00  0.00000000000E+00  0.15196902900E+04  0.15196902900E+04  0.00000000000E+00 0. -1.
         22   -1    0    0    0    0 -0.00000000000E+00 -0.00000000000E+00 -0.42615303253E+03  0.42615303253E+03  0.00000000000E+00 0.  1.
        -24    2    1    2    0    0 -0.60838961215E+02  0.20021632501E+02 -0.28747887825E+03  0.30668959217E+03  0.85511142736E+02 0.  0.
         25    2    1    2    0    0  0.20146693800E+03 -0.49961762087E+02 -0.60561779376E+01  0.24242478170E+03  0.12509193703E+03 0.  0.
         24    2    1    2    0    0 -0.14062797678E+03  0.29940129585E+02  0.13870723137E+04  0.13967289487E+04  0.78800466498E+02 0.  0.
        -11    1    5    5    0    0 -0.13320477579E+03  0.30880302495E+02  0.97007829806E+03  0.97966780581E+03  0.00000000000E+00 0.  1.
         12    1    5    5    0    0 -0.74232009984E+01 -0.94017290961E+00  0.41699401561E+03  0.41706114287E+03  0.00000000000E+00 0. -1.
         11    1    3    3    0    0 -0.81758959158E+02  0.20380958275E+02 -0.24928104359E+03  0.26313675068E+03  0.00000000000E+00 0. -1.
        -12    1    3    3    0    0  0.20919997943E+02 -0.35932577370E+00 -0.38197834660E+02  0.43552841488E+02  0.00000000000E+00 0.  1.
          5    1    4    4  501    0  0.26835750264E+02 -0.55934761429E+02 -0.24155342163E+02  0.66706881080E+02  0.41800000000E+01 0. -1.
         -5    1    4    4    0  501  0.17463118774E+03  0.59729993425E+01  0.18099164225E+02  0.17571790062E+03  0.41800000000E+01 0. -1.
</event>
<event>
11    1  0.1078607E-008  0.1567271E+03  0.7561462E-02  0.1090197E+00
         22   -1    0    0    0    0  0.00000000000E+00  0.00000000000E+00  0.20937672275E+03  0.20937672275E+03  0.00000000000E+00 0. -1.
         22   -1    0    0    0    0 -0.00000000000E+00 -0.00000000000E+00 -0.85231879356E+03  0.85231879356E+03  0.00000000000E+00 0. -1.
        -24    2    1    2    0    0  0.10337247304E+02 -0.63212986482E+02 -0.61739889813E+03  0.62422318405E+03  0.66109331786E+02 0.  0.
         25    2    1    2    0    0  0.83680213682E+02  0.40762302349E+02 -0.17984534960E+03  0.23802441810E+03  0.12508928966E+03 0.  0.
         24    2    1    2    0    0 -0.94017460987E+02  0.22450684133E+02  0.15430217692E+03  0.19944791416E+03  0.81406341707E+02 0.  0.
        -11    1    5    5    0    0 -0.15477981947E+02  0.15214326399E+02 -0.44749191302E+01  0.22160066655E+02  0.00000000000E+00 0.  1.
         12    1    5    5    0    0 -0.78539479040E+02  0.72363577348E+01  0.15877709605E+03  0.17728784750E+03  0.00000000000E+00 0. -1.
         11    1    3    3    0    0 -0.25100747248E+02 -0.78370152538E+01 -0.18048429887E+03  0.18238982553E+03  0.00000000000E+00 0. -1.
        -12    1    3    3    0    0  0.35437994553E+02 -0.55375971228E+02 -0.43691459926E+03  0.44183335851E+03  0.00000000000E+00 0.  1.
          5    1    4    4  501    0  0.30580848750E+02 -0.41094613118E+02 -0.31061745342E+02  0.60052143686E+02  0.41800000000E+01 0. -1.
         -5    1    4    4    0  501  0.53099364933E+02  0.81856915467E+02 -0.14878360426E+03  0.17797227442E+03  0.41800000000E+01 0. -1.
</event>
<event>
11    1  0.1078607E-008  0.1492976E+03  0.7561462E-02  0.1097599E+00
         22   -1    0    0    0    0  0.00000000000E+00  0.00000000000E+00  0.10843957044E+03  0.10843957044E+03  0.00000000000E+00 0.  1.
         22   -1    0    0    0    0 -0.00000000000E+00 -0.00000000000E+00 -0.59216625010E+03  0.59216625010E+03  0.00000000000E+00 0.  1.
         24    2    1    2    0    0  0.65548860422E+01  0.83995218583E+02 -0.42246812270E+03  0.43821320223E+03  0.80332637379E+02 0.  0.
         25    2    1    2    0    0  0.47397256984E+02 -0.65779866063E+02 -0.62721925832E+02  0.16172514603E+03  0.12508993617E+03 0.  0.
        -24    2    1    2    0    0 -0.53952143027E+02 -0.18215352520E+02  0.14633688739E+01  0.10066747227E+03  0.83000998313E+02 0.  0.
        -11    1    3    3    0    0  0.10241614142E+02  0.91963496326E+02 -0.41844799141E+03  0.42855676034E+03  0.00000000000E+00 0.  1.
         12    1    3    3    0    0 -0.36867281003E+01 -0.79682777431E+01 -0.40201312916E+01  0.96564418850E+01  0.00000000000E+00 0. -1.
         11    1    5    5    0    0 -0.95199094307E-01 -0.12013400187E+02 -0.33882875138E+02  0.35949688101E+02  0.00000000000E+00 0. -1.
        -12    1    5    5    0    0 -0.53856943932E+02 -0.62019523331E+01  0.35346244012E+02  0.64717784173E+02  0.00000000000E+00 0.  1.
          5    1    4    4  501    0  0.63568807279E+02 -0.30424315323E+02 -0.89751130423E+02  0.11419006101E+03  0.41800000000E+01 0. -1.
         -5    1    4    4    0  501 -0.16171550295E+02 -0.35355550740E+02  0.27029204591E+02  0.47535085021E+02  0.41800000000E+01 0. -1.
</event>
<event>
11    1  0.1078607E-008  0.1409691E+03  0.7561462E-02  0.1106481E+00
         22   -1    0    0    0    0  0.00000000000E+00  0.00000000000E+00  0.10327837247E+03  0.10327837247E+03  0.00000000000E+00 0.  1.
         22   -1    0    0    0    0 -0.00000000000E+00 -0.00000000000E+00 -0.56382947173E+03  0.56382947173E+03  0.00000000000E+00 0. -1.
        -24    2    1    2    0    0 -0.55029818625E+02 -0.39930177136E+02 -0.30944216554E+03  0.32685050476E+03  0.80337405139E+02 0.  0.
         25    2    1    2    0    0  0.66292577154E+02  0.57527219031E+00 -0.19622972758E+03  0.24196712983E+03  0.12508776603E+03 0.  0.
         24    2    1    2    0    0 -0.11262758528E+02  0.39354904946E+02  0.45120793856E+02  0.98290209615E+02  0.77132489879E+02 0.  0.
        -11    1    5    5    0    0 -0.24045250242E+02  0.55217095054E+02  0.15236420667E+02  0.62122863425E+02  0.00000000000E+00 0.  1.
         12    1    5    5    0    0  0.12782491714E+02 -0.15862190108E+02  0.29884373190E+02  0.36167346190E+02  0.00000000000E+00 0. -1.
         13    1    3    3    0    0 -0.71353424111E+02 -0.27520188734E+02 -0.28430160299E+03  0.29440800495E+03  0.00000000000E+00 0. -1.
        -14    1    3    3    0    0  0.16323605486E+02 -0.12409988402E+02 -0.25140562551E+02  0.32442499805E+02  0.00000000000E+00 0.  1.
          5    1    4    4  501    0  0.45759233176E+02  0.16524374074E+02 -0.51727623493E+01  0.49103892206E+02  0.41800000000E+01 0. -1.
         -5    1    4    4    0  501  0.20533343977E+02 -0.15949101883E+02 -0.19105696523E+03  0.19286323763E+03  0.41800000000E+01 0. -1.
</event>
<event>
11    1  0.1078607E-008  0.2362532E+03  0.7561462E-02  0.1031488E+00
         22   -1    0    0    0    0  0.00000000000E+00  0.00000000000E+00  0.16587672656E+04  0.16587672656E+04  0.00000000000E+00 0. -1.
         22   -1    0    0    0    0 -0.00000000000E+00 -0.00000000000E+00 -0.62090190051E+03  0.62090190051E+03  0.00000000000E+00 0.  1.
         24    2    1    2    0    0 -0.16417526034E+03  0.12024036385E+03 -0.52804747219E+03  0.57152262345E+03  0.79954455920E+02 0.  0.
         25    2    1    2    0    0  0.12006863574E+03 -0.13344485212E+03  0.10197646057E+03  0.24139486414E+03  0.12509306965E+03 0.  0.
        -24    2    1    2    0    0  0.44106624600E+02  0.13204488278E+02  0.14639363767E+04  0.14667516785E+04  0.78300820832E+02 0.  0.
        -11    1    3    3    0    0 -0.13741718690E+03  0.10970345660E+03 -0.35565321128E+03  0.39674618881E+03  0.00000000000E+00 0.  1.
         12    1    3    3    0    0 -0.26758073441E+02  0.10536907247E+02 -0.17239426091E+03  0.17477643463E+03  0.00000000000E+00 0. -1.
         11    1    5    5    0    0  0.55868173970E+02  0.21458239475E+02  0.13974247433E+04  0.13987056953E+04  0.00000000000E+00 0. -1.
        -12    1    5    5    0    0 -0.11761549370E+02 -0.82537511972E+01  0.66511633461E+02  0.68045983261E+02  0.00000000000E+00 0.  1.
          5    1    4    4  501    0  0.72702456439E+02 -0.11381335233E+03  0.12588082447E+03  0.18466884066E+03  0.41800000000E+01 0. -1.
         -5    1    4    4    0  501  0.47366179303E+02 -0.19631499792E+02 -0.23904363903E+02  0.56726023476E+02  0.41800000000E+01 0. -1.
</event>
<event>
11    1  0.1078607E-008  0.1465758E+03  0.7561462E-02  0.1100430E+00
         22   -1    0    0    0    0  0.00000000000E+00  0.00000000000E+00  0.39988639244E+03  0.39988639244E+03  0.00000000000E+00 0. -1.
         22   -1    0    0    0    0 -0.00000000000E+00 -0.00000000000E+00 -0.33704041303E+03  0.33704041303E+03  0.00000000000E+00 0.  1.
         24    2    1    2    0    0 -0.60996057190E+02 -0.38031766997E+01 -0.17059463717E+03  0.19890438316E+03  0.82008781619E+02 0.  0.
         25    2    1    2    0    0  0.55721364120E+02 -0.72799798738E+02 -0.10123479235E+03  0.18520682911E+03  0.12509358597E+03 0.  0.
        -24    2    1    2    0    0  0.52746930697E+01  0.76602975438E+02  0.33467540894E+03  0.35281559320E+03  0.81088687373E+02 0.  0.
        -11    1    3    3    0    0 -0.31217190360E+02  0.18956172819E+02 -0.15336486604E+03  0.15765351755E+03  0.00000000000E+00 0.  1.
         12    1    3    3    0    0 -0.29778866830E+02 -0.22759349519E+02 -0.17229771138E+02  0.41250865611E+02  0.00000000000E+00 0. -1.
         13    1    5    5    0    0  0.42363097352E+02  0.51261284019E+02  0.21127959722E+03  0.22149812518E+03  0.00000000000E+00 0. -1.
        -14    1    5    5    0    0 -0.37088404282E+02  0.25341691419E+02  0.12339581172E+03  0.13131746802E+03  0.00000000000E+00 0.  1.
          5    1    4    4  501    0  0.85280392096E+02 -0.78310375082E+02 -0.51161718925E+02  0.12665012438E+03  0.41800000000E+01 0.  1.
         -5    1    4    4    0  501 -0.29559027976E+02  0.55105763432E+01 -0.50073073429E+02  0.58556704733E+02  0.41800000000E+01 0.  1.
</event>
<event>
11    1  0.1078607E-008  0.1717611E+03  0.7561462E-02  0.1076509E+00
         22   -1    0    0    0    0  0.00000000000E+00  0.00000000000E+00  0.33238639201E+03  0.33238639201E+03  0.00000000000E+00 0.  1.
         22   -1    0    0    0    0 -0.00000000000E+00 -0.00000000000E+00 -0.87296299679E+03  0.87296299679E+03  0.00000000000E+00 0. -1.
        -24    2    1    2    0    0  0.31156474635E+02  0.36368269209E+01 -0.61024001558E+03  0.61641741741E+03  0.81201006502E+02 0.  0.
         25    2    1    2    0    0 -0.42904479699E+02  0.11349596651E+03 -0.21013984276E+03  0.27299858811E+03  0.12508935528E+03 0.  0.
         24    2    1    2    0    0  0.11748005064E+02 -0.11713279343E+03  0.27980325355E+03  0.31593338327E+03  0.87555325635E+02 0.  0.
        -11    1    5    5    0    0 -0.60563326955E-01 -0.11265866039E+03  0.28148640168E+03  0.30319395073E+03  0.00000000000E+00 0.  1.
         12    1    5    5    0    0  0.11808568391E+02 -0.44741330321E+01 -0.16831481249E+01  0.12739432540E+02  0.00000000000E+00 0. -1.
         11    1    3    3    0    0  0.75472209572E+01 -0.34141740173E+02 -0.14977335374E+03  0.15380076871E+03  0.00000000000E+00 0. -1.
        -12    1    3    3    0    0  0.23609253677E+02  0.37778567094E+02 -0.46046666184E+03  0.46261664870E+03  0.00000000000E+00 0.  1.
          5    1    4    4  501    0 -0.87080461177E+02  0.78989532783E+02 -0.15082570217E+03  0.19128046905E+03  0.41800000000E+01 0.  1.
         -5    1    4    4    0  501  0.44175981478E+02  0.34506433722E+02 -0.59314140597E+02  0.81718119059E+02  0.41800000000E+01 0.  1.
</event>
<event>
11    1  0.1078607E-008  0.1297206E+03  0.7561462E-02  0.1119613E+00
         22   -1    0    0    0    0  0.00000000000E+00  0.00000000000E+00  0.93052026327E+03  0.93052026327E+03  0.00000000000E+00 0.  1.
         22   -1    0    0    0    0 -0.00000000000E+00 -0.00000000000E+00 -0.49706398721E+03  0.49706398721E+03  0.00000000000E+00 0.  1.
        -24    2    1    2    0    0  0.14074084112E+02 -0.32191230173E+02 -0.46503529904E+03  0.47332609294E+03  0.80903681964E+02 0.  0.
         25    2    1    2    0    0 -0.13852720306E+02 -0.87487952370E+00  0.13000558088E+03  0.18094726319E+03  0.12509115765E+03 0.  0.
         24    2    1    2    0    0 -0.22136380623E+00  0.33066109697E+02  0.76848599422E+03  0.77331089436E+03  0.79659270673E+02 0.  0.
        -13    1    5    5    0    0 -0.21176235371E+02  0.45573177075E+02  0.66864520178E+03  0.67053094878E+03  0.00000000000E+00 0.  1.
         14    1    5    5    0    0  0.20954871565E+02 -0.12507067379E+02  0.99840792443E+02  0.10277994557E+03  0.00000000000E+00 0. -1.
         11    1    3    3    0    0  0.71780651525E+01  0.27291615122E+02 -0.15976444258E+03  0.16223758500E+03  0.00000000000E+00 0. -1.
        -12    1    3    3    0    0  0.68960189598E+01 -0.59482845295E+02 -0.30527085646E+03  0.31108850793E+03  0.00000000000E+00 0.  1.
          5    1    4    4  501    0 -0.65187179750E+02  0.51603896393E+01  0.10403639977E+03  0.12295138430E+03  0.41800000000E+01 0.  1.
         -5    1    4    4    0  501  0.51334459444E+02 -0.60352691630E+01  0.25969181113E+02  0.57995878887E+02  0.41800000000E+01 0.  1.
</event>
<event>
11    1  0.1078607E-008  0.1561376E+03  0.7561462E-02  0.1090767E+00
         22   -1    0    0    0    0  0.00000000000E+00  0.00000000000E+00  0.39097944147E+03  0.39097944147E+03  0.00000000000E+00 0.  1.
         22   -1    0    0    0    0 -0.00000000000E+00 -0.00000000000E+00 -0.13843498451E+04  0.13843498451E+04  0.00000000000E+00 0.  1.
         24    2    1    2    0    0 -0.47284002157E+02  0.45873701390E+02 -0.13162672574E+04  0.13204827214E+04  0.82310091320E+02 0.  0.
         25    2    1    2    0    0  0.27398442940E+02 -0.12630390151E+03  0.12224313318E+03  0.21747400630E+03  0.12509280393E+03 0.  0.
        -24    2    1    2    0    0  0.19885559217E+02  0.80430200121E+02  0.20065372065E+03  0.23737255887E+03  0.96017516840E+02 0.  0.
        -13    1    3    3    0    0 -0.52944112515E+02  0.64621180944E+02 -0.11578043849E+04  0.11608143563E+04  0.00000000000E+00 0.  1.
         14    1    3    3    0    0  0.56601103572E+01 -0.18747479554E+02 -0.15846287255E+03  0.15966836511E+03  0.00000000000E+00 0. -1.
         13    1    5    5    0    0 -0.27030965355E+02 -0.64854500830E+01  0.38072448655E+02  0.47140698948E+02  0.00000000000E+00 0. -1.
        -14    1    5    5    0    0  0.46916524572E+02  0.86915650204E+02  0.16258127199E+03  0.19023185992E+03  0.00000000000E+00 0.  1.
          5    1    4    4  501    0  0.12593318979E+02 -0.13393253915E+03  0.50574231819E+02  0.14377670900E+03  0.41800000000E+01 0.  1.
         -5    1    4    4    0  501  0.14805123961E+02  0.76286376401E+01  0.71668901357E+02  0.73697297301E+02  0.41800000000E+01 0.  1.
</event>
<event>
11    1  0.1078607E-008  0.1263570E+03  0.7561462E-02  0.1123828E+00
         22   -1    0    0    0    0  0.00000000000E+00  0.00000000000E+00  0.34315899849E+03  0.34315899849E+03  0.00000000000E+00 0. -1.
         22   -1    0    0    0    0 -0.00000000000E+00 -0.00000000000E+00 -0.21715048123E+03  0.21715048123E+03  0.00000000000E+00 0.  1.
        -24    2    1    2    0    0 -0.14834200090E+00  0.10284170775E+02 -0.10849342344E+03  0.13821528454E+03  0.85010915634E+02 0.  0.
         25    2    1    2    0    0 -0.14712895232E+02 -0.19443581291E+02 -0.40723951746E+02  0.13379447320E+03  0.12509196086E+03 0.  0.
         24    2    1    2    0    0  0.14861237233E+02  0.91594105156E+01  0.27522589244E+03  0.28829972198E+03  0.84039792071E+02 0.  0.
        -13    1    5    5    0    0  0.74306068498E+01  0.42582241270E+02  0.88872089037E+02  0.98826663403E+02  0.00000000000E+00 0.  1.
         14    1    5    5    0    0  0.74306303827E+01 -0.33422830754E+02  0.18635380341E+03  0.18947305858E+03  0.00000000000E+00 0. -1.
         13    1    3    3    0    0  0.17300777364E+02  0.28220998868E+02 -0.71991636728E+01  0.33875797143E+02  0.00000000000E+00 0. -1.
        -14    1    3    3    0    0 -0.17449119364E+02 -0.17936828093E+02 -0.10129425976E+03  0.10433948739E+03  0.00000000000E+00 0.  1.
          5    1    4    4  501    0 -0.68651789430E+02 -0.14325880086E+02 -0.36803213457E+02  0.79311083418E+02  0.41800000000E+01 0.  1.
         -5    1    4    4    0  501  0.53938894199E+02 -0.51177012054E+01 -0.39207382892E+01  0.54483389778E+02  0.41800000000E+01 0.  1.
</event>
<event>
11    1  0.1078607E-008  0.1362142E+03  0.7561462E-02  0.1111861E+00
         22   -1    0    0    0    0  0.00000000000E+00  0.00000000000E+00  0.37229999499E+03  0.37229999499E+03  0.00000000000E+00 0.  1.
         22   -1    0    0    0    0 -0.00000000000E+00 -0.00000000000E+00 -0.15526731140E+03  0.15526731140E+03  0.00000000000E+00 0.  1.
         24    2    1    2    0    0 -0.33107971343E+02  0.37983384319E+02 -0.89293018831E+02  0.12967833510E+03  0.79399950456E+02 0.  0.
         25    2    1    2    0    0  0.51780647111E+02 -0.62522729343E+02  0.11864310938E+03  0.19055463415E+03  0.12507819191E+03 0.  0.
        -24    2    1    2    0    0 -0.18672675768E+02  0.24539345024E+02  0.18768259304E+03  0.20733433714E+03  0.82534376805E+02 0.  0.
        -11    1    3    3    0    0 -0.52533038708E+02  0.47265133910E+02 -0.78411061461E+02  0.10555570851E+03  0.00000000000E+00 0.  1.
         12    1    3    3    0    0  0.19425067365E+02 -0.92817495907E+01 -0.10881957370E+02  0.24122626594E+02  0.00000000000E+00 0. -1.
         13    1    5    5    0    0  0.22441070360E+02  0.27885803642E+02  0.38564102138E+02  0.52615678816E+02  0.00000000000E+00 0. -1.
        -14    1    5    5    0    0 -0.41113746128E+02 -0.33464586179E+01  0.14911849090E+03  0.15471865833E+03  0.00000000000E+00 0.  1.
          5    1    4    4  501    0 -0.64451524113E+01  0.16147430809E+02 -0.16033954759E+02  0.24017485641E+02  0.41800000000E+01 0.  1.
         -5    1    4    4    0  501  0.58225799522E+02 -0.78670160152E+02  0.13467706414E+03  0.16653714851E+03  0.41800000000E+01 0.  1.
</event>
<event>
11    1  0.1078607E-008  0.1378707E+03  0.7561462E-02  0.1109960E+00
         22   -1    0    0    0    0  0.00000000000E+00  0.00000000000E+00  0.83438365940E+03  0.83438365940E+03  0.00000000000E+00 0.  1.
         22   -1    0    0    0    0 -0.00000000000E+00 -0.00000000000E+00 -0.16932586720E+03  0.16932586720E+03  0.00000000000E+00 0. -1.
         24    2    1    2    0    0  0.53286799398E+02 -0.18943006323E+02 -0.13020578020E+03  0.16346367592E+03  0.81046330385E+02 0.  0.
         25    2    1    2    0    0 -0.76193783048E+02  0.34652906939E+02  0.27953802728E+03  0.31748301626E+03  0.12509052876E+03 0.  0.
        -24    2    1    2    0    0  0.22906983650E+02 -0.15709900616E+02  0.51572554512E+03  0.52276283441E+03  0.80849318345E+02 0.  0.
        -13    1    3    3    0    0  0.28582721180E+02 -0.29232253133E+02 -0.12497203063E+02  0.42751335156E+02  0.00000000000E+00 0.  1.
         14    1    3    3    0    0  0.24704078218E+02  0.10289246810E+02 -0.11770857714E+03  0.12071234077E+03  0.00000000000E+00 0. -1.
         13    1    5    5    0    0 -0.17879966614E+02  0.16507365761E+02  0.71950055724E+02  0.75953912666E+02  0.00000000000E+00 0. -1.
        -14    1    5    5    0    0  0.40786950264E+02 -0.32217266377E+02  0.44377548940E+03  0.44680892175E+03  0.00000000000E+00 0.  1.
          5    1    4    4  501    0 -0.55081616003E+01  0.58740655554E+02  0.19885777072E+03  0.20746732233E+03  0.41800000000E+01 0.  1.
         -5    1    4    4    0  501 -0.70685621448E+02 -0.24087748615E+02  0.80680256560E+02  0.11001569393E+03  0.41800000000E+01 0.  1.
</event>
<event>
11    1  0.1078607E-008  0.1566481E+03  0.7561462E-02  0.1090273E+00
         22   -1    0    0    0    0  0.00000000000E+00  0.00000000000E+00  0.83676573116E+03  0.83676573116E+03  0.00000000000E+00 0.  1.
         22   -1    0    0    0    0 -0.00000000000E+00 -0.00000000000E+00 -0.72563595962E+03  0.72563595962E+03  0.00000000000E+00 0.  1.
        -24    2    1    2    0    0 -0.19873267941E+02  0.86376276137E+01 -0.59380536832E+03  0.59950507768E+03  0.79573659806E+02 0.  0.
         25    2    1    2    0    0  0.42149353836E+02  0.83131555903E+02 -0.75132465118E+02  0.17314369497E+03  0.12508568334E+03 0.  0.
         24    2    1    2    0    0 -0.22276085895E+02 -0.91769183516E+02  0.78006760497E+03  0.78975291813E+03  0.79286797870E+02 0.  0.
        -13    1    5    5    0    0 -0.31381230475E+02 -0.98044553499E+02  0.75909492044E+03  0.76604348071E+03  0.00000000000E+00 0.  1.
         14    1    5    5    0    0  0.91051445799E+01  0.62753699822E+01  0.20972684531E+02  0.23709437418E+02  0.00000000000E+00 0. -1.
         11    1    3    3    0    0 -0.32642202446E+02 -0.28131698505E+02 -0.28038378707E+03  0.28367582536E+03  0.00000000000E+00 0. -1.
        -12    1    3    3    0    0  0.12768934504E+02  0.36769326119E+02 -0.31342158125E+03  0.31582925232E+03  0.00000000000E+00 0.  1.
          5    1    4    4  501    0  0.77186660808E+02  0.14490333633E+02 -0.41926630210E+02  0.89123875006E+02  0.41800000000E+01 0. -1.
         -5    1    4    4    0  501 -0.35037306971E+02  0.68641222270E+02 -0.33205834908E+02  0.84019819962E+02  0.41800000000E+01 0. -1.
</event>
<event>
11    1  0.1078607E-008  0.1576005E+03  0.7561462E-02  0.1089356E+00
         22   -1    0    0    0    0  0.00000000000E+00  0.00000000000E+00  0.14456464028E+04  0.14456464028E+04  0.00000000000E+00 0.  1.
         22   -1    0    0    0    0 -0.00000000000E+00 -0.00000000000E+00 -0.86254614110E+02  0.86254614110E+02  0.00000000000E+00 0.  1.
         24    2    1    2    0    0 -0.19650901648E+02  0.96604061151E+02 -0.19094471984E+02  0.12869780340E+03  0.80498591124E+02 0.  0.
         25    2    1    2    0    0  0.38298821759E+02 -0.63220670397E+02  0.51455257571E+03  0.53467285541E+03  0.12508819381E+03 0.  0.
        -24    2    1    2    0    0 -0.18647920111E+02 -0.33383390754E+02  0.86393368499E+03  0.86853035812E+03  0.80631105788E+02 0.  0.
        -11    1    3    3    0    0 -0.45144387389E+02  0.89813834164E+02 -0.11108249412E+02  0.10113324738E+03  0.00000000000E+00 0.  1.
         12    1    3    3    0    0  0.25493485741E+02  0.67902269866E+01 -0.79862225720E+01  0.27564556022E+02  0.00000000000E+00 0. -1.
         13    1    5    5    0    0 -0.15322927421E+02 -0.20338654096E+01  0.27845867989E+02  0.31848407768E+02  0.00000000000E+00 0. -1.
        -14    1    5    5    0    0 -0.33249926900E+01 -0.31349525344E+02  0.83608781700E+03  0.83668195035E+03  0.00000000000E+00 0.  1.
          5    1    4    4  501    0 -0.27265695457E+02 -0.86444556715E+01  0.26539893236E+02  0.39242618358E+02  0.41800000000E+01 0. -1.
         -5    1    4    4    0  501  0.65564517216E+02 -0.54576214726E+02  0.48801268247E+03  0.49543023705E+03  0.41800000000E+01 0. -1.
</event>
<event>
11    1  0.1078607E-008  0.1647736E+03  0.7561462E-02  0.1082672E+00
         22   -1    0    0    0    0  0.00000000000E+00  0.00000000000E+00  0.52177024054E+03  0.52177024054E+03  0.00000000000E+00 0.  1.
         22   -1    0    0    0    0 -0.00000000000E+00 -0.00000000000E+00 -0.73442721572E+03  0.73442721572E+03  0.00000000000E+00 0.  1.
         24    2    1    2    0    0  0.84265511456E+02  0.64947306897E+02 -0.68047445536E+03  0.69333712517E+03  0.79699784476E+02 0.  0.
         25    2    1    2    0    0 -0.10492307272E+03 -0.84095188969E+02  0.16170282483E+03  0.24469636544E+03  0.12509059000E+03 0.  0.
        -24    2    1    2    0    0  0.20657561262E+02  0.19147882071E+02  0.30611465535E+03  0.31816396565E+03  0.82028961890E+02 0.  0.
        -11    1    3    3    0    0  0.13302975574E+02  0.60172218308E+02 -0.29779059451E+03  0.30410015323E+03  0.00000000000E+00 0.  1.
         12    1    3    3    0    0  0.70962535882E+02  0.47750885898E+01 -0.38268386085E+03  0.38923697194E+03  0.00000000000E+00 0. -1.
         13    1    5    5    0    0 -0.82869998442E+01 -0.16713518221E+02  0.16498626493E+02  0.24904231245E+02  0.00000000000E+00 0. -1.
        -14    1    5    5    0    0  0.28944561107E+02  0.35861400292E+02  0.28961602886E+03  0.29325973440E+03  0.00000000000E+00 0.  1.
          5    1    4    4  501    0 -0.28160887700E+02 -0.99504526816E+02  0.75095948620E+02  0.12787126476E+03  0.41800000000E+01 0.  1.
         -5    1    4    4    0  501 -0.76762185018E+02  0.15409337847E+02  0.86606876212E+02  0.11682510068E+03  0.41800000000E+01 0.  1.
</event>
<event>
11    1  0.1078607E-008  0.1441661E+03  0.7561462E-02  0.1102993E+00
         22   -1    0    0    0    0  0.00000000000E+00  0.00000000000E+00  0.31015751214E+04  0.31015751214E+04  0.00000000000E+00 0. -1.
         22   -1    0    0    0    0 -0.00000000000E+00 -0.00000000000E+00 -0.78762238369E+03  0.78762238369E+03  0.00000000000E+00 0. -1.
        -24    2    1    2    0    0 -0.57188417801E+02  0.43298866281E+02 -0.77888888140E+03  0.78650362796E+03  0.82308931913E+02 0.  0.
         25    2    1    2    0    0  0.26131837139E+02 -0.53715824054E+02  0.11606544840E+04  0.11689030218E+04  0.12508869070E+03 0.  0.
         24    2    1    2    0    0  0.31056580662E+02  0.10416957773E+02  0.19321871351E+04  0.19337908552E+04  0.71602533118E+02 0.  0.
        -11    1    5    5    0    0  0.35496270867E+02 -0.87640586142E+00  0.40447161483E+03  0.40602714261E+03  0.00000000000E+00 0.  1.
         12    1    5    5    0    0 -0.44396902048E+01  0.11293363634E+02  0.15277155202E+04  0.15277637126E+04  0.00000000000E+00 0. -1.
         13    1    3    3    0    0 -0.58084132487E+02  0.50933644003E+02 -0.77292034731E+03  0.77677143731E+03  0.00000000000E+00 0. -1.
        -14    1    3    3    0    0  0.89571468623E+00 -0.76347777218E+01 -0.59685340974E+01  0.97321906544E+01  0.00000000000E+00 0.  1.
          5    1    4    4  501    0 -0.48026542242E+02 -0.16096708964E+02  0.59315178325E+03  0.59532525831E+03  0.41800000000E+01 0. -1.
         -5    1    4    4    0  501  0.74158379380E+02 -0.37619115090E+02  0.56750270076E+03  0.57357776353E+03  0.41800000000E+01 0. -1.
</event>
<event>
11    1  0.1078607E-008  0.1495379E+03  0.7561462E-02  0.1097352E+00
         22   -1    0    0    0    0  0.00000000000E+00  0.00000000000E+00  0.14580108909E+04  0.14580108909E+04  0.00000000000E+00 0. -1.
         22   -1    0    0    0    0 -0.00000000000E+00 -0.00000000000E+00 -0.10505064183E+03  0.10505064183E+03  0.00000000000E+00 0. -1.
        -24    2    1    2    0    0 -0.51457371863E+02  0.60302619600E+02 -0.43538259254E+02  0.12070742855E+03  0.79940204142E+02 0.  0.
         25    2    1    2    0    0  0.45536890343E+02 -0.97602136638E+02  0.30262638634E+03  0.34471643060E+03  0.12508757874E+03 0.  0.
         24    2    1    2    0    0  0.59204815197E+01  0.37299517038E+02  0.10938721220E+04  0.10976376736E+04  0.82619229953E+02 0.  0.
        -13    1    5    5    0    0  0.11206620550E+02  0.50499247188E+01  0.21484700776E+02  0.24752423139E+02  0.00000000000E+00 0.  1.
         14    1    5    5    0    0 -0.52861390299E+01  0.32249592319E+02  0.10723874212E+04  0.10728852505E+04  0.00000000000E+00 0. -1.
         11    1    3    3    0    0 -0.39690077025E+02  0.72662692835E+02 -0.55667910827E+02  0.99770163075E+02  0.00000000000E+00 0. -1.
        -12    1    3    3    0    0 -0.11767294838E+02 -0.12360073235E+02  0.12129651573E+02  0.20937265472E+02  0.00000000000E+00 0.  1.
          5    1    4    4  501    0  0.28723602558E+02 -0.12558450386E+03  0.20983693406E+03  0.24626311995E+03  0.41800000000E+01 0. -1.
         -5    1    4    4    0  501  0.16813287785E+02  0.27982367222E+02  0.92789452289E+02  0.98453310648E+02  0.41800000000E+01 0. -1.
</event>
<event>
11    1  0.1078607E-008  0.1311993E+03  0.7561462E-02  0.1117804E+00
         22   -1    0    0    0    0  0.00000000000E+00  0.00000000000E+00  0.23483928261E+03  0.23483928261E+03  0.00000000000E+00 0.  1.
         22   -1    0    0    0    0 -0.00000000000E+00 -0.00000000000E+00 -0.65343011678E+03  0.65343011678E+03  0.00000000000E+00 0.  1.
        -24    2    1    2    0    0 -0.15684669946E+02 -0.33764485348E+02 -0.47772102343E+03  0.48599286004E+03  0.81151921965E+02 0.  0.
         25    2    1    2    0    0  0.28639748849E+01  0.61085968422E+02 -0.13278819097E+03  0.19238038593E+03  0.12505123486E+03 0.  0.
         24    2    1    2    0    0  0.12820695061E+02 -0.27321483074E+02  0.19191838022E+03  0.20989615342E+03  0.79453740606E+02 0.  0.
        -11    1    5    5    0    0 -0.12712696456E+02 -0.17680055768E+02  0.17787324552E+03  0.17920125138E+03  0.00000000000E+00 0.  1.
         12    1    5    5    0    0  0.25533391517E+02 -0.96414273062E+01  0.14045134699E+02  0.30694902045E+02  0.00000000000E+00 0. -1.
         11    1    3    3    0    0 -0.48553090249E+02 -0.14602400289E+02 -0.24618030535E+03  0.25134712135E+03  0.00000000000E+00 0. -1.
        -12    1    3    3    0    0  0.32868420303E+02 -0.19162085059E+02 -0.23154071807E+03  0.23464573868E+03  0.00000000000E+00 0.  1.
          5    1    4    4  501    0  0.40085779163E+02 -0.45561284594E+01 -0.10378627678E+03  0.11143020976E+03  0.41800000000E+01 0. -1.
         -5    1    4    4    0  501 -0.37221804278E+02  0.65642096881E+02 -0.29001914185E+02  0.80950176177E+02  0.41800000000E+01 0. -1.
</event>
<event>
11    1  0.1078607E-008  0.2093459E+03  0.7561462E-02  0.1048105E+00
         22   -1    0    0    0    0  0.00000000000E+00  0.00000000000E+00  0.22978489302E+03  0.22978489302E+03  0.00000000000E+00 0. -1.
         22   -1    0    0    0    0 -0.00000000000E+00 -0.00000000000E+00 -0.44329442004E+03  0.44329442004E+03  0.00000000000E+00 0.  1.
         24    2    1    2    0    0  0.57773745200E+01  0.70943712901E+01 -0.22223318690E+03  0.23674562378E+03  0.81099894324E+02 0.  0.
         25    2    1    2    0    0  0.51522903484E+02 -0.16353191458E+03 -0.84872991072E+02  0.22857958446E+03  0.12509158705E+03 0.  0.
        -24    2    1    2    0    0 -0.57300278004E+02  0.15643754329E+03  0.93596650954E+02  0.20775410481E+03  0.81519373087E+02 0.  0.
        -13    1    3    3    0    0  0.38069812690E+02  0.22056989122E+02 -0.14835053385E+03  0.15473752712E+03  0.00000000000E+00 0.  1.
         14    1    3    3    0    0 -0.32292438170E+02 -0.14962617832E+02 -0.73882653056E+02  0.82008096661E+02  0.00000000000E+00 0. -1.
         13    1    5    5    0    0 -0.52900027922E+02  0.16565006951E+03  0.81853795624E+02  0.19219365843E+03  0.00000000000E+00 0. -1.
        -14    1    5    5    0    0 -0.44002500827E+01 -0.92125262272E+01  0.11742855330E+02  0.15560446381E+02  0.00000000000E+00 0.  1.
          5    1    4    4  501    0  0.54242006370E+02 -0.15997348506E+03 -0.27876740895E+02  0.17125506200E+03  0.41800000000E+01 0.  1.
         -5    1    4    4    0  501 -0.27191028854E+01 -0.35584295161E+01 -0.56996250177E+02  0.57324522461E+02  0.41800000000E+01 0.  1.
</event>
<event>
11    1  0.1078607E-008  0.1371041E+03  0.7561462E-02  0.1110836E+00
         22   -1    0    0    0    0  0.00000000000E+00  0.00000000000E+00  0.10673653437E+04  0.10673653437E+04  0.00000000000E+00 0.  1.
         22   -1    0    0    0    0 -0.00000000000E+00 -0.00000000000E+00 -0.24945960906E+03  0.24945960906E+03  0.00000000000E+00 0.  1.
        -24    2    1    2    0    0  0.10722877477E+02  0.16020806406E+02 -0.18863700160E+03  0.20038187099E+03  0.64786800432E+02 0.  0.
         25    2    1    2    0    0 -0.27710957376E+02  0.38027984890E+02  0.32545238354E+02  0.13755372738E+03  0.12509120906E+03 0.  0.
         24    2    1    2    0    0  0.16988079899E+02 -0.54048791296E+02  0.97399749791E+03  0.97888935441E+03  0.79645310851E+02 0.  0.
        -13    1    5    5    0    0 -0.55958004975E+00 -0.30363163278E+02  0.87667020508E+03  0.87719603469E+03  0.00000000000E+00 0.  1.
         14    1    5    5    0    0  0.17547659949E+02 -0.23685628018E+02  0.97327292833E+02  0.10169331971E+03  0.00000000000E+00 0. -1.
         11    1    3    3    0    0  0.35156609195E+01  0.40686238534E+02 -0.97893693281E+02  0.10607028360E+03  0.00000000000E+00 0. -1.
        -12    1    3    3    0    0  0.72072165577E+01 -0.24665432129E+02 -0.90743308316E+02  0.94311587394E+02  0.00000000000E+00 0.  1.
          5    1    4    4  501    0 -0.20608951131E+02  0.39940443694E+02  0.78648397308E+02  0.90680817753E+02  0.41800000000E+01 0.  1.
         -5    1    4    4    0  501 -0.71020062459E+01 -0.19124588033E+01 -0.46103158954E+02  0.46872909627E+02  0.41800000000E+01 0.  1.
</event>
<event>
11    1  0.1078607E-008  0.1735541E+03  0.7561462E-02  0.1074980E+00
         22   -1    0    0    0    0  0.00000000000E+00  0.00000000000E+00  0.63678008156E+03  0.63678008156E+03  0.00000000000E+00 0. -1.
         22   -1    0    0    0    0 -0.00000000000E+00 -0.00000000000E+00 -0.27760851133E+03  0.27760851133E+03  0.00000000000E+00 0.  1.
         24    2    1    2    0    0 -0.52152373529E+02 -0.99590378365E+02 -0.15612819881E+03  0.20887671805E+03  0.81334834814E+02 0.  0.
         25    2    1    2    0    0  0.11581110679E+03  0.11174799807E+03  0.24838050247E+02  0.20533933642E+03  0.12508991492E+03 0.  0.
        -24    2    1    2    0    0 -0.63658733263E+02 -0.12157619703E+02  0.49046171879E+03  0.50017253842E+03  0.73618126474E+02 0.  0.
        -13    1    3    3    0    0 -0.54729811938E+01  0.43543149824E+01 -0.58239709705E+02  0.58658139832E+02  0.00000000000E+00 0.  1.
         14    1    3    3    0    0 -0.46679392335E+02 -0.10394469335E+03 -0.97888489105E+02  0.15021857822E+03  0.00000000000E+00 0. -1.
         11    1    5    5    0    0  0.27699593764E+01  0.22569958764E+02  0.13387120581E+03  0.13578871625E+03  0.00000000000E+00 0. -1.
        -12    1    5    5    0    0 -0.66428692639E+02 -0.34727578467E+02  0.35659051298E+03  0.36438382217E+03  0.00000000000E+00 0.  1.
          5    1    4    4  501    0 -0.17894906433E+02  0.34742980966E+02  0.32203324294E+02  0.50811700407E+02  0.41800000000E+01 0. -1.
         -5    1    4    4    0  501  0.13370601322E+03  0.77005017102E+02 -0.73652740460E+01  0.15452763602E+03  0.41800000000E+01 0. -1.
</event>
<event>
11    1  0.1078607E-008  0.1941829E+03  0.7561462E-02  0.1058715E+00
         22   -1    0    0    0    0  0.00000000000E+00  0.00000000000E+00  0.18327693968E+04  0.18327693968E+04  0.00000000000E+00 0.  1.
         22   -1    0    0    0    0 -0.00000000000E+00 -0.00000000000E+00 -0.10795365262E+04  0.10795365262E+04  0.00000000000E+00 0.  1.
         24    2    1    2    0    0  0.52815370366E+02  0.30596026877E+02 -0.98484629521E+03  0.99000771106E+03  0.80420535625E+02 0.  0.
         25    2    1    2    0    0 -0.94627433329E+02 -0.17101669449E+03  0.65083910497E+02  0.24100694181E+03  0.12508944664E+03 0.  0.
        -24    2    1    2    0    0  0.41812062963E+02  0.14042066761E+03  0.16729952553E+04  0.16812912702E+04  0.79755868272E+02 0.  0.
        -13    1    3    3    0    0  0.52739050515E+02  0.54494276646E+02 -0.67669427442E+03  0.68093037432E+03  0.00000000000E+00 0.  1.
         14    1    3    3    0    0  0.76319851063E-01 -0.23898249769E+02 -0.30815202080E+03  0.30907733674E+03  0.00000000000E+00 0. -1.
         13    1    5    5    0    0  0.92188735768E+01  0.66063884332E+02  0.38467898605E+03  0.39041944976E+03  0.00000000000E+00 0. -1.
        -14    1    5    5    0    0  0.32593189386E+02  0.74356783282E+02  0.12883162692E+04  0.12908718204E+04  0.00000000000E+00 0.  1.
          5    1    4    4  501    0 -0.11317310372E+03 -0.84612327489E+02  0.23721106859E+02  0.14334420351E+03  0.41800000000E+01 0.  1.
         -5    1    4    4    0  501  0.18545670390E+02 -0.86404367004E+02  0.41362803638E+02  0.97662738300E+02  0.41800000000E+01 0.  1.
</event>
<event>
11    1  0.1078607E-008  0.2519262E+03  0.7561462E-02  0.1022878E+00
         22   -1    0    0    0    0  0.00000000000E+00  0.00000000000E+00  0.50747852994E+03  0.50747852994E+03  0.00000000000E+00 0.  1.
         22   -1    0    0    0    0 -0.00000000000E+00 -0.00000000000E+00 -0.45289675235E+03  0.45289675235E+03  0.00000000000E+00 0.  1.
        -24    2    1    2    0    0  0.20622387796E+03 -0.39409775593E+02 -0.28695044978E+03  0.36410547567E+03  0.78427154276E+02 0.  0.
         25    2    1    2    0    0 -0.28707021556E+03 -0.58180160032E+02  0.14624080422E+03  0.35046639057E+03  0.12508428525E+03 0.  0.
         24    2    1    2    0    0  0.80846337596E+02  0.97589935625E+02  0.19529142315E+03  0.24580341605E+03  0.78871119869E+02 0.  0.
        -11    1    5    5    0    0  0.92805393255E+02  0.78767431466E+02  0.13632597442E+03  0.18276192322E+03  0.00000000000E+00 0.  1.
         12    1    5    5    0    0 -0.11959055659E+02  0.18822504159E+02  0.58965448722E+02  0.63041492829E+02  0.00000000000E+00 0. -1.
         11    1    3    3    0    0  0.12214366446E+01 -0.17838131704E+02 -0.26136379276E+02  0.31667036044E+02  0.00000000000E+00 0. -1.
        -12    1    3    3    0    0  0.20500244132E+03 -0.21571643889E+02 -0.26081407050E+03  0.33243843962E+03  0.00000000000E+00 0.  1.
          5    1    4    4  501    0 -0.13498673347E+03 -0.58360973807E+02  0.12072319051E+02  0.14761651250E+03  0.41800000000E+01 0. -1.
         -5    1    4    4    0  501 -0.15208348209E+03  0.18081377469E+00  0.13416848517E+03  0.20284987807E+03  0.41800000000E+01 0. -1.
</event>
<event>
11    1  0.1078607E-008  0.1436737E+03  0.7561462E-02  0.1103524E+00
         22   -1    0    0    0    0  0.00000000000E+00  0.00000000000E+00  0.28039738891E+03  0.28039738891E+03  0.00000000000E+00 0. -1.
         22   -1    0    0    0    0 -0.00000000000E+00 -0.00000000000E+00 -0.18779593281E+04  0.18779593281E+04  0.00000000000E+00 0. -1.
         24    2    1    2    0    0 -0.54251214944E+02  0.40980643561E+02 -0.16039379704E+04  0.16083714756E+04  0.98077435536E+02 0.  0.
         25    2    1    2    0    0  0.59410021219E+02 -0.89041300889E+02 -0.23693289401E+03  0.28852027706E+03  0.12509536411E+03 0.  0.
        -24    2    1    2    0    0 -0.51588062749E+01  0.48060657327E+02  0.24330892523E+03  0.26146496427E+03  0.82633252258E+02 0.  0.
        -11    1    3    3    0    0 -0.34182421427E+02 -0.27322439625E+02 -0.41412406757E+03  0.41642970233E+03  0.00000000000E+00 0.  1.
         12    1    3    3    0    0 -0.20068793517E+02  0.68303083186E+02 -0.11898139028E+04  0.11919417733E+04  0.00000000000E+00 0. -1.
         13    1    5    5    0    0 -0.10383532299E+02  0.14990183139E+02  0.21979974877E+03  0.22055487502E+03  0.00000000000E+00 0. -1.
        -14    1    5    5    0    0  0.52247260239E+01  0.33070474188E+02  0.23509176464E+02  0.40910089257E+02  0.00000000000E+00 0.  1.
          5    1    4    4  501    0  0.59832714356E+02 -0.62999260147E+02 -0.51222761930E+02  0.10094604611E+03  0.41800000000E+01 0. -1.
         -5    1    4    4    0  501 -0.42269313739E+00 -0.26042040742E+02 -0.18571013208E+03  0.18757423094E+03  0.41800000000E+01 0. -1.
</event>
<event>
11    1  0.1078607E-008  0.1330699E+03  0.7561462E-02  0.1115554E+00
         22   -1    0    0    0    0  0.00000000000E+00  0.00000000000E+00  0.32943670165E+03  0.32943670165E+03  0.00000000000E+00 0.  1.
         22   -1    0    0    0    0 -0.00000000000E+00 -0.00000000000E+00 -0.29938415117E+03  0.29938415117E+03  0.00000000000E+00 0.  1.
         24    2    1    2    0    0 -0.23648000081E+02 -0.38693987738E+02 -0.20302775067E+03  0.22338662672E+03  0.81393272826E+02 0.  0.
         25    2    1    2    0    0 -0.57587155750E+01  0.54814845814E+02 -0.19450575064E+02  0.13807302845E+03  0.12509199090E+03 0.  0.
        -24    2    1    2    0    0  0.29406715656E+02 -0.16120858076E+02  0.25253087622E+03  0.26736119765E+03  0.81151275837E+02 0.  0.
        -13    1    3    3    0    0 -0.48136645046E+02 -0.41262383904E+02 -0.17472368073E+03  0.18587115303E+03  0.00000000000E+00 0.  1.
         14    1    3    3    0    0  0.24488644965E+02  0.25683961652E+01 -0.28304069943E+02  0.37515473693E+02  0.00000000000E+00 0. -1.
         13    1    5    5    0    0 -0.24468985242E+02 -0.25655302606E+01  0.13670379764E+03  0.13890011330E+03  0.00000000000E+00 0. -1.
        -14    1    5    5    0    0  0.53875700898E+02 -0.13555327815E+02  0.11582707858E+03  0.12846108435E+03  0.00000000000E+00 0.  1.
          5    1    4    4  501    0 -0.60342675574E+01 -0.33503762394E+02  0.21659760920E+02  0.40565158974E+02  0.41800000000E+01 0.  1.
         -5    1    4    4    0  501  0.27555198241E+00  0.88318608208E+02 -0.41110335983E+02  0.97507869474E+02  0.41800000000E+01 0.  1.
</event>
<event>
11    1  0.1078607E-008  0.2722093E+03  0.7561462E-02  0.1012691E+00
         22   -1    0    0    0    0  0.00000000000E+00  0.00000000000E+00  0.50762096837E+03  0.50762096837E+03  0.00000000000E+00 0. -1.
         22   -1    0    0    0    0 -0.00000000000E+00 -0.00000000000E+00 -0.20760281815E+03  0.20760281815E+03  0.00000000000E+00 0. -1.
        -24    2    1    2    0    0  0.69050478067E+02  0.68712028890E+01  0.42133442867E+01  0.10582968669E+03  0.79793410533E+02 0.  0.
         25    2    1    2    0    0 -0.17625208066E+03  0.19357019636E+03  0.17222442446E+03  0.33740659787E+03  0.12509093913E+03 0.  0.
         24    2    1    2    0    0  0.10720160259E+03 -0.20044139925E+03  0.12358038147E+03  0.27198750196E+03  0.83881776361E+02 0.  0.
        -11    1    5    5    0    0  0.10888787333E+03 -0.14701147131E+03  0.11919964095E+03  0.21835177137E+03  0.00000000000E+00 0.  1.
         12    1    5    5    0    0 -0.16862707451E+01 -0.53429927937E+02  0.43807405210E+01  0.53635730589E+02  0.00000000000E+00 0. -1.
         11    1    3    3    0    0  0.40978603913E+02  0.43339813892E+02  0.35427945261E+00  0.59646550284E+02  0.00000000000E+00 0. -1.
        -12    1    3    3    0    0  0.28071874154E+02 -0.36468611003E+02  0.38590648341E+01  0.46183136407E+02  0.00000000000E+00 0.  1.
          5    1    4    4  501    0 -0.96271007008E+02  0.18502152594E+03  0.13645623486E+03  0.24927665010E+03  0.41800000000E+01 0.  1.
         -5    1    4    4    0  501 -0.79981073647E+02  0.85486704240E+01  0.35768189596E+02  0.88129947774E+02  0.41800000000E+01 0.  1.
</event>
<event>
11    1  0.1078607E-008  0.1657491E+03  0.7561462E-02  0.1081791E+00
         22   -1    0    0    0    0  0.00000000000E+00  0.00000000000E+00  0.60684934693E+03  0.60684934693E+03  0.00000000000E+00 0. -1.
         22   -1    0    0    0    0 -0.00000000000E+00 -0.00000000000E+00 -0.18685148360E+04  0.18685148360E+04  0.00000000000E+00 0.  1.
         24    2    1    2    0    0  0.24232780969E+02 -0.17630403895E+01 -0.17678029297E+04  0.17698212856E+04  0.80931135524E+02 0.  0.
         25    2    1    2    0    0  0.33591739736E+02 -0.91825904406E+02 -0.21280925461E+02  0.16018880253E+03  0.12508866043E+03 0.  0.
        -24    2    1    2    0    0 -0.57824520705E+02  0.93588944795E+02  0.52741836612E+03  0.54535409477E+03  0.84488993259E+02 0.  0.
        -11    1    3    3    0    0  0.50076295107E+02  0.15896809037E+02 -0.12111307085E+04  0.12122697459E+04  0.00000000000E+00 0.  1.
         12    1    3    3    0    0 -0.25843514138E+02 -0.17659849427E+02 -0.55667222126E+03  0.55755153970E+03  0.00000000000E+00 0. -1.
         11    1    5    5    0    0 -0.53104683657E+02  0.78513678337E+02  0.51874307552E+03  0.52733185330E+03  0.00000000000E+00 0. -1.
        -12    1    5    5    0    0 -0.47198370482E+01  0.15075266458E+02  0.86752906052E+01  0.18022241470E+02  0.00000000000E+00 0.  1.
          5    1    4    4  501    0  0.77775741241E+01  0.28361683135E+02 -0.22368099638E+02  0.37184405480E+02  0.41800000000E+01 0.  1.
         -5    1    4    4    0  501  0.25814165612E+02 -0.12018758754E+03  0.10871741763E+01  0.12300439705E+03  0.41800000000E+01 0.  1.
</event>
<event>
11    1  0.1078607E-008  0.2037410E+03  0.7561462E-02  0.1051909E+00
         22   -1    0    0    0    0  0.00000000000E+00  0.00000000000E+00  0.15682561330E+04  0.15682561330E+04  0.00000000000E+00 0. -1.
         22   -1    0    0    0    0 -0.00000000000E+00 -0.00000000000E+00 -0.32777238430E+03  0.32777238430E+03  0.00000000000E+00 0. -1.
         24    2    1    2    0    0  0.15548225048E+03  0.46644451440E+02 -0.26944901849E+03  0.32515882267E+03  0.82310699960E+02 0.  0.
         25    2    1    2    0    0 -0.12752404679E+03 -0.73046647023E+02  0.29390851627E+03  0.35160501008E+03  0.12508266077E+03 0.  0.
        -24    2    1    2    0    0 -0.27958203693E+02  0.26402195583E+02  0.12160242509E+04  0.12192646845E+04  0.80079055062E+02 0.  0.
        -13    1    3    3    0    0  0.77842811529E+02  0.12383798808E+01 -0.63636653528E+02  0.10055178051E+03  0.00000000000E+00 0.  1.
         14    1    3    3    0    0  0.77639438955E+02  0.45406071559E+02 -0.20581236496E+03  0.22460704216E+03  0.00000000000E+00 0. -1.
         13    1    5    5    0    0 -0.21036415182E+02 -0.15813794060E+02  0.89687542545E+03  0.89726146447E+03  0.00000000000E+00 0. -1.
        -14    1    5    5    0    0 -0.69217885119E+01  0.42215989643E+02  0.31914882544E+03  0.32200322004E+03  0.00000000000E+00 0.  1.
          5    1    4    4  501    0 -0.15019719919E+03 -0.58184493562E+02  0.21942056506E+03  0.27222691033E+03  0.41800000000E+01 0.  1.
         -5    1    4    4    0  501  0.22673152396E+02 -0.14862153461E+02  0.74487951211E+02  0.79378099755E+02  0.41800000000E+01 0.  1.
</event>
<event>
11    1  0.1078607E-008  0.1303448E+03  0.7561462E-02  0.1118846E+00
         22   -1    0    0    0    0  0.00000000000E+00  0.00000000000E+00  0.14205866503E+04  0.14205866503E+04  0.00000000000E+00 0.  1.
         22   -1    0    0    0    0 -0.00000000000E+00 -0.00000000000E+00 -0.58112197948E+03  0.58112197948E+03  0.00000000000E+00 0.  1.
        -24    2    1    2    0    0  0.10541014055E+02 -0.68162951837E+01 -0.52740001964E+03  0.53375440200E+03  0.81150514982E+02 0.  0.
         25    2    1    2    0    0  0.22881403919E+02  0.22269586561E+02  0.35743423276E+02  0.13395862031E+03  0.12509127274E+03 0.  0.
         24    2    1    2    0    0 -0.33422417974E+02 -0.15453291378E+02  0.13311212672E+04  0.13339956074E+04  0.79401451865E+02 0.  0.
        -11    1    5    5    0    0 -0.59188079215E+02 -0.45390538401E+01  0.94362556994E+03  0.94549090317E+03  0.00000000000E+00 0.  1.
         12    1    5    5    0    0  0.25765661241E+02 -0.10914237537E+02  0.38749569723E+03  0.38850470428E+03  0.00000000000E+00 0. -1.
         13    1    3    3    0    0  0.41745435061E+02  0.14422515410E+02 -0.30293839753E+03  0.30614108349E+03  0.00000000000E+00 0. -1.
        -14    1    3    3    0    0 -0.31204421006E+02 -0.21238810593E+02 -0.22446162211E+03  0.22761331852E+03  0.00000000000E+00 0.  1.
          5    1    4    4  501    0  0.30127051020E+02 -0.25610874656E+02  0.65749054082E+02  0.76837273614E+02  0.41800000000E+01 0.  1.
         -5    1    4    4    0  501 -0.72456471015E+01  0.47880461217E+02 -0.30005630805E+02  0.57121346695E+02  0.41800000000E+01 0.  1.
</event>
<event>
11    1  0.1078607E-008  0.1694150E+03  0.7561462E-02  0.1078542E+00
         22   -1    0    0    0    0  0.00000000000E+00  0.00000000000E+00  0.25713733054E+03  0.25713733054E+03  0.00000000000E+00 0.  1.
         22   -1    0    0    0    0 -0.00000000000E+00 -0.00000000000E+00 -0.88716100047E+03  0.88716100047E+03  0.00000000000E+00 0. -1.
        -24    2    1    2    0    0 -0.31539540279E+02  0.37738283688E+02 -0.45332684580E+03  0.46355355932E+03  0.83413143895E+02 0.  0.
         25    2    1    2    0    0  0.45778127919E+02 -0.14894631131E+03 -0.38234154194E+03  0.43141334631E+03  0.12510707428E+03 0.  0.
         24    2    1    2    0    0 -0.14238587640E+02  0.11120802763E+03  0.20564471781E+03  0.24933142539E+03  0.85477756966E+02 0.  0.
        -13    1    5    5    0    0 -0.46939257568E+02  0.62617377327E+02  0.87003242163E+02  0.11702048535E+03  0.00000000000E+00 0.  1.
         14    1    5    5    0    0  0.32700669928E+02  0.48590650299E+02  0.11864147565E+03  0.13231094004E+03  0.00000000000E+00 0. -1.
         13    1    3    3    0    0 -0.15807701101E+02 -0.26138482193E+02 -0.16653633893E+03  0.16931466519E+03  0.00000000000E+00 0. -1.
        -14    1    3    3    0    0 -0.15731839178E+02  0.63876765881E+02 -0.28679050688E+03  0.29423889413E+03  0.00000000000E+00 0.  1.
          5    1    4    4  501    0  0.56161448503E+02 -0.20257881982E+02 -0.19406753239E+03  0.20308660617E+03  0.41800000000E+01 0.  1.
         -5    1    4    4    0  501 -0.10383320584E+02 -0.12868842933E+03 -0.18827400955E+03  0.22832674014E+03  0.41800000000E+01 0.  1.
</event>
<event>
11    1  0.1078607E-008  0.1960257E+03  0.7561462E-02  0.1057370E+00
         22   -1    0    0    0    0  0.00000000000E+00  0.00000000000E+00  0.23865736043E+03  0.23865736043E+03  0.00000000000E+00 0.  1.
         22   -1    0    0    0    0 -0.00000000000E+00 -0.00000000000E+00 -0.11560619609E+04  0.11560619609E+04  0.00000000000E+00 0. -1.
        -24    2    1    2    0    0 -0.11468330478E+03 -0.96801196759E+02 -0.97730667427E+03  0.99197843359E+03  0.79813188433E+02 0.  0.
         25    2    1    2    0    0  0.60133583108E+02  0.17465317151E+03 -0.57764678314E+02  0.23044296960E+03  0.12508967200E+03 0.  0.
         24    2    1    2    0    0  0.54549721668E+02 -0.77851974752E+02  0.11766675210E+03  0.17229791814E+03  0.82489429256E+02 0.  0.
        -13    1    5    5    0    0  0.17257234561E+02 -0.52191261095E+02  0.11438849548E+03  0.12691125946E+03  0.00000000000E+00 0.  1.
         14    1    5    5    0    0  0.37292487108E+02 -0.25660713657E+02  0.32782566251E+01  0.45386658685E+02  0.00000000000E+00 0. -1.
         11    1    3    3    0    0 -0.56711107640E+02 -0.32804736807E+02 -0.21402921657E+03  0.22383209339E+03  0.00000000000E+00 0. -1.
        -12    1    3    3    0    0 -0.57972197137E+02 -0.63996459953E+02 -0.76327745771E+03  0.76814634021E+03  0.00000000000E+00 0.  1.
          5    1    4    4  501    0 -0.14297101771E+02 -0.68066242879E+01 -0.27413499523E+02  0.31932892280E+02  0.41800000000E+01 0.  1.
         -5    1    4    4    0  501  0.74430684878E+02  0.18145979580E+03 -0.30351178790E+02  0.19851007732E+03  0.41800000000E+01 0.  1.
</event>
<event>
11    1  0.1078607E-008  0.3303561E+03  0.7561462E-02  0.9881039E-01
         22   -1    0    0    0    0  0.00000000000E+00  0.00000000000E+00  0.65838940513E+03  0.65838940513E+03  0.00000000000E+00 0. -1.
         22   -1    0    0    0    0 -0.00000000000E+00 -0.00000000000E+00 -0.11256735776E+04  0.11256735776E+04  0.00000000000E+00 0. -1.
         24    2    1    2    0    0 -0.10915062025E+03 -0.28203110691E+03 -0.95079090358E+03  0.10009870920E+04  0.80724301089E+02 0.  0.
         25    2    1    2    0    0 -0.27479024893E+02  0.39866708088E+03  0.34097469780E+03  0.54000146169E+03  0.12508915183E+03 0.  0.
        -24    2    1    2    0    0  0.13662964515E+03 -0.11663597397E+03  0.14253203333E+03  0.24307442904E+03  0.80611334012E+02 0.  0.
        -13    1    3    3    0    0 -0.16224354030E+02 -0.77292209127E+02 -0.36685888636E+03  0.37526358437E+03  0.00000000000E+00 0.  1.
         14    1    3    3    0    0 -0.92926266224E+02 -0.20473889779E+03 -0.58393201722E+03  0.62572350760E+03  0.00000000000E+00 0. -1.
         13    1    5    5    0    0  0.14596093093E+03 -0.11575367021E+03  0.14087109083E+03  0.23355549610E+03  0.00000000000E+00 0. -1.
        -14    1    5    5    0    0 -0.93312857862E+01 -0.88230375636E+00  0.16609425007E+01  0.95189329409E+01  0.00000000000E+00 0.  1.
          5    1    4    4  501    0 -0.61141391977E+01  0.24596172283E+03  0.12897547011E+03  0.27782493784E+03  0.41800000000E+01 0.  1.
         -5    1    4    4    0  501 -0.21364885695E+02  0.15270535805E+03  0.21199922769E+03  0.26217652385E+03  0.41800000000E+01 0.  1.
</event>
<event>
11    1  0.1078607E-008  0.3248193E+03  0.7561462E-02  0.9902019E-01
         22   -1    0    0    0    0  0.00000000000E+00  0.00000000000E+00  0.32341492261E+04  0.32341492261E+04  0.00000000000E+00 0. -1.
         22   -1    0    0    0    0 -0.00000000000E+00 -0.00000000000E+00 -0.11302483423E+03  0.11302483423E+03  0.00000000000E+00 0. -1.
        -24    2    1    2    0    0  0.19388004919E+03 -0.43801321444E+02  0.20959457603E+03  0.29944302827E+03  0.78919019532E+02 0.  0.
         25    2    1    2    0    0  0.86343951803E+02  0.20049128582E+03  0.21486879751E+03  0.33085944910E+03  0.12508933293E+03 0.  0.
         24    2    1    2    0    0 -0.28022400099E+03 -0.15668996437E+03  0.26966610183E+04  0.27168715829E+04  0.79582126269E+02 0.  0.
        -13    1    5    5    0    0 -0.68035018049E+01 -0.27555229963E+02  0.22600664988E+03  0.22778187840E+03  0.00000000000E+00 0.  1.
         14    1    5    5    0    0 -0.27342049919E+03 -0.12913473441E+03  0.24706543684E+04  0.24890897045E+04  0.00000000000E+00 0. -1.
         13    1    3    3    0    0  0.18210509533E+03 -0.30058149882E+02  0.15209421160E+03  0.23916188518E+03  0.00000000000E+00 0. -1.
        -14    1    3    3    0    0  0.11774953861E+02 -0.13743171562E+02  0.57500364430E+02  0.60281143093E+02  0.00000000000E+00 0.  1.
          5    1    4    4  501    0  0.10579646164E+03  0.20274798519E+03  0.18170615200E+03  0.29212024043E+03  0.41800000000E+01 0.  1.
         -5    1    4    4    0  501 -0.19452509842E+02 -0.22566993690E+01  0.33162645508E+02  0.38739208669E+02  0.41800000000E+01 0.  1.
</event>
<event>
11    1  0.1078607E-008  0.1464184E+03  0.7561462E-02  0.1100596E+00
         22   -1    0    0    0    0  0.00000000000E+00  0.00000000000E+00  0.58975713823E+03  0.58975713823E+03  0.00000000000E+00 0. -1.
         22   -1    0    0    0    0 -0.00000000000E+00 -0.00000000000E+00 -0.27158567659E+03  0.27158567659E+03  0.00000000000E+00 0.  1.
         24    2    1    2    0    0 -0.75528731418E+02 -0.19736258907E+01 -0.21752891341E+03  0.24332068366E+03  0.78597980014E+02 0.  0.
         25    2    1    2    0    0  0.83415923700E+02 -0.40611003278E+02  0.13203958413E+03  0.20417970896E+03  0.12508969526E+03 0.  0.
        -24    2    1    2    0    0 -0.78871922816E+01  0.42584629169E+02  0.40366079092E+03  0.41384242220E+03  0.80298554442E+02 0.  0.
        -11    1    3    3    0    0 -0.66621960836E+02 -0.27377922088E+02 -0.19610971931E+03  0.20891878396E+03  0.00000000000E+00 0.  1.
         12    1    3    3    0    0 -0.89067705819E+01  0.25404296197E+02 -0.21419194095E+02  0.34401899703E+02  0.00000000000E+00 0. -1.
         13    1    5    5    0    0 -0.25809680133E+02  0.12217783359E+02  0.33892814103E+03  0.34012894408E+03  0.00000000000E+00 0. -1.
        -14    1    5    5    0    0  0.17922487851E+02  0.30366845809E+02  0.64732649883E+02  0.73713478117E+02  0.00000000000E+00 0.  1.
          5    1    4    4  501    0 -0.28167509987E+02 -0.74970365629E+01  0.61053543535E+02  0.67783639282E+02  0.41800000000E+01 0.  1.
         -5    1    4    4    0  501  0.11158343369E+03 -0.33113966715E+02  0.70986040592E+02  0.13639606968E+03  0.41800000000E+01 0.  1.
</event>
<event>
11    1  0.1078607E-008  0.2743785E+03  0.7561462E-02  0.1011658E+00
         22   -1    0    0    0    0  0.00000000000E+00  0.00000000000E+00  0.13990255887E+04  0.13990255887E+04  0.00000000000E+00 0.  1.
         22   -1    0    0    0    0 -0.00000000000E+00 -0.00000000000E+00 -0.14063349492E+04  0.14063349492E+04  0.00000000000E+00 0. -1.
        -24    2    1    2    0    0  0.21087988270E+03  0.12179510697E+03 -0.13589029003E+04  0.13841715797E+04  0.10004747175E+03 0.  0.
         25    2    1    2    0    0 -0.26094166254E+03 -0.12207156757E+03  0.76404806722E+03  0.82608034829E+03  0.12508906407E+03 0.  0.
         24    2    1    2    0    0  0.50061779844E+02  0.27646060055E+00  0.58754547254E+03  0.59510860994E+03  0.80239124469E+02 0.  0.
        -11    1    5    5    0    0  0.56376810255E+02  0.42372123397E+01  0.58421487303E+03  0.58694404893E+03  0.00000000000E+00 0.  1.
         12    1    5    5    0    0 -0.63150304113E+01 -0.39607517391E+01  0.33305995052E+01  0.81645610108E+01  0.00000000000E+00 0. -1.
         11    1    3    3    0    0  0.21473880034E+03  0.10304213327E+03 -0.13131202623E+04  0.13345468357E+04  0.00000000000E+00 0. -1.
        -12    1    3    3    0    0 -0.38589176458E+01  0.18752973707E+02 -0.45782638016E+02  0.49624743949E+02  0.00000000000E+00 0.  1.
          5    1    4    4  501    0 -0.68461405583E+01 -0.33886417784E+02  0.36734049809E+02  0.50616417951E+02  0.41800000000E+01 0.  1.
         -5    1    4    4    0  501 -0.25409552198E+03 -0.88185149789E+02  0.72731401742E+03  0.77546393034E+03  0.41800000000E+01 0.  1.
</event>
<event>
11    1  0.1078607E-008  0.2087944E+03  0.7561462E-02  0.1048473E+00
         22   -1    0    0    0    0  0.00000000000E+00  0.00000000000E+00  0.17308482383E+04  0.17308482383E+04  0.00000000000E+00 0. -1.
         22   -1    0    0    0    0 -0.00000000000E+00 -0.00000000000E+00 -0.94769093152E+03  0.94769093152E+03  0.00000000000E+00 0. -1.
         24    2    1    2    0    0 -0.27882271423E+02 -0.32599715381E+02 -0.83865890570E+03  0.84443277059E+03  0.88756866961E+02 0.  0.
         25    2    1    2    0    0 -0.22280900118E+02  0.19088905930E+03  0.29384024688E+02  0.23118275597E+03  0.12508786624E+03 0.  0.
        -24    2    1    2    0    0  0.50163171541E+02 -0.15828934391E+03  0.15924321878E+04  0.16029236433E+04  0.77149680851E+02 0.  0.
        -13    1    3    3    0    0  0.30805742834E+02  0.35366962496E+00 -0.22675396170E+03  0.22883723041E+03  0.00000000000E+00 0.  1.
         14    1    3    3    0    0 -0.58688014257E+02 -0.32953385006E+02 -0.61190494399E+03  0.61559554018E+03  0.00000000000E+00 0. -1.
         11    1    5    5    0    0  0.68432345215E+02 -0.11128635636E+03  0.10343664800E+04  0.10425841232E+04  0.00000000000E+00 0. -1.
        -12    1    5    5    0    0 -0.18269173674E+02 -0.47002987550E+02  0.55806570783E+03  0.56033952011E+03  0.00000000000E+00 0.  1.
          5    1    4    4  501    0 -0.72039439713E+02  0.84054520318E+02  0.22582871342E+02  0.11305884193E+03  0.41800000000E+01 0. -1.
         -5    1    4    4    0  501  0.49758539595E+02  0.10683453898E+03  0.68011533456E+01  0.11812391404E+03  0.41800000000E+01 0. -1.
</event>
<event>
11    1  0.1078607E-008  0.1791066E+03  0.7561462E-02  0.1070368E+00
         22   -1    0    0    0    0  0.00000000000E+00  0.00000000000E+00  0.60115576820E+03  0.60115576820E+03  0.00000000000E+00 0. -1.
         22   -1    0    0    0    0 -0.00000000000E+00 -0.00000000000E+00 -0.74142096241E+03  0.74142096241E+03  0.00000000000E+00 0.  1.
        -24    2    1    2    0    0 -0.12398917465E+03  0.34746630143E+02 -0.64885590603E+03  0.66680461438E+03  0.83867533823E+02 0.  0.
         25    2    1    2    0    0  0.84887757915E+02 -0.13027193710E+03  0.59309831824E+02  0.20818997738E+03  0.12509477003E+03 0.  0.
         24    2    1    2    0    0  0.39101416737E+02  0.95525306960E+02  0.44928088000E+03  0.46758213884E+03  0.78267121912E+02 0.  0.
        -11    1    5    5    0    0  0.39153199145E+02  0.34042302264E+02  0.97268172310E+02  0.11024041315E+03  0.00000000000E+00 0.  1.
         12    1    5    5    0    0 -0.51782408368E-01  0.61483004696E+02  0.35201270769E+03  0.35734172569E+03  0.00000000000E+00 0. -1.
         11    1    3    3    0    0 -0.44554177107E+02  0.15423852840E+02 -0.86298941382E+02  0.98338584583E+02  0.00000000000E+00 0. -1.
        -12    1    3    3    0    0 -0.79434997544E+02  0.19322777303E+02 -0.56255696465E+03  0.56846602980E+03  0.00000000000E+00 0.  1.
          5    1    4    4  501    0  0.85275430899E+02 -0.33443632283E+02 -0.50736683223E+01  0.91834580445E+02  0.41800000000E+01 0.  1.
         -5    1    4    4    0  501 -0.38767298441E+00 -0.96828304820E+02  0.64383500147E+02  0.11635539693E+03  0.41800000000E+01 0.  1.
</event>
<event>
11    1  0.1078607E-008  0.1690777E+03  0.7561462E-02  0.1078837E+00
         22   -1    0    0    0    0  0.00000000000E+00  0.00000000000E+00  0.20675534751E+04  0.20675534751E+04  0.00000000000E+00 0.  1.
         22   -1    0    0    0    0 -0.00000000000E+00 -0.00000000000E+00 -0.60330372913E+03  0.60330372913E+03  0.00000000000E+00 0.  1.
         24    2    1    2    0    0 -0.22185434507E+02  0.10323455275E+03 -0.44844208788E+03  0.46711645357E+03  0.77122685537E+02 0.  0.
         25    2    1    2    0    0  0.18824363120E+02 -0.19817844223E+03 -0.47274615816E+02  0.23981467147E+03  0.12508851162E+03 0.  0.
        -24    2    1    2    0    0  0.33610713875E+01  0.94943889473E+02  0.19599664497E+04  0.19639260792E+04  0.80694001054E+02 0.  0.
        -13    1    3    3    0    0 -0.15896683172E+02  0.11260104731E+03 -0.34954045995E+03  0.36757343964E+03  0.00000000000E+00 0.  1.
         14    1    3    3    0    0 -0.62887513356E+01 -0.93664945511E+01 -0.98901627934E+02  0.99543013927E+02  0.00000000000E+00 0. -1.
         11    1    5    5    0    0  0.14177399380E+02  0.35425788581E+00  0.63194701159E+02  0.64766460505E+02  0.00000000000E+00 0. -1.
        -12    1    5    5    0    0 -0.10816327993E+02  0.94589631587E+02  0.18967717485E+04  0.18991596187E+04  0.00000000000E+00 0.  1.
          5    1    4    4  501    0  0.51691987560E+02 -0.23524310417E+02 -0.17456758041E+02  0.59562283030E+02  0.41800000000E+01 0. -1.
         -5    1    4    4    0  501 -0.32867624440E+02 -0.17465413181E+03 -0.29817857775E+02  0.18025238844E+03  0.41800000000E+01 0. -1.
</event>
<event>
11    1  0.1078607E-008  0.1562220E+03  0.7561462E-02  0.1090685E+00
         22   -1    0    0    0    0  0.00000000000E+00  0.00000000000E+00  0.10162647230E+04  0.10162647230E+04  0.00000000000E+00 0.  1.
         22   -1    0    0    0    0 -0.00000000000E+00 -0.00000000000E+00 -0.24038866048E+04  0.24038866048E+04  0.00000000000E+00 0. -1.
         24    2    1    2    0    0 -0.38622647678E+02  0.32610564942E+02 -0.23258649687E+04  0.23272306655E+04  0.61640570527E+02 0.  0.
         25    2    1    2    0    0  0.12959278008E+03 -0.20543463984E+02  0.38900493603E+02  0.18541062279E+03  0.12509007986E+03 0.  0.
        -24    2    1    2    0    0 -0.90970132399E+02 -0.12067100958E+02  0.89934259326E+03  0.90751003956E+03  0.79600200689E+02 0.  0.
        -11    1    3    3    0    0  0.44166386644E+01 -0.78530971699E+01 -0.10101785579E+04  0.10102187371E+04  0.00000000000E+00 0.  1.
         12    1    3    3    0    0 -0.43039286343E+02  0.40463662112E+02 -0.13156864107E+04  0.13170119284E+04  0.00000000000E+00 0. -1.
         11    1    5    5    0    0 -0.13377977040E+02 -0.17809998846E+02  0.51574174519E+02  0.56178837705E+02  0.00000000000E+00 0. -1.
        -12    1    5    5    0    0 -0.77592155358E+02  0.57428978882E+01  0.84776841874E+03  0.85133120186E+03  0.00000000000E+00 0.  1.
          5    1    4    4  501    0  0.10087467995E+03 -0.23591582693E+02 -0.32191070200E+02  0.10856335122E+03  0.41800000000E+01 0. -1.
         -5    1    4    4    0  501  0.28718100132E+02  0.30481187091E+01  0.71091563803E+02  0.76847271564E+02  0.41800000000E+01 0. -1.
</event>
<event>
11    1  0.1078607E-008  0.1713325E+03  0.7561462E-02  0.1076878E+00
         22   -1    0    0    0    0  0.00000000000E+00  0.00000000000E+00  0.13894761845E+04  0.13894761845E+04  0.00000000000E+00 0.  1.
         22   -1    0    0    0    0 -0.00000000000E+00 -0.00000000000E+00 -0.43869310719E+03  0.43869310719E+03  0.00000000000E+00 0.  1.
         24    2    1    2    0    0 -0.57264958230E+02  0.33762143183E+02 -0.24831752762E+03  0.26936707387E+03  0.80485204908E+02 0.  0.
         25    2    1    2    0    0 -0.59257403193E+02 -0.53223992772E+02 -0.14489902742E+03  0.20733197162E+03  0.12508631047E+03 0.  0.
        -24    2    1    2    0    0  0.11652236142E+03  0.19461849589E+02  0.13439996324E+04  0.13514702462E+04  0.78616730663E+02 0.  0.
        -13    1    3    3    0    0 -0.33627310719E+02  0.44188713497E+02 -0.23257821421E+03  0.23911516922E+03  0.00000000000E+00 0.  1.
         14    1    3    3    0    0 -0.23637647511E+02 -0.10426570314E+02 -0.15739313412E+02  0.30251904652E+02  0.00000000000E+00 0. -1.
         11    1    5    5    0    0  0.28641536669E+00 -0.14656220187E+02  0.31905838698E+03  0.31939496102E+03  0.00000000000E+00 0. -1.
        -12    1    5    5    0    0  0.11623594606E+03  0.34118069776E+02  0.10249412454E+04  0.10320752852E+04  0.00000000000E+00 0.  1.
          5    1    4    4  501    0 -0.60630104681E+02  0.94401326178E+01 -0.15400976789E+02  0.63401799529E+02  0.41800000000E+01 0.  1.
         -5    1    4    4    0  501  0.13727014886E+01 -0.62664125390E+02 -0.12949805063E+03  0.14393017209E+03  0.41800000000E+01 0.  1.
</event>
<event>
11    1  0.1078607E-008  0.1323237E+03  0.7561462E-02  0.1116446E+00
         22   -1    0    0    0    0  0.00000000000E+00  0.00000000000E+00  0.81186443970E+02  0.81186443970E+02  0.00000000000E+00 0. -1.
         22   -1    0    0    0    0 -0.00000000000E+00 -0.00000000000E+00 -0.77328397828E+03  0.77328397828E+03  0.00000000000E+00 0.  1.
         24    2    1    2    0    0 -0.21149645082E+02 -0.48835164150E+02 -0.44554315516E+03  0.45866520555E+03  0.95041501099E+02 0.  0.
         25    2    1    2    0    0  0.36457522110E+02  0.20516369942E+01 -0.26946454131E+03  0.29932156142E+03  0.12509555537E+03 0.  0.
        -24    2    1    2    0    0 -0.15307877028E+02  0.46783527156E+02  0.22910162156E+02  0.96483655282E+02  0.79757073004E+02 0.  0.
        -13    1    3    3    0    0  0.20222326084E+02 -0.62196594499E+02 -0.27435064932E+03  0.28203836197E+03  0.00000000000E+00 0.  1.
         14    1    3    3    0    0 -0.41371971166E+02  0.13361430349E+02 -0.17119250584E+03  0.17662684359E+03  0.00000000000E+00 0. -1.
         13    1    5    5    0    0 -0.29903015324E+02  0.59457795252E+02  0.33428116078E+02  0.74477236027E+02  0.00000000000E+00 0. -1.
        -14    1    5    5    0    0  0.14595138297E+02 -0.12674268096E+02 -0.10517953922E+02  0.22006419254E+02  0.00000000000E+00 0.  1.
          5    1    4    4  501    0 -0.29568085690E+00 -0.25793677486E+02 -0.22776108788E+00  0.26132843330E+02  0.41800000000E+01 0.  1.
         -5    1    4    4    0  501  0.36753202967E+02  0.27845314480E+02 -0.26923678022E+03  0.27318871809E+03  0.41800000000E+01 0.  1.
</event>
<event>
11    1  0.1078607E-008  0.1386876E+03  0.7561462E-02  0.1109033E+00
         22   -1    0    0    0    0  0.00000000000E+00  0.00000000000E+00  0.12183424597E+04  0.12183424597E+04  0.00000000000E+00 0.  1.
         22   -1    0    0    0    0 -0.00000000000E+00 -0.00000000000E+00 -0.31953431685E+04  0.31953431685E+04  0.00000000000E+00 0. -1.
         24    2    1    2    0    0  0.57792951762E+02 -0.10005046385E+02 -0.29019670558E+04  0.29037196186E+04  0.82065243385E+02 0.  0.
         25    2    1    2    0    0 -0.84627742186E+02  0.30182639624E+02 -0.27055290845E+03  0.31131886758E+03  0.12509082523E+03 0.  0.
        -24    2    1    2    0    0  0.26834790424E+02 -0.20177593238E+02  0.11955192555E+04  0.11986471420E+04  0.79758633190E+02 0.  0.
        -11    1    3    3    0    0  0.43370958801E+02  0.33186349127E+01 -0.56562756697E+03  0.56729762728E+03  0.00000000000E+00 0.  1.
         12    1    3    3    0    0  0.14421992961E+02 -0.13323681298E+02 -0.23363394889E+04  0.23364219913E+04  0.00000000000E+00 0. -1.
         13    1    5    5    0    0  0.96898930310E+01 -0.32833467127E+02  0.20062895080E+03  0.20352863801E+03  0.00000000000E+00 0. -1.
        -14    1    5    5    0    0  0.17144897393E+02  0.12655873889E+02  0.99489030468E+03  0.99511850399E+03  0.00000000000E+00 0.  1.
          5    1    4    4  501    0  0.12030080426E+02  0.13266404457E+02 -0.16915837064E+03  0.17015506775E+03  0.41800000000E+01 0. -1.
         -5    1    4    4    0  501 -0.96657822612E+02  0.16916235167E+02 -0.10139453781E+03  0.14116379983E+03  0.41800000000E+01 0. -1.
</event>
<event>
11    1  0.1078607E-008  0.1339691E+03  0.7561462E-02  0.1114486E+00
         22   -1    0    0    0    0  0.00000000000E+00  0.00000000000E+00  0.17258817514E+04  0.17258817514E+04  0.00000000000E+00 0. -1.
         22   -1    0    0    0    0 -0.00000000000E+00 -0.00000000000E+00 -0.26297889991E+02  0.26297889991E+02  0.00000000000E+00 0. -1.
         24    2    1    2    0    0 -0.46150868913E+02 -0.26845628504E+02  0.11222522958E+03  0.14631524402E+03  0.77220839201E+02 0.  0.
         25    2    1    2    0    0  0.27825893144E+02 -0.15819268861E+00  0.55643808423E+03  0.57100235052E+03  0.12508412117E+03 0.  0.
        -24    2    1    2    0    0  0.18324975769E+02  0.27003821193E+02  0.10309205476E+04  0.10348620468E+04  0.84126508565E+02 0.  0.
        -11    1    3    3    0    0 -0.47771393667E+02 -0.46133410787E+02  0.10755184138E+03  0.12640330782E+03  0.00000000000E+00 0.  1.
         12    1    3    3    0    0  0.16205247536E+01  0.19287782283E+02  0.46733881974E+01  0.19911936197E+02  0.00000000000E+00 0. -1.
         13    1    5    5    0    0  0.35086262388E+02  0.44816830401E+00  0.88048060508E+03  0.88117951780E+03  0.00000000000E+00 0. -1.
        -14    1    5    5    0    0 -0.16761286619E+02  0.26555652889E+02  0.15043994251E+03  0.15368252903E+03  0.00000000000E+00 0.  1.
          5    1    4    4  501    0 -0.49568171847E+02 -0.51328908471E+01  0.24217352802E+03  0.24728291551E+03  0.41800000000E+01 0.  1.
         -5    1    4    4    0  501  0.77394064990E+02  0.49746981585E+01  0.31426455620E+03  0.32371943501E+03  0.41800000000E+01 0.  1.
</event>
<event>
11    1  0.1078607E-008  0.1617797E+03  0.7561462E-02  0.1085415E+00
         22   -1    0    0    0    0  0.00000000000E+00  0.00000000000E+00  0.15596061454E+04  0.15596061454E+04  0.00000000000E+00 0. -1.
         22   -1    0    0    0    0 -0.00000000000E+00 -0.00000000000E+00 -0.24607004540E+03  0.24607004540E+03  0.00000000000E+00 0. -1.
        -24    2    1    2    0    0 -0.86407038225E+02 -0.33479070719E+02 -0.10961052115E+03  0.16332254404E+03  0.77927932178E+02 0.  0.
         25    2    1    2    0    0  0.10808717129E+03  0.80514221359E+02 -0.29736210962E+02  0.18627539812E+03  0.12509558451E+03 0.  0.
         24    2    1    2    0    0 -0.21680133066E+02 -0.47035150640E+02  0.14528828322E+04  0.14560782487E+04  0.81320407824E+02 0.  0.
        -13    1    5    5    0    0 -0.30004839030E+01  0.22027025718E+02  0.21970038417E+03  0.22082221712E+03  0.00000000000E+00 0.  1.
         14    1    5    5    0    0 -0.18679649163E+02 -0.69062176357E+02  0.12331824480E+04  0.12352560316E+04  0.00000000000E+00 0. -1.
         11    1    3    3    0    0 -0.70553739074E+02 -0.57315042108E+02 -0.93805103780E+02  0.13062251584E+03  0.00000000000E+00 0. -1.
        -12    1    3    3    0    0 -0.15853299151E+02  0.23835971389E+02 -0.15805417374E+02  0.32700028202E+02  0.00000000000E+00 0.  1.
          5    1    4    4  501    0  0.27712106640E+02  0.59934707792E+02  0.40427321538E+02  0.77536899469E+02  0.41800000000E+01 0. -1.
         -5    1    4    4    0  501  0.80375064651E+02  0.20579513567E+02 -0.70163532500E+02  0.10873849865E+03  0.41800000000E+01 0. -1.
</event>
<event>
11    1  0.1078607E-008  0.1353646E+03  0.7561462E-02  0.1112848E+00
         22   -1    0    0    0    0  0.00000000000E+00  0.00000000000E+00  0.40514105352E+03  0.40514105352E+03  0.00000000000E+00 0.  1.
         22   -1    0    0    0    0 -0.00000000000E+00 -0.00000000000E+00 -0.61845953091E+03  0.61845953091E+03  0.00000000000E+00 0. -1.
        -24    2    1    2    0    0 -0.28825918465E+02  0.68476300563E+01 -0.51488474872E+03  0.52201793709E+03  0.80737838473E+02 0.  0.
         25    2    1    2    0    0  0.78384130430E+02 -0.39930324309E+00 -0.35538127451E+02  0.15183766464E+03  0.12508991388E+03 0.  0.
         24    2    1    2    0    0 -0.49558211965E+02 -0.64483268132E+01  0.33710439878E+03  0.34974498269E+03  0.78642100377E+02 0.  0.
        -13    1    5    5    0    0 -0.13274559791E+02 -0.40730521564E+02  0.17237078362E+03  0.17761440361E+03  0.00000000000E+00 0.  1.
         14    1    5    5    0    0 -0.36283652173E+02  0.34282194751E+02  0.16473361516E+03  0.17213057908E+03  0.00000000000E+00 0. -1.
         13    1    3    3    0    0  0.13595422165E+02 -0.27315102257E+02 -0.14802023035E+03  0.15113219017E+03  0.00000000000E+00 0. -1.
        -14    1    3    3    0    0 -0.42421340630E+02  0.34162732313E+02 -0.36686451838E+03  0.37088574692E+03  0.00000000000E+00 0.  1.
          5    1    4    4  501    0 -0.15456102498E+02  0.38654784560E+02  0.53883984234E+01  0.42185195405E+02  0.41800000000E+01 0. -1.
         -5    1    4    4    0  501  0.93840232928E+02 -0.39054087803E+02 -0.40926525874E+02  0.10965246924E+03  0.41800000000E+01 0. -1.
</event>
<event>
11    1  0.1078607E-008  0.1499867E+03  0.7561462E-02  0.1096892E+00
         22   -1    0    0    0    0  0.00000000000E+00  0.00000000000E+00  0.10537034225E+04  0.10537034225E+04  0.00000000000E+00 0.  1.
         22   -1    0    0    0    0 -0.00000000000E+00 -0.00000000000E+00 -0.10520501598E+04  0.10520501598E+04  0.00000000000E+00 0.  1.
        -24    2    1    2    0    0 -0.57806547590E+02 -0.61239047783E+02 -0.88166129581E+03  0.88937411571E+03  0.81042329970E+02 0.  0.
         25    2    1    2    0    0  0.84479735442E+02  0.13632852712E+02 -0.12925231009E+03  0.19918962404E+03  0.12509063229E+03 0.  0.
         24    2    1    2    0    0 -0.26673187852E+02  0.47606195070E+02  0.10125668685E+04  0.10171898425E+04  0.80035640369E+02 0.  0.
        -11    1    5    5    0    0 -0.18235653803E+01  0.63723301468E+02  0.80502084145E+03  0.80754104522E+03  0.00000000000E+00 0.  1.
         12    1    5    5    0    0 -0.24849622471E+02 -0.16117106397E+02  0.20754602709E+03  0.20964879732E+03  0.00000000000E+00 0. -1.
         13    1    3    3    0    0 -0.33823674306E+02 -0.79598420961E+02 -0.63089471387E+03  0.63679517080E+03  0.00000000000E+00 0. -1.
        -14    1    3    3    0    0 -0.23982873284E+02  0.18359373179E+02 -0.25076658194E+03  0.25257894491E+03  0.00000000000E+00 0.  1.
          5    1    4    4  501    0  0.96772467091E+02  0.43237818882E+02 -0.57882565182E+02  0.12083990699E+03  0.41800000000E+01 0. -1.
         -5    1    4    4    0  501 -0.12292731650E+02 -0.29604966170E+02 -0.71369744907E+02  0.78349717048E+02  0.41800000000E+01 0. -1.
</event>
<event>
11    1  0.1078607E-008  0.2912214E+03  0.7561462E-02  0.1003976E+00
         22   -1    0    0    0    0  0.00000000000E+00  0.00000000000E+00  0.12639396268E+04  0.12639396268E+04  0.00000000000E+00 0. -1.
         22   -1    0    0    0    0 -0.00000000000E+00 -0.00000000000E+00 -0.13909959854E+03  0.13909959854E+03  0.00000000000E+00 0. -1.
         24    2    1    2    0    0 -0.22629722166E+03  0.22844521408E+03  0.24634849455E+03  0.41308874413E+03  0.80975807488E+02 0.  0.
         25    2    1    2    0    0  0.15055720863E+03 -0.14410875463E+03  0.25946773093E+03  0.35553581149E+03  0.12508958241E+03 0.  0.
        -24    2    1    2    0    0  0.75740013034E+02 -0.84336459449E+02  0.61902380281E+03  0.63441466973E+03  0.80264044020E+02 0.  0.
        -13    1    3    3    0    0 -0.15929091440E+03  0.12647852377E+03  0.11435116521E+03  0.23333795527E+03  0.00000000000E+00 0.  1.
         14    1    3    3    0    0 -0.67006307264E+02  0.10196669031E+03  0.13199732934E+03  0.17975078887E+03  0.00000000000E+00 0. -1.
         11    1    5    5    0    0  0.18823258388E+02 -0.59956094187E+02  0.17194818013E+03  0.18307163881E+03  0.00000000000E+00 0. -1.
        -12    1    5    5    0    0  0.56916754646E+02 -0.24380365262E+02  0.44707562268E+03  0.45134303093E+03  0.00000000000E+00 0.  1.
          5    1    4    4  501    0  0.21689776823E+02 -0.76583491946E+02  0.32861558072E+02  0.86213873919E+02  0.41800000000E+01 0. -1.
         -5    1    4    4    0  501  0.12886743180E+03 -0.67525262685E+02  0.22660617286E+03  0.26932193757E+03  0.41800000000E+01 0. -1.
</event>
<event>
11    1  0.1078607E-008  0.1981355E+03  0.7561462E-02  0.1055850E+00
         22   -1    0    0    0    0  0.00000000000E+00  0.00000000000E+00  0.11199602520E+04  0.11199602520E+04  0.00000000000E+00 0. -1.
         22   -1    0    0    0    0 -0.00000000000E+00 -0.00000000000E+00 -0.83841818793E+03  0.83841818793E+03  0.00000000000E+00 0. -1.
        -24    2    1    2    0    0  0.14546887099E+03  0.49543740217E+02 -0.79571000746E+03  0.81437056062E+03  0.80182413356E+02 0.  0.
         25    2    1    2    0    0 -0.12314677984E+03 -0.11217746550E+03  0.33452697094E+03  0.39408570101E+03  0.12508530011E+03 0.  0.
         24    2    1    2    0    0 -0.22322091154E+02  0.62633725280E+02  0.74272510057E+03  0.74992217828E+03  0.79507478649E+02 0.  0.
        -13    1    5    5    0    0 -0.14915473316E+02 -0.14286547130E+02  0.76811669821E+02  0.79539986131E+02  0.00000000000E+00 0.  1.
         14    1    5    5    0    0 -0.74066178384E+01  0.76920272410E+02  0.66591343075E+03  0.67038219215E+03  0.00000000000E+00 0. -1.
         13    1    3    3    0    0  0.10507212929E+03  0.31040650222E+02 -0.70388045750E+03  0.71235621200E+03  0.00000000000E+00 0. -1.
        -14    1    3    3    0    0  0.40396741699E+02  0.18503089995E+02 -0.91829549957E+02  0.10201434862E+03  0.00000000000E+00 0.  1.
          5    1    4    4  501    0  0.55982259307E+01 -0.55965608079E+02  0.44649097373E+02  0.71934023365E+02  0.41800000000E+01 0. -1.
         -5    1    4    4    0  501 -0.12874500577E+03 -0.56211857418E+02  0.28987787357E+03  0.32215167765E+03  0.41800000000E+01 0. -1.
</event>
<event>
11    1  0.1078607E-008  0.1818306E+03  0.7561462E-02  0.1068172E+00
         22   -1    0    0    0    0  0.00000000000E+00  0.00000000000E+00  0.64972203431E+02  0.64972203431E+02  0.00000000000E+00 0. -1.
         22   -1    0    0    0    0 -0.00000000000E+00 -0.00000000000E+00 -0.22998744016E+04  0.22998744016E+04  0.00000000000E+00 0.  1.
         24    2    1    2    0    0  0.92936014187E+02 -0.10452798730E+03 -0.19793898766E+04  0.19860133356E+04  0.81862584849E+02 0.  0.
         25    2    1    2    0    0 -0.15225017160E+02  0.83056809415E+02 -0.20607951064E+03  0.25543551702E+03  0.12509318091E+03 0.  0.
        -24    2    1    2    0    0 -0.77710997027E+02  0.21471177889E+02 -0.49432811008E+02  0.12339775248E+03  0.79267849554E+02 0.  0.
        -11    1    3    3    0    0  0.55789473208E+02 -0.23206649089E+02 -0.45365588899E+03  0.45766218928E+03  0.00000000000E+00 0.  1.
         12    1    3    3    0    0  0.37146540979E+02 -0.81321338215E+02 -0.15257339876E+04  0.15283511463E+04  0.00000000000E+00 0. -1.
         11    1    5    5    0    0 -0.12636233993E+02  0.37451375999E+02 -0.39100080600E+02  0.55597628336E+02  0.00000000000E+00 0. -1.
        -12    1    5    5    0    0 -0.65074763034E+02 -0.15980198110E+02 -0.10332730408E+02  0.67800124139E+02  0.00000000000E+00 0.  1.
          5    1    4    4  501    0 -0.41309892709E+01 -0.30919862546E+02 -0.74957668051E+02  0.81297154759E+02  0.41800000000E+01 0. -1.
         -5    1    4    4    0  501 -0.11094027889E+02  0.11397667196E+03 -0.13112184259E+03  0.17413836226E+03  0.41800000000E+01 0. -1.
</event>
<event>
11    1  0.1078607E-008  0.1978479E+03  0.7561462E-02  0.1056056E+00
         22   -1    0    0    0    0  0.00000000000E+00  0.00000000000E+00  0.14843356966E+04  0.14843356966E+04  0.00000000000E+00 0. -1.
         22   -1    0    0    0    0 -0.00000000000E+00 -0.00000000000E+00 -0.35100302600E+03  0.35100302600E+03  0.00000000000E+00 0.  1.
         24    2    1    2    0    0 -0.25613749251E+02 -0.59787916324E+02 -0.27511038254E+03  0.29387900317E+03  0.80302470891E+02 0.  0.
         25    2    1    2    0    0  0.11490214790E+02  0.20740105413E+03  0.18137860159E+03  0.30280954469E+03  0.12509276938E+03 0.  0.
        -24    2    1    2    0    0  0.14123534461E+02 -0.14761313780E+03  0.12270644516E+04  0.12386501748E+04  0.81104712838E+02 0.  0.
        -11    1    3    3    0    0 -0.31015833194E+02 -0.44087961765E+02 -0.71250335894E+02  0.89343945773E+02  0.00000000000E+00 0.  1.
         12    1    3    3    0    0  0.54020839433E+01 -0.15699954560E+02 -0.20386004665E+03  0.20453505739E+03  0.00000000000E+00 0. -1.
         13    1    5    5    0    0  0.34801164139E+02 -0.85308309481E+02  0.92260210114E+03  0.92719106214E+03  0.00000000000E+00 0. -1.
        -14    1    5    5    0    0 -0.20677629678E+02 -0.62304828322E+02  0.30446235045E+03  0.31145911264E+03  0.00000000000E+00 0.  1.
          5    1    4    4  501    0  0.66188329027E+02  0.81074500242E+02  0.79686910954E+02  0.13161096332E+03  0.41800000000E+01 0.  1.
         -5    1    4    4    0  501 -0.54698114238E+02  0.12632655389E+03  0.10169169064E+03  0.17119858137E+03  0.41800000000E+01 0.  1.
</event>
<event>
11    1  0.1078607E-008  0.1632303E+03  0.7561462E-02  0.1084078E+00
         22   -1    0    0    0    0  0.00000000000E+00  0.00000000000E+00  0.62297104846E+03  0.62297104846E+03  0.00000000000E+00 0. -1.
         22   -1    0    0    0    0 -0.00000000000E+00 -0.00000000000E+00 -0.40352469878E+04  0.40352469878E+04  0.00000000000E+00 0.  1.
         24    2    1    2    0    0 -0.29952912837E+02 -0.27978125952E+02 -0.14817395355E+04  0.14847293630E+04  0.84789609056E+02 0.  0.
         25    2    1    2    0    0 -0.12559372683E+02  0.12379602547E+03 -0.25415319377E+04  0.25476489875E+04  0.12509028408E+03 0.  0.
        -24    2    1    2    0    0  0.42512285520E+02 -0.95817899520E+02  0.61099553391E+03  0.62583968574E+03  0.85856889660E+02 0.  0.
        -11    1    3    3    0    0 -0.10559060144E+02 -0.19506514268E+02 -0.14035806328E+04  0.14037558871E+04  0.00000000000E+00 0.  1.
         12    1    3    3    0    0 -0.19393852693E+02 -0.84716116837E+01 -0.78158902707E+02  0.80973475899E+02  0.00000000000E+00 0. -1.
         13    1    5    5    0    0  0.49662089095E+02 -0.10866172461E+03  0.56710043878E+03  0.57954861845E+03  0.00000000000E+00 0. -1.
        -14    1    5    5    0    0 -0.71498035750E+01  0.12843825088E+02  0.43895095133E+02  0.46291067290E+02  0.00000000000E+00 0.  1.
          5    1    4    4  501    0 -0.12669355651E+02  0.60135346759E+02 -0.36344301574E+03  0.36862592230E+03  0.41800000000E+01 0.  1.
         -5    1    4    4    0  501  0.10998296767E+00  0.63660678713E+02 -0.21780889220E+04  0.21790230652E+04  0.41800000000E+01 0.  1.
</event>
<event>
11    1  0.1078607E-008  0.1361026E+03  0.7561462E-02  0.1111990E+00
         22   -1    0    0    0    0  0.00000000000E+00  0.00000000000E+00  0.32455530294E+03  0.32455530294E+03  0.00000000000E+00 0.  1.
         22   -1    0    0    0    0 -0.00000000000E+00 -0.00000000000E+00 -0.71368470166E+03  0.71368470166E+03  0.00000000000E+00 0.  1.
         24    2    1    2    0    0  0.36975341291E+02  0.38083636193E+02 -0.58711974163E+03  0.59524954156E+03  0.82431101592E+02 0.  0.
         25    2    1    2    0    0 -0.59143916568E+02 -0.24783365601E+02 -0.73052934050E+02  0.15841660875E+03  0.12508746011E+03 0.  0.
        -24    2    1    2    0    0  0.22168575277E+02 -0.13300270592E+02  0.27104327697E+03  0.28457385429E+03  0.82761570950E+02 0.  0.
        -11    1    3    3    0    0  0.52740522960E+02  0.53853703602E+02 -0.47351294632E+03  0.47947501967E+03  0.00000000000E+00 0.  1.
         12    1    3    3    0    0 -0.15765181669E+02 -0.15770067409E+02 -0.11360679531E+03  0.11577452190E+03  0.00000000000E+00 0. -1.
         11    1    5    5    0    0 -0.57650076783E+01  0.21205210027E+02  0.20252889935E+02  0.29884373786E+02  0.00000000000E+00 0. -1.
        -12    1    5    5    0    0  0.27933582955E+02 -0.34505480620E+02  0.25079038703E+03  0.25468948050E+03  0.00000000000E+00 0.  1.
          5    1    4    4  501    0  0.37971063275E+02 -0.16279381962E+02 -0.11649023420E+02  0.43127625368E+02  0.41800000000E+01 0.  1.
         -5    1    4    4    0  501 -0.97114979843E+02 -0.85039836388E+01 -0.61403910631E+02  0.11528898338E+03  0.41800000000E+01 0.  1.
</event>
<event>
11    1  0.1078607E-008  0.1676103E+03  0.7561462E-02  0.1080130E+00
         22   -1    0    0    0    0  0.00000000000E+00  0.00000000000E+00  0.46993987092E+03  0.46993987092E+03  0.00000000000E+00 0. -1.
         22   -1    0    0    0    0 -0.00000000000E+00 -0.00000000000E+00 -0.80535791119E+02  0.80535791119E+02  0.00000000000E+00 0.  1.
        -24    2    1    2    0    0  0.94361429013E+02  0.69891965897E+02  0.75223071452E+02  0.15688087824E+03  0.71861904345E+02 0.  0.
         25    2    1    2    0    0 -0.91115925446E+02 -0.41321076765E+02  0.23583823011E+03  0.28508713025E+03  0.12508180442E+03 0.  0.
         24    2    1    2    0    0 -0.32455035662E+01 -0.28570889132E+02  0.78342778240E+02  0.10850765355E+03  0.69350493711E+02 0.  0.
        -11    1    5    5    0    0 -0.38387263033E+01 -0.50742955825E+02  0.42234327798E+02  0.66131095788E+02  0.00000000000E+00 0.  1.
         12    1    5    5    0    0  0.59322273718E+00  0.22172066694E+02  0.36108450442E+02  0.42376557765E+02  0.00000000000E+00 0. -1.
         11    1    3    3    0    0  0.84622232123E+01 -0.14530904436E+02  0.13390617758E+02  0.21495698392E+02  0.00000000000E+00 0. -1.
        -12    1    3    3    0    0  0.85899205800E+02  0.84422870333E+02  0.61832453693E+02  0.13538517985E+03  0.00000000000E+00 0.  1.
          5    1    4    4  501    0 -0.98820266918E+02 -0.10526436141E+02  0.23251527266E+03  0.25289736145E+03  0.41800000000E+01 0. -1.
         -5    1    4    4    0  501  0.77043414720E+01 -0.30794640624E+02  0.33229574501E+01  0.32189768792E+02  0.41800000000E+01 0. -1.
</event>
<event>
11    1  0.1078607E-008  0.1712154E+03  0.7561462E-02  0.1076979E+00
         22   -1    0    0    0    0  0.00000000000E+00  0.00000000000E+00  0.18561269303E+04  0.18561269303E+04  0.00000000000E+00 0. -1.
         22   -1    0    0    0    0 -0.00000000000E+00 -0.00000000000E+00 -0.86884744028E+03  0.86884744028E+03  0.00000000000E+00 0.  1.
        -24    2    1    2    0    0  0.10643635151E+02 -0.11637597017E+03 -0.80437713690E+03  0.81683728768E+03  0.80894516285E+02 0.  0.
         25    2    1    2    0    0 -0.46732548489E+02  0.11387817555E+03  0.77812643659E+02  0.19197456365E+03  0.12508899080E+03 0.  0.
         24    2    1    2    0    0  0.36088913338E+02  0.24977946225E+01  0.17138439833E+04  0.17161625193E+04  0.81510397259E+02 0.  0.
        -11    1    5    5    0    0  0.27558494433E+02  0.92751832890E+00  0.16455602135E+03  0.16685027740E+03  0.00000000000E+00 0.  1.
         12    1    5    5    0    0  0.85304189051E+01  0.15702762936E+01  0.15492879619E+04  0.15493122419E+04  0.00000000000E+00 0. -1.
         11    1    3    3    0    0  0.10161643088E+02 -0.34294178314E+02 -0.50934836323E+03  0.51060268779E+03  0.00000000000E+00 0. -1.
        -12    1    3    3    0    0  0.48199206368E+00 -0.82081791861E+02 -0.29502877367E+03  0.30623459988E+03  0.00000000000E+00 0.  1.
          5    1    4    4  501    0 -0.84792844204E+01  0.13223813109E+03  0.54112866116E+02  0.14319391139E+03  0.41800000000E+01 0.  1.
         -5    1    4    4    0  501 -0.38253264069E+02 -0.18359955541E+02  0.23699777543E+02  0.48780652261E+02  0.41800000000E+01 0.  1.
</event>
<event>
11    1  0.1078607E-008  0.1489585E+03  0.7561462E-02  0.1097948E+00
         22   -1    0    0    0    0  0.00000000000E+00  0.00000000000E+00  0.34022231852E+03  0.34022231852E+03  0.00000000000E+00 0. -1.
         22   -1    0    0    0    0 -0.00000000000E+00 -0.00000000000E+00 -0.80493340064E+03  0.80493340064E+03  0.00000000000E+00 0.  1.
        -24    2    1    2    0    0  0.59119417980E+02  0.55714365446E+02 -0.74044120156E+03  0.74918682347E+03  0.80178097996E+02 0.  0.
         25    2    1    2    0    0 -0.13784574285E+02 -0.88052495757E+02  0.70038634184E+02  0.16880843236E+03  0.12509044752E+03 0.  0.
         24    2    1    2    0    0 -0.45334843695E+02  0.32338130311E+02  0.20569148526E+03  0.22716046333E+03  0.78688539618E+02 0.  0.
        -11    1    5    5    0    0 -0.48838368713E+02 -0.10829473275E+02  0.81436094515E+02  0.95573538387E+02  0.00000000000E+00 0.  1.
         12    1    5    5    0    0  0.35035250180E+01  0.43167603586E+02  0.12425539074E+03  0.13158692494E+03  0.00000000000E+00 0. -1.
         13    1    3    3    0    0  0.47083797937E+02  0.17706801492E+02 -0.16826193186E+03  0.17562030794E+03  0.00000000000E+00 0. -1.
        -14    1    3    3    0    0  0.12035620043E+02  0.38007563954E+02 -0.57217926970E+03  0.57356651553E+03  0.00000000000E+00 0.  1.
          5    1    4    4  501    0  0.37114880599E+02 -0.65310239336E+02  0.82370823052E+02  0.11155880339E+03  0.41800000000E+01 0. -1.
         -5    1    4    4    0  501 -0.50899454884E+02 -0.22742256421E+02 -0.12332188868E+02  0.57249628967E+02  0.41800000000E+01 0. -1.
</event>
<event>
11    1  0.1078607E-008  0.1682702E+03  0.7561462E-02  0.1079547E+00
         22   -1    0    0    0    0  0.00000000000E+00  0.00000000000E+00  0.10700261630E+04  0.10700261630E+04  0.00000000000E+00 0.  1.
         22   -1    0    0    0    0 -0.00000000000E+00 -0.00000000000E+00 -0.56976421398E+03  0.56976421398E+03  0.00000000000E+00 0.  1.
         24    2    1    2    0    0  0.61243991617E+02 -0.45012347031E+02 -0.52245731113E+03  0.53397326647E+03  0.79930403845E+02 0.  0.
         25    2    1    2    0    0  0.35623406801E+02  0.10844484923E+03  0.16440788003E+03  0.23602384065E+03  0.12509192582E+03 0.  0.
        -24    2    1    2    0    0 -0.96867398417E+02 -0.63432502204E+02  0.85831138014E+03  0.86979326987E+03  0.80218026695E+02 0.  0.
        -11    1    3    3    0    0  0.57090289415E+02  0.69938184536E+01 -0.24581420015E+03  0.25245363067E+03  0.00000000000E+00 0.  1.
         12    1    3    3    0    0  0.41537022020E+01 -0.52006165485E+02 -0.27664311098E+03  0.28151963580E+03  0.00000000000E+00 0. -1.
         11    1    5    5    0    0 -0.16945651376E+02 -0.43682223623E+01  0.41969051409E+03  0.42005519171E+03  0.00000000000E+00 0. -1.
        -12    1    5    5    0    0 -0.79921747041E+02 -0.59064279841E+02  0.43862086606E+03  0.44973807816E+03  0.00000000000E+00 0.  1.
          5    1    4    4  501    0  0.55869503149E+02  0.12786526206E+03  0.14709267657E+03  0.20279214611E+03  0.41800000000E+01 0. -1.
         -5    1    4    4    0  501 -0.20246096349E+02 -0.19420412822E+02  0.17315203457E+02  0.33231694544E+02  0.41800000000E+01 0. -1.
</event>
<event>
11    1  0.1078607E-008  0.1541562E+03  0.7561462E-02  0.1092706E+00
         22   -1    0    0    0    0  0.00000000000E+00  0.00000000000E+00  0.16897320899E+04  0.16897320899E+04  0.00000000000E+00 0. -1.
         22   -1    0    0    0    0 -0.00000000000E+00 -0.00000000000E+00 -0.42245885955E+03  0.42245885955E+03  0.00000000000E+00 0. -1.
        -24    2    1    2    0    0  0.69809499068E+02 -0.56030025278E+02 -0.39600483996E+03  0.41400181101E+03  0.81024294877E+02 0.  0.
         25    2    1    2    0    0 -0.85999279935E+02  0.91981731559E+02  0.51616573903E+03  0.54582941905E+03  0.12508464918E+03 0.  0.
         24    2    1    2    0    0  0.16189780867E+02 -0.35951706281E+02  0.11471123313E+04  0.11523597194E+04  0.10252603622E+03 0.  0.
        -13    1    5    5    0    0  0.13783973843E+01  0.31190922007E+02  0.61948709298E+03  0.62027335262E+03  0.00000000000E+00 0.  1.
         14    1    5    5    0    0  0.14811383483E+02 -0.67142628289E+02  0.52762523834E+03  0.53208636682E+03  0.00000000000E+00 0. -1.
         11    1    3    3    0    0  0.37588330211E+02 -0.74125465254E+02 -0.29342977217E+03  0.30497294694E+03  0.00000000000E+00 0. -1.
        -12    1    3    3    0    0  0.32221168857E+02  0.18095439976E+02 -0.10257506779E+03  0.10902886408E+03  0.00000000000E+00 0.  1.
          5    1    4    4  501    0 -0.55546013810E+02  0.11730632878E+03  0.45221111004E+03  0.47048750766E+03  0.41800000000E+01 0. -1.
         -5    1    4    4    0  501 -0.30453266126E+02 -0.25324597224E+02  0.63954628991E+02  0.75341911388E+02  0.41800000000E+01 0. -1.
</event>
<event>
11    1  0.1078607E-008  0.1768621E+03  0.7561462E-02  0.1072210E+00
         22   -1    0    0    0    0  0.00000000000E+00  0.00000000000E+00  0.57351739883E+03  0.57351739883E+03  0.00000000000E+00 0.  1.
         22   -1    0    0    0    0 -0.00000000000E+00 -0.00000000000E+00 -0.43802138052E+03  0.43802138052E+03  0.00000000000E+00 0.  1.
         24    2    1    2    0    0 -0.15313523467E+02  0.50895031012E+02 -0.30920824842E+03  0.32396485781E+03  0.80738342956E+02 0.  0.
         25    2    1    2    0    0  0.37343197135E+02 -0.16894910327E+03 -0.65630940516E+01  0.21360891574E+03  0.12508949122E+03 0.  0.
        -24    2    1    2    0    0 -0.22029673668E+02  0.11805407226E+03  0.45126736078E+03  0.47396500580E+03  0.81108108877E+02 0.  0.
        -13    1    3    3    0    0 -0.21045229785E+02  0.92093377454E+01 -0.25148977432E+03  0.25253676997E+03  0.00000000000E+00 0.  1.
         14    1    3    3    0    0  0.57317063185E+01  0.41685693266E+02 -0.57718474094E+02  0.71428087838E+02  0.00000000000E+00 0. -1.
         11    1    5    5    0    0 -0.33887220518E+02  0.12449490884E+02  0.15700025242E+03  0.16109752574E+03  0.00000000000E+00 0. -1.
        -12    1    5    5    0    0  0.11857546850E+02  0.10560458137E+03  0.29426710836E+03  0.31286748007E+03  0.00000000000E+00 0.  1.
          5    1    4    4  501    0  0.67454845053E+02 -0.16437268998E+03 -0.22220881536E+02  0.17910828375E+03  0.41800000000E+01 0. -1.
         -5    1    4    4    0  501 -0.30111647918E+02 -0.45764132891E+01  0.15657787485E+02  0.34500631992E+02  0.41800000000E+01 0. -1.
</event>
<event>
11    1  0.1078607E-008  0.1778151E+03  0.7561462E-02  0.1071424E+00
         22   -1    0    0    0    0  0.00000000000E+00  0.00000000000E+00  0.46253481940E+02  0.46253481940E+02  0.00000000000E+00 0.  1.
         22   -1    0    0    0    0 -0.00000000000E+00 -0.00000000000E+00 -0.18189276666E+04  0.18189276666E+04  0.00000000000E+00 0.  1.
         24    2    1    2    0    0 -0.12233423387E+01 -0.12903388153E+02 -0.12111487560E+04  0.12137905614E+04  0.78982426953E+02 0.  0.
         25    2    1    2    0    0  0.97374902861E+02 -0.73629932137E+02 -0.34628040211E+03  0.38789281803E+03  0.12508989880E+03 0.  0.
        -24    2    1    2    0    0 -0.96151560523E+02  0.86533320291E+02 -0.21524502657E+03  0.26349776914E+03  0.79796708989E+02 0.  0.
        -11    1    3    3    0    0  0.33630865731E+02  0.11717391883E+02 -0.42753605408E+03  0.42901679447E+03  0.00000000000E+00 0.  1.
         12    1    3    3    0    0 -0.34854208070E+02 -0.24620780036E+02 -0.78361270190E+03  0.78477376690E+03  0.00000000000E+00 0. -1.
         13    1    5    5    0    0  0.98244778277E+01  0.23512323817E+02 -0.19212790774E+02  0.31913650138E+02  0.00000000000E+00 0. -1.
        -14    1    5    5    0    0 -0.10597603835E+03  0.63020996474E+02 -0.19603223579E+03  0.23158411900E+03  0.00000000000E+00 0.  1.
          5    1    4    4  501    0 -0.25119507980E+01 -0.12579546993E+02  0.73512398928E+01  0.15364505437E+02  0.41800000000E+01 0. -1.
         -5    1    4    4    0  501  0.99886853659E+02 -0.61050385144E+02 -0.35363164200E+03  0.37252831260E+03  0.41800000000E+01 0. -1.
</event>
<event>
11    1  0.1078607E-008  0.2043341E+03  0.7561462E-02  0.1051500E+00
         22   -1    0    0    0    0  0.00000000000E+00  0.00000000000E+00  0.87081990391E+03  0.87081990391E+03  0.00000000000E+00 0. -1.
         22   -1    0    0    0    0 -0.00000000000E+00 -0.00000000000E+00 -0.44980195103E+03  0.44980195103E+03  0.00000000000E+00 0.  1.
        -24    2    1    2    0    0  0.14403839011E+03 -0.62805678813E+02 -0.28937108676E+03  0.33844647546E+03  0.78222629611E+02 0.  0.
         25    2    1    2    0    0 -0.17114781654E+03  0.51256688544E+02 -0.44360536183E+02  0.22256224260E+03  0.12508905402E+03 0.  0.
         24    2    1    2    0    0  0.27109426426E+02  0.11548990269E+02  0.75474957582E+03  0.75961313688E+03  0.80603320870E+02 0.  0.
        -11    1    5    5    0    0  0.52498276172E+02 -0.72940683935E+01  0.40877863571E+03  0.41220049181E+03  0.00000000000E+00 0.  1.
         12    1    5    5    0    0 -0.25388849745E+02  0.18843058662E+02  0.34597094012E+03  0.34741264507E+03  0.00000000000E+00 0. -1.
         11    1    3    3    0    0 -0.97928479012E+01 -0.31476060581E+01 -0.13092272546E+02  0.16649771600E+02  0.00000000000E+00 0. -1.
        -12    1    3    3    0    0  0.15383123801E+03 -0.59658072755E+02 -0.27627881421E+03  0.32179670386E+03  0.00000000000E+00 0.  1.
          5    1    4    4  501    0 -0.45002655724E+02 -0.16786527578E+02 -0.61509274029E+02  0.78152989206E+02  0.41800000000E+01 0. -1.
         -5    1    4    4    0  501 -0.12614516081E+03  0.68043216122E+02  0.17148737846E+02  0.14440925340E+03  0.41800000000E+01 0. -1.
</event>
<event>
11    1  0.1078607E-008  0.1859671E+03  0.7561462E-02  0.1064916E+00
         22   -1    0    0    0    0  0.00000000000E+00  0.00000000000E+00  0.18969414268E+04  0.18969414268E+04  0.00000000000E+00 0. -1.
         22   -1    0    0    0    0 -0.00000000000E+00 -0.00000000000E+00 -0.46967280786E+03  0.46967280786E+03  0.00000000000E+00 0. -1.
         24    2    1    2    0    0 -0.41239772819E+02 -0.61120466658E+02 -0.39969377369E+03  0.41529641869E+03  0.85320409898E+02 0.  0.
         25    2    1    2    0    0  0.12374399932E+03 -0.50762709524E+02  0.84880554718E+02  0.20184704578E+03  0.12509233100E+03 0.  0.
        -24    2    1    2    0    0 -0.82504226501E+02  0.11188317618E+03  0.17420818379E+04  0.17494707702E+04  0.80461501629E+02 0.  0.
        -11    1    3    3    0    0 -0.41072655622E+02  0.94586508076E+01 -0.15470850880E+03  0.16034697319E+03  0.00000000000E+00 0.  1.
         12    1    3    3    0    0 -0.16711719724E+00 -0.70579117466E+02 -0.24498526489E+03  0.25494944550E+03  0.00000000000E+00 0. -1.
         11    1    5    5    0    0 -0.70776910628E+02  0.93033147601E+02  0.16690680816E+04  0.16731565374E+04  0.00000000000E+00 0. -1.
        -12    1    5    5    0    0 -0.11727315873E+02  0.18850028581E+02  0.73013756388E+02  0.76314232859E+02  0.00000000000E+00 0.  1.
          5    1    4    4  501    0  0.12010679112E+03 -0.28107251543E+02  0.10468800778E+02  0.12386576223E+03  0.41800000000E+01 0.  1.
         -5    1    4    4    0  501  0.36372081966E+01 -0.22655457981E+02  0.74411753940E+02  0.77981283550E+02  0.41800000000E+01 0.  1.
</event>
<event>
11    1  0.1078607E-008  0.3150967E+03  0.7561462E-02  0.9939969E-01
         22   -1    0    0    0    0  0.00000000000E+00  0.00000000000E+00  0.33014344167E+03  0.33014344167E+03  0.00000000000E+00 0. -1.
         22   -1    0    0    0    0 -0.00000000000E+00 -0.00000000000E+00 -0.73967755538E+03  0.73967755538E+03  0.00000000000E+00 0. -1.
        -24    2    1    2    0    0  0.87548886102E+01 -0.24274608462E+03 -0.22982776307E+03  0.34384112769E+03  0.80022563944E+02 0.  0.
         25    2    1    2    0    0 -0.17190729538E+03  0.36807570894E+03 -0.24967473358E+03  0.49296656948E+03  0.12508685114E+03 0.  0.
         24    2    1    2    0    0  0.16315240677E+03 -0.12532962432E+03  0.69968382947E+02  0.23301329987E+03  0.84103512054E+02 0.  0.
        -13    1    5    5    0    0  0.48410850583E+02 -0.48688648352E+02  0.65599692360E+02  0.94960594829E+02  0.00000000000E+00 0.  1.
         14    1    5    5    0    0  0.11474155618E+03 -0.76640975970E+02  0.43686905872E+01  0.13805270504E+03  0.00000000000E+00 0. -1.
         13    1    3    3    0    0 -0.24420322277E+02 -0.19503193204E+03 -0.16360519666E+03  0.25573515016E+03  0.00000000000E+00 0. -1.
        -14    1    3    3    0    0  0.33175210887E+02 -0.47714152582E+02 -0.66222566412E+02  0.88105977528E+02  0.00000000000E+00 0.  1.
          5    1    4    4  501    0 -0.17765278407E+03  0.27630766354E+03 -0.22328508922E+03  0.39721548319E+03  0.41800000000E+01 0. -1.
         -5    1    4    4    0  501  0.57454886969E+01  0.91768045399E+02 -0.26389644355E+02  0.95751086291E+02  0.41800000000E+01 0. -1.
</event>
<event>
11    1  0.1078607E-008  0.1300882E+03  0.7561462E-02  0.1119161E+00
         22   -1    0    0    0    0  0.00000000000E+00  0.00000000000E+00  0.19312874490E+04  0.19312874490E+04  0.00000000000E+00 0. -1.
         22   -1    0    0    0    0 -0.00000000000E+00 -0.00000000000E+00 -0.13842650848E+04  0.13842650848E+04  0.00000000000E+00 0. -1.
        -24    2    1    2    0    0  0.41476664844E+01 -0.84650522182E+00 -0.13181645252E+04  0.13206338441E+04  0.80610887049E+02 0.  0.
         25    2    1    2    0    0 -0.36508787061E+02  0.15808834409E+02  0.36399267409E+01  0.13131349319E+03  0.12508866315E+03 0.  0.
         24    2    1    2    0    0  0.32361120577E+02 -0.14962329187E+02  0.18615469626E+04  0.18636051965E+04  0.79975751090E+02 0.  0.
        -11    1    5    5    0    0 -0.19144251712E+02  0.14399258489E+02  0.30921619285E+03  0.31014270093E+03  0.00000000000E+00 0.  1.
         12    1    5    5    0    0  0.51505372289E+02 -0.29361587676E+02  0.15523307698E+04  0.15534624955E+04  0.00000000000E+00 0. -1.
         11    1    3    3    0    0 -0.26702430474E+02  0.20236069781E+02 -0.94716643484E+03  0.94775881615E+03  0.00000000000E+00 0. -1.
        -12    1    3    3    0    0  0.30850096958E+02 -0.21082575003E+02 -0.37099809036E+03  0.37287502800E+03  0.00000000000E+00 0.  1.
          5    1    4    4  501    0 -0.14120064374E+02 -0.30057626466E+02  0.51367936546E+02  0.61310475709E+02  0.41800000000E+01 0. -1.
         -5    1    4    4    0  501 -0.22388722688E+02  0.45866460875E+02 -0.47728009805E+02  0.70003017483E+02  0.41800000000E+01 0. -1.
</event>
<event>
11    1  0.1078607E-008  0.2117340E+03  0.7561462E-02  0.1046523E+00
         22   -1    0    0    0    0  0.00000000000E+00  0.00000000000E+00  0.27292584682E+04  0.27292584682E+04  0.00000000000E+00 0. -1.
         22   -1    0    0    0    0 -0.00000000000E+00 -0.00000000000E+00 -0.72376119402E+03  0.72376119402E+03  0.00000000000E+00 0.  1.
        -24    2    1    2    0    0 -0.36236644616E+02 -0.15470108094E+02 -0.65154843633E+03  0.65743990707E+03  0.78482150020E+02 0.  0.
         25    2    1    2    0    0  0.18733067418E+03 -0.61450411827E+02  0.14149889583E+03  0.27301637066E+03  0.12508823495E+03 0.  0.
         24    2    1    2    0    0 -0.15109402956E+03  0.76920519921E+02  0.25155468146E+04  0.25225633845E+04  0.81265489502E+02 0.  0.
        -11    1    5    5    0    0 -0.68145049898E+02  0.23883554720E+02  0.57434940145E+03  0.57887080333E+03  0.00000000000E+00 0.  1.
         12    1    5    5    0    0 -0.82948979666E+02  0.53036965201E+02  0.19411974132E+04  0.19436925811E+04  0.00000000000E+00 0. -1.
         13    1    3    3    0    0 -0.10411613315E+02  0.31314781189E+02 -0.19473582960E+03  0.19751217821E+03  0.00000000000E+00 0. -1.
        -14    1    3    3    0    0 -0.25825031300E+02 -0.46784889283E+02 -0.45681260673E+03  0.45992772886E+03  0.00000000000E+00 0.  1.
          5    1    4    4  501    0  0.16678600846E+03 -0.16131015664E+02  0.61164003142E+02  0.17842726800E+03  0.41800000000E+01 0.  1.
         -5    1    4    4    0  501  0.20544665718E+02 -0.45319396163E+02  0.80334892692E+02  0.94589102659E+02  0.41800000000E+01 0.  1.
</event>
<event>
11    1  0.1078607E-008  0.2295848E+03  0.7561462E-02  0.1035374E+00
         22   -1    0    0    0    0  0.00000000000E+00  0.00000000000E+00  0.24913013332E+04  0.24913013332E+04  0.00000000000E+00 0.  1.
         22   -1    0    0    0    0 -0.00000000000E+00 -0.00000000000E+00 -0.39198677469E+03  0.39198677469E+03  0.00000000000E+00 0. -1.
         24    2    1    2    0    0  0.15572830657E+03 -0.11438583425E+03 -0.33388790168E+03  0.39397618870E+03  0.80004261303E+02 0.  0.
         25    2    1    2    0    0 -0.13123656159E+03  0.12821819342E+03  0.42809996643E+03  0.48226511978E+03  0.12508846579E+03 0.  0.
        -24    2    1    2    0    0 -0.24491744980E+02 -0.13832359174E+02  0.20051024937E+04  0.20070467994E+04  0.83723740890E+02 0.  0.
        -13    1    3    3    0    0  0.31888093164E+02 -0.70633181796E+02 -0.13407997820E+03  0.15486554623E+03  0.00000000000E+00 0.  1.
         14    1    3    3    0    0  0.12384021340E+03 -0.43752652454E+02 -0.19980792348E+03  0.23911064246E+03  0.00000000000E+00 0. -1.
         11    1    5    5    0    0 -0.46680069982E+02 -0.40513237790E+01  0.17846025206E+04  0.17852175214E+04  0.00000000000E+00 0. -1.
        -12    1    5    5    0    0  0.22188325002E+02 -0.97810353947E+01  0.22049997314E+03  0.22182927800E+03  0.00000000000E+00 0.  1.
          5    1    4    4  501    0 -0.10757649664E+03  0.70907682591E+02  0.38663209778E+03  0.40755668748E+03  0.41800000000E+01 0.  1.
         -5    1    4    4    0  501 -0.23660064951E+02  0.57310510833E+02  0.41467868649E+02  0.74708432293E+02  0.41800000000E+01 0.  1.
</event>
<event>
11    1  0.1078607E-008  0.1738704E+03  0.7561462E-02  0.1074712E+00
         22   -1    0    0    0    0  0.00000000000E+00  0.00000000000E+00  0.38525895838E+03  0.38525895838E+03  0.00000000000E+00 0. -1.
         22   -1    0    0    0    0 -0.00000000000E+00 -0.00000000000E+00 -0.21423848237E+03  0.21423848237E+03  0.00000000000E+00 0.  1.
         24    2    1    2    0    0 -0.14151320956E+02 -0.78560597527E+02 -0.91344569599E+01  0.11308489941E+03  0.79578444335E+02 0.  0.
         25    2    1    2    0    0  0.13183846593E+03  0.51072124381E+02 -0.66963260805E+02  0.20030319674E+03  0.12509016485E+03 0.  0.
        -24    2    1    2    0    0 -0.11768714497E+03  0.27488473146E+02  0.24711819378E+03  0.28610934459E+03  0.78646520054E+02 0.  0.
        -13    1    3    3    0    0 -0.14639333147E+02 -0.69216487020E+02  0.27025610359E+02  0.75733848216E+02  0.00000000000E+00 0.  1.
         14    1    3    3    0    0  0.48801219062E+00 -0.93441105069E+01 -0.36160067319E+02  0.37351051197E+02  0.00000000000E+00 0. -1.
         13    1    5    5    0    0 -0.53900655276E+02  0.45043381298E+02  0.17323524011E+03  0.18693484226E+03  0.00000000000E+00 0. -1.
        -14    1    5    5    0    0 -0.63786489693E+02 -0.17554908152E+02  0.73882953678E+02  0.99174502327E+02  0.00000000000E+00 0.  1.
          5    1    4    4  501    0  0.13657247552E+03  0.42145942511E+02 -0.94013443894E+02  0.17112662438E+03  0.41800000000E+01 0. -1.
         -5    1    4    4    0  501 -0.47340095955E+01  0.89261818693E+01  0.27050183089E+02  0.29176572361E+02  0.41800000000E+01 0. -1.
</event>
<event>
11    1  0.1078607E-008  0.1356023E+03  0.7561462E-02  0.1112571E+00
         22   -1    0    0    0    0  0.00000000000E+00  0.00000000000E+00  0.76631407520E+02  0.76631407520E+02  0.00000000000E+00 0. -1.
         22   -1    0    0    0    0 -0.00000000000E+00 -0.00000000000E+00 -0.17851076623E+04  0.17851076623E+04  0.00000000000E+00 0. -1.
         24    2    1    2    0    0 -0.25187357482E+02  0.45412206395E+02 -0.15462485333E+04  0.15488509131E+04  0.73198038531E+02 0.  0.
         25    2    1    2    0    0  0.36507907618E+02 -0.47764591199E+02 -0.18431235490E+03  0.23072633564E+03  0.12509721939E+03 0.  0.
        -24    2    1    2    0    0 -0.11320550136E+02  0.23523848041E+01  0.22084633373E+02  0.82161821114E+02  0.78288857751E+02 0.  0.
        -13    1    3    3    0    0  0.80302176486E+00  0.13226432694E+02 -0.42154524687E+02  0.44188090221E+02  0.00000000000E+00 0.  1.
         14    1    3    3    0    0 -0.25990379246E+02  0.32185773701E+02 -0.15040940086E+04  0.15046628229E+04  0.00000000000E+00 0. -1.
         11    1    5    5    0    0 -0.29098238213E+02 -0.57972073037E+01  0.43822245390E+02  0.52921680535E+02  0.00000000000E+00 0. -1.
        -12    1    5    5    0    0  0.17777688077E+02  0.81495921078E+01 -0.21737612017E+02  0.29240140579E+02  0.00000000000E+00 0.  1.
          5    1    4    4  501    0  0.31119158556E+02  0.33255661973E+02 -0.25634456530E+02  0.52430323707E+02  0.41800000000E+01 0.  1.
         -5    1    4    4    0  501  0.53887490624E+01 -0.81020253172E+02 -0.15867789837E+03  0.17829601194E+03  0.41800000000E+01 0.  1.
</event>
<event>
11    1  0.1078607E-008  0.1622627E+03  0.7561462E-02  0.1084968E+00
         22   -1    0    0    0    0  0.00000000000E+00  0.00000000000E+00  0.10805430446E+03  0.10805430446E+03  0.00000000000E+00 0.  1.
         22   -1    0    0    0    0 -0.00000000000E+00 -0.00000000000E+00 -0.16789968616E+04  0.16789968616E+04  0.00000000000E+00 0.  1.
        -24    2    1    2    0    0  0.97410005857E+01 -0.14817298027E+02 -0.13734835716E+04  0.13760202195E+04  0.81609335485E+02 0.  0.
         25    2    1    2    0    0 -0.77108160240E+02 -0.64663421070E+02 -0.22509161029E+03  0.27647869641E+03  0.12508880903E+03 0.  0.
         24    2    1    2    0    0  0.67367159654E+02  0.79480719098E+02  0.27632624746E+02  0.13455225015E+03  0.80530908116E+02 0.  0.
        -11    1    5    5    0    0  0.84283837948E+01  0.22638492081E+02  0.44791970040E+02  0.50890662770E+02  0.00000000000E+00 0.  1.
         12    1    5    5    0    0  0.58938775859E+02  0.56842227016E+02 -0.17159345295E+02  0.83661587380E+02  0.00000000000E+00 0. -1.
         13    1    3    3    0    0 -0.30132974567E+02 -0.79934772802E+01 -0.97286321290E+03  0.97336258550E+03  0.00000000000E+00 0. -1.
        -14    1    3    3    0    0  0.39873975153E+02 -0.68238207471E+01 -0.40062035865E+03  0.40265763397E+03  0.00000000000E+00 0.  1.
          5    1    4    4  501    0  0.11269296303E+02 -0.63358847407E+02 -0.55042075198E+02  0.84784686271E+02  0.41800000000E+01 0.  1.
         -5    1    4    4    0  501 -0.88377456543E+02 -0.13045736631E+01 -0.17004953509E+03  0.19169401014E+03  0.41800000000E+01 0.  1.
</event>
<event>
11    1  0.1078607E-008  0.1284834E+03  0.7561462E-02  0.1121146E+00
         22   -1    0    0    0    0  0.00000000000E+00  0.00000000000E+00  0.29897775263E+03  0.29897775263E+03  0.00000000000E+00 0. -1.
         22   -1    0    0    0    0 -0.00000000000E+00 -0.00000000000E+00 -0.13196931111E+04  0.13196931111E+04  0.00000000000E+00 0. -1.
         24    2    1    2    0    0 -0.70353910379E+01 -0.31710456453E+02 -0.10312467884E+04  0.10347673177E+04  0.78856918334E+02 0.  0.
         25    2    1    2    0    0 -0.85371685669E+01  0.55956947351E+02 -0.26327712506E+03  0.29692703607E+03  0.12508699759E+03 0.  0.
        -24    2    1    2    0    0  0.15572559605E+02 -0.24246490898E+02  0.27380855497E+03  0.28697650990E+03  0.80956750937E+02 0.  0.
        -11    1    3    3    0    0  0.26012560393E+02  0.81624915962E+01 -0.19222306777E+03  0.19414681905E+03  0.00000000000E+00 0.  1.
         12    1    3    3    0    0 -0.33047951431E+02 -0.39872948049E+02 -0.83902372061E+03  0.84062049869E+03  0.00000000000E+00 0. -1.
         11    1    5    5    0    0  0.23349121905E+02 -0.50352374188E+02  0.21684001243E+03  0.22383059235E+03  0.00000000000E+00 0. -1.
        -12    1    5    5    0    0 -0.77765623005E+01  0.26105883290E+02  0.56968542541E+02  0.63145917547E+02  0.00000000000E+00 0.  1.
          5    1    4    4  501    0 -0.14575976626E+01 -0.28093213760E+02 -0.10335527792E+02  0.30259689110E+02  0.41800000000E+01 0.  1.
         -5    1    4    4    0  501 -0.70795709043E+01  0.84050161110E+02 -0.25294159727E+03  0.26666734696E+03  0.41800000000E+01 0.  1.
</event>
<event>
11    1  0.1078607E-008  0.1440628E+03  0.7561462E-02  0.1103105E+00
         22   -1    0    0    0    0  0.00000000000E+00  0.00000000000E+00  0.60586921342E+03  0.60586921342E+03  0.00000000000E+00 0.  1.
         22   -1    0    0    0    0 -0.00000000000E+00 -0.00000000000E+00 -0.33752436121E+03  0.33752436121E+03  0.00000000000E+00 0. -1.
        -24    2    1    2    0    0 -0.80115987161E+02 -0.39705807632E+00 -0.24820564388E+03  0.27295115939E+03  0.80483319416E+02 0.  0.
         25    2    1    2    0    0  0.31436412966E+02 -0.29997419307E+01 -0.15523136401E+02  0.12994494968E+03  0.12508987038E+03 0.  0.
         24    2    1    2    0    0  0.48679574195E+02  0.33968000070E+01  0.53207363249E+03  0.54049746555E+03  0.81571567837E+02 0.  0.
        -11    1    5    5    0    0  0.57457940431E+02  0.31552599262E+02  0.36339992727E+03  0.36926479466E+03  0.00000000000E+00 0.  1.
         12    1    5    5    0    0 -0.87783662361E+01 -0.28155799255E+02  0.16867370523E+03  0.17123267089E+03  0.00000000000E+00 0. -1.
         11    1    3    3    0    0 -0.68320722711E+02  0.16948891941E+02 -0.24052341645E+03  0.25061225020E+03  0.00000000000E+00 0. -1.
        -12    1    3    3    0    0 -0.11795264450E+02 -0.17345950017E+02 -0.76822274291E+01  0.22338909188E+02  0.00000000000E+00 0.  1.
          5    1    4    4  501    0 -0.40110288348E+01  0.52864442286E+02 -0.31424254881E+02  0.61771302442E+02  0.41800000000E+01 0. -1.
         -5    1    4    4    0  501  0.35447441801E+02 -0.55864184217E+02  0.15901118480E+02  0.68173647235E+02  0.41800000000E+01 0. -1.
</event>
<event>
11    1  0.1078607E-008  0.1387606E+03  0.7561462E-02  0.1108950E+00
         22   -1    0    0    0    0  0.00000000000E+00  0.00000000000E+00  0.35011824264E+03  0.35011824264E+03  0.00000000000E+00 0.  1.
         22   -1    0    0    0    0 -0.00000000000E+00 -0.00000000000E+00 -0.37032392787E+03  0.37032392787E+03  0.00000000000E+00 0. -1.
        -24    2    1    2    0    0  0.48553587279E+02  0.21245935779E+02 -0.28412697258E+03  0.29925785362E+03  0.77577611304E+02 0.  0.
         25    2    1    2    0    0  0.15740112681E+02 -0.32323545893E+02 -0.80750590860E+01  0.13040434682E+03  0.12509006485E+03 0.  0.
         24    2    1    2    0    0 -0.64293699960E+02  0.11077610113E+02  0.27199634644E+03  0.29077997008E+03  0.79464364469E+02 0.  0.
        -11    1    5    5    0    0 -0.56658107562E+01 -0.11074362451E+02  0.17407792779E+03  0.17452182631E+03  0.00000000000E+00 0.  1.
         12    1    5    5    0    0 -0.58627889204E+02  0.22151972564E+02  0.97918418653E+02  0.11625814377E+03  0.00000000000E+00 0. -1.
         11    1    3    3    0    0  0.36472923233E+02 -0.59484506938E+01 -0.25484228388E+03  0.25750776269E+03  0.00000000000E+00 0. -1.
        -12    1    3    3    0    0  0.12080664046E+02  0.27194386473E+02 -0.29284688707E+02  0.41750090924E+02  0.00000000000E+00 0.  1.
          5    1    4    4  501    0  0.54618812305E+02 -0.41643786472E+02 -0.39534737120E+02  0.79359230392E+02  0.41800000000E+01 0.  1.
         -5    1    4    4    0  501 -0.38878699624E+02  0.93202405795E+01  0.31459678034E+02  0.51045116425E+02  0.41800000000E+01 0.  1.
</event>
<event>
11    1  0.1182210E-008  0.2891433E+04  0.7561462E-02  0.7775883E-01
         22   -1    0    0    0    0  0.00000000000E+00  0.00000000000E+00  0.40597473798E+04  0.40597473798E+04  0.00000000000E+00 0. -1.
         22   -1    0    0    0    0 -0.00000000000E+00 -0.00000000000E+00 -0.51483391214E+03  0.51483391214E+03  0.00000000000E+00 0. -1.
        -24    2    1    2    0    0  0.65158390632E+03  0.87567850973E+03  0.12992568961E+04  0.16985604133E+04  0.75263244365E+02 0.  0.
         25    2    1    2    0    0 -0.71198709188E+03 -0.11810021987E+04  0.13893412533E+04  0.19615321362E+04  0.12508953167E+03 0.  0.
         24    2    1    2    0    0  0.60403185566E+02  0.30532368893E+03  0.85631531813E+03  0.91448874242E+03  0.78374971123E+02 0.  0.
        -13    1    5    5    0    0  0.31231750763E+02  0.41891822111E+02  0.19910221460E+03  0.20584469600E+03  0.00000000000E+00 0.  1.
         14    1    5    5    0    0  0.29171434803E+02  0.26343186682E+03  0.65721310354E+03  0.70864404642E+03  0.00000000000E+00 0. -1.
         11    1    3    3    0    0  0.28835490571E+03  0.32717152020E+03  0.52994784025E+03  0.68631950917E+03  0.00000000000E+00 0. -1.
        -12    1    3    3    0    0  0.36322900061E+03  0.54850698953E+03  0.76930905589E+03  0.10122409041E+04  0.00000000000E+00 0.  1.
          5    1    4    4  501    0 -0.10295556305E+02 -0.23140552362E+02  0.69804621153E+01  0.26602309948E+02  0.41800000000E+01 0. -1.
         -5    1    4    4    0  501 -0.70169153558E+03 -0.11578616463E+04  0.13823607912E+04  0.19349298263E+04  0.41800000000E+01 0. -1.
</event>
<event>
11    1  0.1078607E-008  0.1541590E+03  0.7561462E-02  0.1092703E+00
         22   -1    0    0    0    0  0.00000000000E+00  0.00000000000E+00  0.61882513365E+03  0.61882513365E+03  0.00000000000E+00 0.  1.
         22   -1    0    0    0    0 -0.00000000000E+00 -0.00000000000E+00 -0.13192433636E+03  0.13192433636E+03  0.00000000000E+00 0. -1.
         24    2    1    2    0    0  0.10404073862E+02 -0.25308891888E+02 -0.77648543575E+02  0.11614812597E+03  0.81928664612E+02 0.  0.
         25    2    1    2    0    0 -0.83188162797E+02  0.65760878087E+02  0.25479821848E+03  0.30300928563E+03  0.12509089305E+03 0.  0.
        -24    2    1    2    0    0  0.72784088935E+02 -0.40451986200E+02  0.30975112239E+03  0.33159205841E+03  0.84104985499E+02 0.  0.
        -11    1    3    3    0    0 -0.16383236785E+02 -0.10729056171E+02  0.10957123067E+02  0.22440624763E+02  0.00000000000E+00 0.  1.
         12    1    3    3    0    0  0.26787310646E+02 -0.14579835717E+02 -0.88605666642E+02  0.93707501206E+02  0.00000000000E+00 0. -1.
         11    1    5    5    0    0 -0.14229173992E+02 -0.66063014354E+01  0.10982819962E+03  0.11094298555E+03  0.00000000000E+00 0. -1.
        -12    1    5    5    0    0  0.87013262927E+02 -0.33845684764E+02  0.19992292277E+03  0.22064907285E+03  0.00000000000E+00 0.  1.
          5    1    4    4  501    0 -0.64395152836E+02  0.10038964217E+03  0.21996513014E+03  0.25025376489E+03  0.41800000000E+01 0. -1.
         -5    1    4    4    0  501 -0.18793009961E+02 -0.34628764086E+02  0.34833088340E+02  0.52755520743E+02  0.41800000000E+01 0. -1.
</event>
<event>
11    1  0.1078607E-008  0.1462621E+03  0.7561462E-02  0.1100760E+00
         22   -1    0    0    0    0  0.00000000000E+00  0.00000000000E+00  0.30316405005E+03  0.30316405005E+03  0.00000000000E+00 0.  1.
         22   -1    0    0    0    0 -0.00000000000E+00 -0.00000000000E+00 -0.49245695426E+03  0.49245695426E+03  0.00000000000E+00 0.  1.
         24    2    1    2    0    0  0.20442049291E+02  0.11516235815E+02 -0.40075747284E+03  0.40943583629E+03  0.80502490259E+02 0.  0.
         25    2    1    2    0    0 -0.48163311945E+02  0.59495232431E+02 -0.12085930612E+00  0.14665318662E+03  0.12509098784E+03 0.  0.
        -24    2    1    2    0    0  0.27721262654E+02 -0.71011468246E+02  0.21158542792E+03  0.23953198140E+03  0.82438339236E+02 0.  0.
        -13    1    3    3    0    0  0.36833050672E+02  0.17375001896E+02 -0.38072668103E+03  0.38289864189E+03  0.00000000000E+00 0.  1.
         14    1    3    3    0    0 -0.16391001381E+02 -0.58587660814E+01 -0.20030791806E+02  0.26537194400E+02  0.00000000000E+00 0. -1.
         11    1    5    5    0    0  0.12135734964E+02  0.15019297881E+02  0.15236526246E+02  0.24596892162E+02  0.00000000000E+00 0. -1.
        -12    1    5    5    0    0  0.15585527690E+02 -0.86030766127E+02  0.19634890168E+03  0.21493508923E+03  0.00000000000E+00 0.  1.
          5    1    4    4  501    0 -0.53053681919E+02 -0.20179497582E+02 -0.26084573747E+02  0.62608167801E+02  0.41800000000E+01 0.  1.
         -5    1    4    4    0  501  0.48903699742E+01  0.79674730012E+02  0.25963714441E+02  0.84045018821E+02  0.41800000000E+01 0.  1.
</event>
<event>
11    1  0.1078607E-008  0.2083041E+03  0.7561462E-02  0.1048802E+00
         22   -1    0    0    0    0  0.00000000000E+00  0.00000000000E+00  0.57727035179E+03  0.57727035179E+03  0.00000000000E+00 0.  1.
         22   -1    0    0    0    0 -0.00000000000E+00 -0.00000000000E+00 -0.59923411657E+03  0.59923411657E+03  0.00000000000E+00 0.  1.
        -24    2    1    2    0    0  0.12896423261E+03 -0.51350264427E+01 -0.43775342677E+03  0.46309550243E+03  0.78557239797E+02 0.  0.
         25    2    1    2    0    0 -0.20481408633E+03 -0.13417694690E+03  0.15731062086E+02  0.27540228849E+03  0.12508673452E+03 0.  0.
         24    2    1    2    0    0  0.75849853717E+02  0.13931197334E+03  0.40005859992E+03  0.43800667745E+03  0.81498097530E+02 0.  0.
        -13    1    5    5    0    0  0.85788796219E+02  0.13861907043E+03  0.33922098666E+03  0.37635866143E+03  0.00000000000E+00 0.  1.
         14    1    5    5    0    0 -0.99389425024E+01  0.69290290811E+00  0.60837613257E+02  0.61648016021E+02  0.00000000000E+00 0. -1.
         11    1    3    3    0    0  0.10475421161E+03  0.13031350247E+02 -0.22900031587E+03  0.25215948447E+03  0.00000000000E+00 0. -1.
        -12    1    3    3    0    0  0.24210021000E+02 -0.18166376690E+02 -0.20875311091E+03  0.21093601796E+03  0.00000000000E+00 0.  1.
          5    1    4    4  501    0 -0.86799452435E+02 -0.72109728931E+02 -0.53665429475E+02  0.12502563205E+03  0.41800000000E+01 0.  1.
         -5    1    4    4    0  501 -0.11801463389E+03 -0.62067217968E+02  0.69396491562E+02  0.15037665643E+03  0.41800000000E+01 0.  1.
</event>
<event>
11    1  0.1078607E-008  0.1520569E+03  0.7561462E-02  0.1094795E+00
         22   -1    0    0    0    0  0.00000000000E+00  0.00000000000E+00  0.53946792893E+03  0.53946792893E+03  0.00000000000E+00 0.  1.
         22   -1    0    0    0    0 -0.00000000000E+00 -0.00000000000E+00 -0.14959907143E+04  0.14959907143E+04  0.00000000000E+00 0. -1.
         24    2    1    2    0    0  0.75642034294E+02  0.59650379826E+02 -0.11096550126E+04  0.11167076411E+04  0.80136280780E+02 0.  0.
         25    2    1    2    0    0 -0.33138992569E+02 -0.42013007591E+02 -0.36672008974E+03  0.39114467841E+03  0.12508896672E+03 0.  0.
        -24    2    1    2    0    0 -0.42503041725E+02 -0.17637372235E+02  0.51985231691E+03  0.52760632380E+03  0.77488167252E+02 0.  0.
        -11    1    3    3    0    0  0.13128207181E+02 -0.69491208016E+00 -0.22300655288E+02  0.25887293270E+02  0.00000000000E+00 0.  1.
         12    1    3    3    0    0  0.62513827114E+02  0.60345291906E+02 -0.10873543573E+04  0.10908203478E+04  0.00000000000E+00 0. -1.
         13    1    5    5    0    0 -0.10732155030E+02 -0.36821603766E+02  0.11873854272E+03  0.12477920974E+03  0.00000000000E+00 0. -1.
        -14    1    5    5    0    0 -0.31770886696E+02  0.19184231531E+02  0.40111377418E+03  0.40282711406E+03  0.00000000000E+00 0.  1.
          5    1    4    4  501    0 -0.17299958411E+02  0.43309121353E+02 -0.95722933610E+02  0.10656134840E+03  0.41800000000E+01 0.  1.
         -5    1    4    4    0  501 -0.15839034158E+02 -0.85322128944E+02 -0.27099715613E+03  0.28458333001E+03  0.41800000000E+01 0.  1.
</event>
<event>
11    1  0.1078607E-008  0.1332640E+03  0.7561462E-02  0.1115322E+00
         22   -1    0    0    0    0  0.00000000000E+00  0.00000000000E+00  0.60297960587E+03  0.60297960587E+03  0.00000000000E+00 0.  1.
         22   -1    0    0    0    0 -0.00000000000E+00 -0.00000000000E+00 -0.14147215386E+03  0.14147215386E+03  0.00000000000E+00 0.  1.
        -24    2    1    2    0    0  0.25221253416E+02  0.35625586197E+02 -0.68251950248E+02  0.11429438923E+03  0.80620001750E+02 0.  0.
         25    2    1    2    0    0 -0.61367317818E+02 -0.57193844700E+02  0.79471289498E+02  0.17030222306E+03  0.12510027081E+03 0.  0.
         24    2    1    2    0    0  0.36146064402E+02  0.21568258503E+02  0.45028811277E+03  0.45985514743E+03  0.83280516192E+02 0.  0.
        -11    1    5    5    0    0 -0.95165761477E+01 -0.21826511156E+02  0.21376931694E+03  0.21509133566E+03  0.00000000000E+00 0.  1.
         12    1    5    5    0    0  0.45662640549E+02  0.43394769659E+02  0.23651879582E+03  0.24476381177E+03  0.00000000000E+00 0. -1.
         11    1    3    3    0    0  0.38656518545E+02 -0.77252487697E+01 -0.10409785115E+02  0.40772166005E+02  0.00000000000E+00 0. -1.
        -12    1    3    3    0    0 -0.13435265129E+02  0.43350834967E+02 -0.57842165133E+02  0.73522223230E+02  0.00000000000E+00 0.  1.
          5    1    4    4  501    0 -0.27037712380E+02  0.24058030503E+02  0.73211120739E+02  0.81775102093E+02  0.41800000000E+01 0. -1.
         -5    1    4    4    0  501 -0.34329605438E+02 -0.81251875203E+02  0.62601687587E+01  0.88527120965E+02  0.41800000000E+01 0. -1.
</event>
<event>
11    1  0.1078607E-008  0.1651901E+03  0.7561462E-02  0.1082295E+00
         22   -1    0    0    0    0  0.00000000000E+00  0.00000000000E+00  0.30120731411E+03  0.30120731411E+03  0.00000000000E+00 0.  1.
         22   -1    0    0    0    0 -0.00000000000E+00 -0.00000000000E+00 -0.10609538837E+04  0.10609538837E+04  0.00000000000E+00 0. -1.
         24    2    1    2    0    0 -0.75278490213E+02  0.71751660245E+02 -0.79270453802E+03  0.80342646124E+03  0.79362725346E+02 0.  0.
         25    2    1    2    0    0  0.68369696417E+02 -0.11867042386E+03 -0.22165645313E+03  0.28902816952E+03  0.12509442303E+03 0.  0.
        -24    2    1    2    0    0  0.69087937955E+01  0.46918763618E+02  0.25461442154E+03  0.26970656709E+03  0.75259729378E+02 0.  0.
        -11    1    3    3    0    0 -0.19673255440E+02  0.54571227242E+02 -0.58032458163E+03  0.58321666288E+03  0.00000000000E+00 0.  1.
         12    1    3    3    0    0 -0.55605234772E+02  0.17180433003E+02 -0.21237995640E+03  0.22020979836E+03  0.00000000000E+00 0. -1.
         13    1    5    5    0    0  0.31675994475E+02  0.18608602806E+02  0.52229758401E+02  0.63856059908E+02  0.00000000000E+00 0. -1.
        -14    1    5    5    0    0 -0.24767200679E+02  0.28310160812E+02  0.20238466314E+03  0.20585050718E+03  0.00000000000E+00 0.  1.
          5    1    4    4  501    0 -0.32497756861E+00 -0.78527401007E+02 -0.34995516250E+02  0.86074484471E+02  0.41800000000E+01 0. -1.
         -5    1    4    4    0  501  0.68694673986E+02 -0.40143022856E+02 -0.18666093688E+03  0.20295368505E+03  0.41800000000E+01 0. -1.
</event>
<event>
11    1  0.1078607E-008  0.1432118E+03  0.7561462E-02  0.1104024E+00
         22   -1    0    0    0    0  0.00000000000E+00  0.00000000000E+00  0.53805052270E+03  0.53805052270E+03  0.00000000000E+00 0. -1.
         22   -1    0    0    0    0 -0.00000000000E+00 -0.00000000000E+00 -0.17870496667E+04  0.17870496667E+04  0.00000000000E+00 0.  1.
         24    2    1    2    0    0 -0.14024259312E+02  0.66275352374E+02 -0.15187900795E+04  0.15224911168E+04  0.81650430832E+02 0.  0.
         25    2    1    2    0    0  0.11479638077E+02 -0.94341013684E+02 -0.23931283069E+03  0.28627323343E+03  0.12509885809E+03 0.  0.
        -24    2    1    2    0    0  0.25446212351E+01  0.28065661310E+02  0.50910376618E+03  0.51633583921E+03  0.81375043240E+02 0.  0.
        -13    1    3    3    0    0  0.76306373471E+01  0.14175214415E+02 -0.10760543001E+04  0.10761747163E+04  0.00000000000E+00 0.  1.
         14    1    3    3    0    0 -0.21654896659E+02  0.52100137959E+02 -0.44273577943E+03  0.44631640045E+03  0.00000000000E+00 0. -1.
         11    1    5    5    0    0 -0.20377072711E+01  0.73859724124E+01  0.48140771844E+03  0.48146868664E+03  0.00000000000E+00 0. -1.
        -12    1    5    5    0    0  0.45823285062E+01  0.20679688898E+02  0.27696047743E+02  0.34867152565E+02  0.00000000000E+00 0.  1.
          5    1    4    4  501    0 -0.49479171825E+02 -0.20083373422E+02 -0.13045368750E+03  0.14102186822E+03  0.41800000000E+01 0. -1.
         -5    1    4    4    0  501  0.60958809902E+02 -0.74257640262E+02 -0.10885914318E+03  0.14525136521E+03  0.41800000000E+01 0. -1.
</event>
<event>
11    1  0.1078607E-008  0.1560501E+03  0.7561462E-02  0.1090852E+00
         22   -1    0    0    0    0  0.00000000000E+00  0.00000000000E+00  0.11812853449E+04  0.11812853449E+04  0.00000000000E+00 0. -1.
         22   -1    0    0    0    0 -0.00000000000E+00 -0.00000000000E+00 -0.10121365754E+04  0.10121365754E+04  0.00000000000E+00 0.  1.
         24    2    1    2    0    0  0.43449978652E+02  0.12233260295E+02 -0.98159245126E+03  0.98595358701E+03  0.80889937987E+02 0.  0.
         25    2    1    2    0    0 -0.12759119258E+03 -0.33045909875E+02  0.31685947156E+03  0.36526588847E+03  0.12509076696E+03 0.  0.
        -24    2    1    2    0    0  0.84141213930E+02  0.20812649580E+02  0.83388174926E+03  0.84220244480E+03  0.80207705433E+02 0.  0.
        -11    1    3    3    0    0  0.48839886161E+02  0.37971902019E+02 -0.80985668989E+03  0.81221613995E+03  0.00000000000E+00 0.  1.
         12    1    3    3    0    0 -0.53899075085E+01 -0.25738641723E+02 -0.17173576136E+03  0.17373744706E+03  0.00000000000E+00 0. -1.
         11    1    5    5    0    0  0.51217867609E+02 -0.19070588753E+02  0.60914717412E+03  0.61159401326E+03  0.00000000000E+00 0. -1.
        -12    1    5    5    0    0  0.32923346321E+02  0.39883238332E+02  0.22473457514E+03  0.23060843154E+03  0.00000000000E+00 0.  1.
          5    1    4    4  501    0 -0.59416190000E+02 -0.72108323530E+02  0.22878066762E+03  0.24715978684E+03  0.41800000000E+01 0.  1.
         -5    1    4    4    0  501 -0.68175002583E+02  0.39062413655E+02  0.88078803944E+02  0.11810610163E+03  0.41800000000E+01 0.  1.
</event>
<event>
11    1  0.1078607E-008  0.1362305E+03  0.7561462E-02  0.1111842E+00
         22   -1    0    0    0    0  0.00000000000E+00  0.00000000000E+00  0.54576238228E+03  0.54576238228E+03  0.00000000000E+00 0.  1.
         22   -1    0    0    0    0 -0.00000000000E+00 -0.00000000000E+00 -0.13124124458E+03  0.13124124458E+03  0.00000000000E+00 0. -1.
        -24    2    1    2    0    0 -0.10843106308E+01 -0.25792424093E+02 -0.35921128385E+02  0.83548531210E+02  0.70877392254E+02 0.  0.
         25    2    1    2    0    0  0.54860148930E+02  0.26471036995E+02  0.68354132904E+01  0.13931522966E+03  0.12510658896E+03 0.  0.
         24    2    1    2    0    0 -0.53775838299E+02 -0.67861290138E+00  0.44360685279E+03  0.45413986599E+03  0.81016521358E+02 0.  0.
        -13    1    5    5    0    0 -0.13511231584E+02 -0.33830860936E+02  0.28154365040E+03  0.28389066137E+03  0.00000000000E+00 0.  1.
         14    1    5    5    0    0 -0.40264606716E+02  0.33152248035E+02  0.16206320239E+03  0.17024920462E+03  0.00000000000E+00 0. -1.
         13    1    3    3    0    0 -0.16595282425E+02  0.69086676899E+01 -0.43056807302E+02  0.46658565591E+02  0.00000000000E+00 0. -1.
        -14    1    3    3    0    0  0.15510971794E+02 -0.32701091783E+02  0.71356789161E+01  0.36889965619E+02  0.00000000000E+00 0.  1.
          5    1    4    4  501    0  0.70590032342E+02  0.14357252817E+02  0.52574328760E+02  0.89278305422E+02  0.41800000000E+01 0. -1.
         -5    1    4    4    0  501 -0.15729883411E+02  0.12113784178E+02 -0.45738915470E+02  0.50036924242E+02  0.41800000000E+01 0. -1.
</event>
<event>
11    1  0.1078607E-008  0.2417503E+03  0.7561462E-02  0.1028388E+00
         22   -1    0    0    0    0  0.00000000000E+00  0.00000000000E+00  0.56013506036E+03  0.56013506036E+03  0.00000000000E+00 0.  1.
         22   -1    0    0    0    0 -0.00000000000E+00 -0.00000000000E+00 -0.12353001207E+04  0.12353001207E+04  0.00000000000E+00 0. -1.
         24    2    1    2    0    0  0.15700808823E+03  0.37172954479E+01 -0.10788134317E+04  0.10932367719E+04  0.81626349237E+02 0.  0.
         25    2    1    2    0    0 -0.12362984109E+03 -0.20979706825E+03  0.42108321554E+02  0.27698228922E+03  0.12508769063E+03 0.  0.
        -24    2    1    2    0    0 -0.33378247137E+02  0.20607977280E+03  0.36154004978E+03  0.42521612000E+03  0.80712830268E+02 0.  0.
        -11    1    3    3    0    0  0.81104386298E+02  0.47075327449E+01 -0.30244882824E+03  0.31316988368E+03  0.00000000000E+00 0.  1.
         12    1    3    3    0    0  0.75903701930E+02 -0.99023729700E+00 -0.77636460346E+03  0.78006688818E+03  0.00000000000E+00 0. -1.
         13    1    5    5    0    0  0.37694325917E+01  0.27629462043E+02  0.10730892579E+02  0.29878886365E+02  0.00000000000E+00 0. -1.
        -14    1    5    5    0    0 -0.37147679728E+02  0.17845031075E+03  0.35080915721E+03  0.39533723363E+03  0.00000000000E+00 0.  1.
          5    1    4    4  501    0 -0.51748371971E+02 -0.46084024733E+02  0.66918893885E+02  0.96422207484E+02  0.41800000000E+01 0.  1.
         -5    1    4    4    0  501 -0.71881469120E+02 -0.16371304351E+03 -0.24810572331E+02  0.18056008174E+03  0.41800000000E+01 0.  1.
</event>
<event>
11    1  0.1078607E-008  0.3112130E+03  0.7561462E-02  0.9955542E-01
         22   -1    0    0    0    0  0.00000000000E+00  0.00000000000E+00  0.86278524583E+03  0.86278524583E+03  0.00000000000E+00 0.  1.
         22   -1    0    0    0    0 -0.00000000000E+00 -0.00000000000E+00 -0.58268826583E+03  0.58268826583E+03  0.00000000000E+00 0.  1.
         24    2    1    2    0    0 -0.46371610593E+02  0.85095207781E+02 -0.57153746204E+02  0.13912262383E+03  0.81835402492E+02 0.  0.
         25    2    1    2    0    0  0.26489100020E+03 -0.25963444731E+03 -0.37183409855E+03  0.53989393120E+03  0.12509025498E+03 0.  0.
        -24    2    1    2    0    0 -0.21851938960E+03  0.17453923953E+03  0.70908482475E+03  0.76645695662E+03  0.80251528872E+02 0.  0.
        -11    1    3    3    0    0 -0.68017053479E+02  0.50012563566E+02 -0.29270005114E+02  0.89354962245E+02  0.00000000000E+00 0.  1.
         12    1    3    3    0    0  0.21645442886E+02  0.35082644215E+02 -0.27883741090E+02  0.49767661589E+02  0.00000000000E+00 0. -1.
         11    1    5    5    0    0 -0.13123999108E+03  0.59025672457E+02  0.30567096813E+03  0.33785012361E+03  0.00000000000E+00 0. -1.
        -12    1    5    5    0    0 -0.87279398526E+02  0.11551356707E+03  0.40341385662E+03  0.42860683301E+03  0.00000000000E+00 0.  1.
          5    1    4    4  501    0  0.16538152336E+03 -0.11386337356E+03 -0.12547317693E+03  0.23680563050E+03  0.41800000000E+01 0.  1.
         -5    1    4    4    0  501  0.99509476832E+02 -0.14577107375E+03 -0.24636092161E+03  0.30308830070E+03  0.41800000000E+01 0.  1.
</event>
<event>
11    1  0.1104069E-008  0.1708275E+03  0.7561462E-02  0.1077314E+00
         22   -1    0    0    0    0  0.00000000000E+00  0.00000000000E+00  0.21149549625E+04  0.21149549625E+04  0.00000000000E+00 0. -1.
         22   -1    0    0    0    0 -0.00000000000E+00 -0.00000000000E+00 -0.56944625600E+03  0.56944625600E+03  0.00000000000E+00 0. -1.
         24    2    1    2    0    0  0.56118964922E+02 -0.53612376193E+02 -0.51757782237E+03  0.53094144783E+03  0.89377814407E+02 0.  0.
         25    2    1    2    0    0 -0.85057550454E+00 -0.53600311908E+02  0.66261868803E+02  0.15135993740E+03  0.12508188709E+03 0.  0.
        -24    2    1    2    0    0 -0.55268389418E+02  0.10721268810E+03  0.19968246601E+04  0.20020998333E+04  0.80906513678E+02 0.  0.
        -11    1    3    3    0    0  0.42780906019E+02 -0.48125907917E+02 -0.15196721694E+03  0.16504649029E+03  0.00000000000E+00 0.  1.
         12    1    3    3    0    0  0.13338058903E+02 -0.54864682758E+01 -0.36561060543E+03  0.36589495754E+03  0.00000000000E+00 0. -1.
         11    1    5    5    0    0 -0.50390560977E+02  0.19991596182E+02  0.99410801685E+03  0.99558506503E+03  0.00000000000E+00 0. -1.
        -12    1    5    5    0    0 -0.48778284410E+01  0.87221091918E+02  0.10027166433E+04  0.10065147683E+04  0.00000000000E+00 0.  1.
          5    1    4    4  501    0  0.25704821114E+02  0.31099104286E+02  0.43808865925E+02  0.59704114176E+02  0.41800000000E+01 0.  1.
         -5    1    4    4    0  501 -0.26555396619E+02 -0.84699416194E+02  0.22453002878E+02  0.91655823227E+02  0.41800000000E+01 0.  1.
</event>
<event>
11    1  0.1078607E-008  0.1675033E+03  0.7561462E-02  0.1080225E+00
         22   -1    0    0    0    0  0.00000000000E+00  0.00000000000E+00  0.59195139986E+03  0.59195139986E+03  0.00000000000E+00 0.  1.
         22   -1    0    0    0    0 -0.00000000000E+00 -0.00000000000E+00 -0.11520741625E+03  0.11520741625E+03  0.00000000000E+00 0.  1.
         24    2    1    2    0    0 -0.92494489574E+02 -0.90674585894E+02  0.54669940327E+02  0.16079466831E+03  0.78032120649E+02 0.  0.
         25    2    1    2    0    0 -0.28814874664E+02 -0.54970137077E+02  0.19174632279E+03  0.23720521865E+03  0.12509056910E+03 0.  0.
        -24    2    1    2    0    0  0.12130936424E+03  0.14564472297E+03  0.23032772049E+03  0.30915892915E+03  0.81240614637E+02 0.  0.
        -13    1    3    3    0    0 -0.16861496949E+02 -0.39333642232E+02  0.54611716312E+02  0.69382166651E+02  0.00000000000E+00 0.  1.
         14    1    3    3    0    0 -0.75632992626E+02 -0.51340943662E+02  0.58224014571E-01  0.91412501660E+02  0.00000000000E+00 0. -1.
         13    1    5    5    0    0 -0.90445911388E+01  0.25107846644E+01  0.26183198613E+02  0.27814898132E+02  0.00000000000E+00 0. -1.
        -14    1    5    5    0    0  0.13035395538E+03  0.14313393831E+03  0.20414452188E+03  0.28134403102E+03  0.00000000000E+00 0.  1.
          5    1    4    4  501    0  0.31579534485E+02 -0.60663210370E+02  0.14544941955E+03  0.16078027907E+03  0.41800000000E+01 0. -1.
         -5    1    4    4    0  501 -0.60394409149E+02  0.56930732930E+01  0.46296903241E+02  0.76424939580E+02  0.41800000000E+01 0. -1.
</event>
<event>
11    1  0.1078607E-008  0.1420476E+03  0.7561462E-02  0.1105293E+00
         22   -1    0    0    0    0  0.00000000000E+00  0.00000000000E+00  0.81552700052E+03  0.81552700052E+03  0.00000000000E+00 0.  1.
         22   -1    0    0    0    0 -0.00000000000E+00 -0.00000000000E+00 -0.97841066608E+03  0.97841066608E+03  0.00000000000E+00 0. -1.
        -24    2    1    2    0    0  0.41268751083E+02  0.51528712607E+02 -0.90030919969E+03  0.90621537498E+03  0.79443896971E+02 0.  0.
         25    2    1    2    0    0 -0.90507848149E+02 -0.69692411107E+02  0.27884965093E+02  0.17167577307E+03  0.12508515914E+03 0.  0.
         24    2    1    2    0    0  0.49239097066E+02  0.18163698500E+02  0.70954056904E+03  0.71604651855E+03  0.80748925647E+02 0.  0.
        -13    1    5    5    0    0  0.37139537205E+02  0.44273181050E+02  0.60044633630E+03  0.60322074116E+03  0.00000000000E+00 0.  1.
         14    1    5    5    0    0  0.12099559860E+02 -0.26109482551E+02  0.10909423274E+03  0.11282577740E+03  0.00000000000E+00 0. -1.
         13    1    3    3    0    0  0.48019266024E+02  0.59435354607E+02 -0.50302834653E+03  0.50879851484E+03  0.00000000000E+00 0. -1.
        -14    1    3    3    0    0 -0.67505149403E+01 -0.79066419993E+01 -0.39728085316E+03  0.39741686015E+03  0.00000000000E+00 0.  1.
          5    1    4    4  501    0 -0.38086599290E+02 -0.25593873485E+02  0.75285998725E+02  0.88267147963E+02  0.41800000000E+01 0.  1.
         -5    1    4    4    0  501 -0.52421248859E+02 -0.44098537622E+02 -0.47401033632E+02  0.83408625103E+02  0.41800000000E+01 0.  1.
</event>
<event>
11    1  0.1078607E-008  0.1674599E+03  0.7561462E-02  0.1080264E+00
         22   -1    0    0    0    0  0.00000000000E+00  0.00000000000E+00  0.11008541992E+04  0.11008541992E+04  0.00000000000E+00 0. -1.
         22   -1    0    0    0    0 -0.00000000000E+00 -0.00000000000E+00 -0.94376803195E+03  0.94376803195E+03  0.00000000000E+00 0.  1.
         24    2    1    2    0    0 -0.72563660634E+00  0.26464360223E+02 -0.89618221247E+03  0.90035536653E+03  0.82439912540E+02 0.  0.
         25    2    1    2    0    0  0.47279369765E+02 -0.12478618635E+03  0.16507784754E+03  0.24636440290E+03  0.12505115816E+03 0.  0.
        -24    2    1    2    0    0 -0.46553733159E+02  0.98321826123E+02  0.88819053216E+03  0.89790246169E+03  0.74242694804E+02 0.  0.
        -13    1    3    3    0    0  0.10303238183E+02  0.31584440579E+02 -0.87709599138E+03  0.87772496359E+03  0.00000000000E+00 0.  1.
         14    1    3    3    0    0 -0.11028874789E+02 -0.51200803555E+01 -0.19086221090E+02  0.22630402945E+02  0.00000000000E+00 0. -1.
         11    1    5    5    0    0 -0.52036765506E+02  0.10833890810E+03  0.80079622915E+03  0.80976524042E+03  0.00000000000E+00 0. -1.
        -12    1    5    5    0    0  0.54830323473E+01 -0.10017081974E+02  0.87394303011E+02  0.88137221273E+02  0.00000000000E+00 0.  1.
          5    1    4    4  501    0  0.81292059783E+01 -0.10012909022E+03  0.17216128833E+03  0.19937126246E+03  0.41800000000E+01 0. -1.
         -5    1    4    4    0  501  0.39150163787E+02 -0.24657096131E+02 -0.70834407908E+01  0.46993140431E+02  0.41800000000E+01 0. -1.
</event>
<event>
11    1  0.1078607E-008  0.1304378E+03  0.7561462E-02  0.1118732E+00
         22   -1    0    0    0    0  0.00000000000E+00  0.00000000000E+00  0.98171021680E+03  0.98171021680E+03  0.00000000000E+00 0. -1.
         22   -1    0    0    0    0 -0.00000000000E+00 -0.00000000000E+00 -0.50798017488E+03  0.50798017488E+03  0.00000000000E+00 0. -1.
         24    2    1    2    0    0  0.27675949709E+02  0.14881055066E+01 -0.30655960204E+03  0.32456167033E+03  0.10292383395E+03 0.  0.
         25    2    1    2    0    0 -0.60453648415E+02 -0.25709576896E+02 -0.16450767934E+03  0.21687075743E+03  0.12511803593E+03 0.  0.
        -24    2    1    2    0    0  0.32777698706E+02  0.24221471389E+02  0.94479732329E+03  0.94825796392E+03  0.69929441712E+02 0.  0.
        -13    1    3    3    0    0 -0.19512304673E+02  0.22937386967E+01 -0.63241016443E+01  0.20639416961E+02  0.00000000000E+00 0.  1.
         14    1    3    3    0    0  0.47188254382E+02 -0.80563319016E+00 -0.30023550039E+03  0.30392225337E+03  0.00000000000E+00 0. -1.
         13    1    5    5    0    0  0.54537649024E+02  0.22830985163E+02  0.69723448126E+03  0.69973675829E+03  0.00000000000E+00 0. -1.
        -14    1    5    5    0    0 -0.21759950318E+02  0.13904862265E+01  0.24756284203E+03  0.24852120562E+03  0.00000000000E+00 0.  1.
          5    1    4    4  501    0 -0.14506239233E+02 -0.73379359251E+02 -0.90376669567E+02  0.11738984685E+03  0.41800000000E+01 0. -1.
         -5    1    4    4    0  501 -0.45947409182E+02  0.47669782355E+02 -0.74131009771E+02  0.99480910581E+02  0.41800000000E+01 0. -1.
</event>
<event>
11    1  0.1078607E-008  0.1565551E+03  0.7561462E-02  0.1090363E+00
         22   -1    0    0    0    0  0.00000000000E+00  0.00000000000E+00  0.19145009694E+04  0.19145009694E+04  0.00000000000E+00 0.  1.
         22   -1    0    0    0    0 -0.00000000000E+00 -0.00000000000E+00 -0.43884823925E+03  0.43884823925E+03  0.00000000000E+00 0. -1.
        -24    2    1    2    0    0  0.35188734154E+02  0.36825172451E+02 -0.38865321203E+03  0.40022705684E+03  0.80845763469E+02 0.  0.
         25    2    1    2    0    0 -0.81319190411E+02  0.46060816866E+02  0.10218717255E+03  0.18660941145E+03  0.12508574911E+03 0.  0.
         24    2    1    2    0    0  0.46130456257E+02 -0.82885989317E+02  0.17621187696E+04  0.17665127404E+04  0.80663482334E+02 0.  0.
        -13    1    5    5    0    0  0.53160746410E+02 -0.29102080084E+02  0.12634360260E+04  0.12648887650E+04  0.00000000000E+00 0.  1.
         14    1    5    5    0    0 -0.70302901526E+01 -0.53783909232E+02  0.49868274365E+03  0.50162397539E+03  0.00000000000E+00 0. -1.
         13    1    3    3    0    0  0.27441163467E+01  0.52625622226E+02 -0.29856128465E+03  0.30317623089E+03  0.00000000000E+00 0. -1.
        -14    1    3    3    0    0  0.32444617807E+02 -0.15800449776E+02 -0.90091927381E+02  0.97050825947E+02  0.00000000000E+00 0.  1.
          5    1    4    4  501    0 -0.51299640566E+02  0.49329727414E+02  0.12809822378E+03  0.14660048589E+03  0.41800000000E+01 0.  1.
         -5    1    4    4    0  501 -0.30019549846E+02 -0.32689105476E+01 -0.25911051225E+02  0.40008925563E+02  0.41800000000E+01 0.  1.
</event>
<event>
11    1  0.1078607E-008  0.8627396E+03  0.7561462E-02  0.8821790E-01
         22   -1    0    0    0    0  0.00000000000E+00  0.00000000000E+00  0.52234441710E+03  0.52234441710E+03  0.00000000000E+00 0.  1.
         22   -1    0    0    0    0 -0.00000000000E+00 -0.00000000000E+00 -0.42318475848E+04  0.42318475848E+04  0.00000000000E+00 0.  1.
        -24    2    1    2    0    0  0.16901747600E+02  0.37344936918E+02 -0.28265904424E+03  0.29613157905E+03  0.78214215059E+02 0.  0.
         25    2    1    2    0    0  0.40255447522E+03 -0.77799909263E+03 -0.34902093953E+04  0.36006307372E+04  0.12508952346E+03 0.  0.
         24    2    1    2    0    0 -0.41945622282E+03  0.74065415571E+03  0.63365271841E+02  0.85742968565E+03  0.81599061967E+02 0.  0.
        -11    1    5    5    0    0 -0.25642639505E+03  0.42350427948E+03 -0.89535033017E+00  0.49508703524E+03  0.00000000000E+00 0.  1.
         12    1    5    5    0    0 -0.16302982778E+03  0.31714987624E+03  0.64260622171E+02  0.36234265040E+03  0.00000000000E+00 0. -1.
         13    1    3    3    0    0 -0.22379643287E+02  0.40085065640E+02 -0.11314752710E+03  0.12210660838E+03  0.00000000000E+00 0. -1.
        -14    1    3    3    0    0  0.39281390887E+02 -0.27401287223E+01 -0.16951151713E+03  0.17402497067E+03  0.00000000000E+00 0.  1.
          5    1    4    4  501    0  0.32761597502E+03 -0.64092292328E+03 -0.26505604541E+04  0.27465619625E+04  0.41800000000E+01 0. -1.
         -5    1    4    4    0  501  0.74938500203E+02 -0.13707616935E+03 -0.83964894127E+03  0.85406877474E+03  0.41800000000E+01 0. -1.
</event>
<event>
11    1  0.1078607E-008  0.1676355E+03  0.7561462E-02  0.1080108E+00
         22   -1    0    0    0    0  0.00000000000E+00  0.00000000000E+00  0.30083088832E+03  0.30083088832E+03  0.00000000000E+00 0.  1.
         22   -1    0    0    0    0 -0.00000000000E+00 -0.00000000000E+00 -0.51369522180E+03  0.51369522180E+03  0.00000000000E+00 0.  1.
         24    2    1    2    0    0 -0.65348387237E+02  0.93189284511E+02 -0.44157168077E+03  0.46284263010E+03  0.79265985875E+02 0.  0.
         25    2    1    2    0    0  0.15136965274E+02 -0.92195096380E+02  0.81036465838E+02  0.17590940673E+03  0.12509255400E+03 0.  0.
        -24    2    1    2    0    0  0.50211421962E+02 -0.99418813052E+00  0.14767088146E+03  0.17577407329E+03  0.81041102559E+02 0.  0.
        -13    1    3    3    0    0 -0.12961776824E+02  0.22614461874E+02 -0.25801154479E+03  0.25932485185E+03  0.00000000000E+00 0.  1.
         14    1    3    3    0    0 -0.52386610413E+02  0.70574822637E+02 -0.18356013598E+03  0.20351777825E+03  0.00000000000E+00 0. -1.
         11    1    5    5    0    0 -0.16994145396E+02 -0.38369675042E+01  0.51343382331E+01  0.18162729048E+02  0.00000000000E+00 0. -1.
        -12    1    5    5    0    0  0.67205567358E+02  0.28427793737E+01  0.14253654322E+03  0.15761134424E+03  0.00000000000E+00 0.  1.
          5    1    4    4  501    0  0.11898354200E+02  0.20677702198E+02 -0.14248674123E+02  0.28100450443E+02  0.41800000000E+01 0.  1.
         -5    1    4    4    0  501  0.32386110745E+01 -0.11287279858E+03  0.95285139961E+02  0.14780895629E+03  0.41800000000E+01 0.  1.
</event>
<event>
11    1  0.1078607E-008  0.1556171E+03  0.7561462E-02  0.1091273E+00
         22   -1    0    0    0    0  0.00000000000E+00  0.00000000000E+00  0.18689735719E+03  0.18689735719E+03  0.00000000000E+00 0. -1.
         22   -1    0    0    0    0 -0.00000000000E+00 -0.00000000000E+00 -0.58190386480E+03  0.58190386480E+03  0.00000000000E+00 0.  1.
         24    2    1    2    0    0 -0.47888695511E+02  0.79604563190E+02 -0.40373933010E+03  0.41875154840E+03  0.60968836146E+02 0.  0.
         25    2    1    2    0    0 -0.20842165686E+02 -0.11309086738E+03 -0.98527448805E+02  0.19642084084E+03  0.12509815503E+03 0.  0.
        -24    2    1    2    0    0  0.68730861197E+02  0.33486304194E+02  0.10726027130E+03  0.15362883276E+03  0.79068252832E+02 0.  0.
        -11    1    3    3    0    0 -0.50915395993E+02  0.54725970137E+02 -0.20063466249E+03  0.21410646218E+03  0.00000000000E+00 0.  1.
         12    1    3    3    0    0  0.30267004818E+01  0.24878593053E+02 -0.20310466761E+03  0.20464508621E+03  0.00000000000E+00 0. -1.
         11    1    5    5    0    0  0.42042310096E+02  0.11913600626E+02  0.11082338554E+03  0.11912729537E+03  0.00000000000E+00 0. -1.
        -12    1    5    5    0    0  0.26688551101E+02  0.21572703567E+02 -0.35631142471E+01  0.34501537389E+02  0.00000000000E+00 0.  1.
          5    1    4    4  501    0 -0.34402830912E+01 -0.15608703039E+02  0.29921614260E+02  0.34179563459E+02  0.41800000000E+01 0.  1.
         -5    1    4    4    0  501 -0.17401882595E+02 -0.97482164345E+02 -0.12844906306E+03  0.16224127738E+03  0.41800000000E+01 0.  1.
</event>
<event>
11    1  0.1078607E-008  0.1910365E+03  0.7561462E-02  0.1061050E+00
         22   -1    0    0    0    0  0.00000000000E+00  0.00000000000E+00  0.36268870421E+03  0.36268870421E+03  0.00000000000E+00 0.  1.
         22   -1    0    0    0    0 -0.00000000000E+00 -0.00000000000E+00 -0.36488420883E+04  0.36488420883E+04  0.00000000000E+00 0.  1.
         24    2    1    2    0    0  0.86162258042E+02 -0.12246306478E+03 -0.33267959192E+04  0.33311766069E+04  0.82130150734E+02 0.  0.
         25    2    1    2    0    0 -0.93250842993E+02  0.46379591525E+02 -0.28977110783E+03  0.33235715111E+03  0.12508874744E+03 0.  0.
        -24    2    1    2    0    0  0.70885849516E+01  0.76083473251E+02  0.33041364291E+03  0.34799703449E+03  0.78037283755E+02 0.  0.
        -13    1    3    3    0    0  0.12934637297E+02 -0.30022565820E+02 -0.16114787308E+04  0.16118102740E+04  0.00000000000E+00 0.  1.
         14    1    3    3    0    0  0.73227620745E+02 -0.92440498956E+02 -0.17153171884E+04  0.17193663330E+04  0.00000000000E+00 0. -1.
         13    1    5    5    0    0  0.13092891516E+01 -0.15658930204E+02  0.30467221780E+02  0.34280722516E+02  0.00000000000E+00 0. -1.
        -14    1    5    5    0    0  0.57792958000E+01  0.91742403454E+02  0.29994642113E+03  0.31371631197E+03  0.00000000000E+00 0.  1.
          5    1    4    4  501    0  0.21221307355E+02  0.42043232568E+02 -0.10077105491E+03  0.11131152321E+03  0.41800000000E+01 0.  1.
         -5    1    4    4    0  501 -0.11447215035E+03  0.43363589570E+01 -0.18900005291E+03  0.22104562791E+03  0.41800000000E+01 0.  1.
</event>
<event>
11    1  0.1078607E-008  0.3193562E+03  0.7561462E-02  0.9923164E-01
         22   -1    0    0    0    0  0.00000000000E+00  0.00000000000E+00  0.28091164609E+04  0.28091164609E+04  0.00000000000E+00 0. -1.
         22   -1    0    0    0    0 -0.00000000000E+00 -0.00000000000E+00 -0.14933846140E+04  0.14933846140E+04  0.00000000000E+00 0. -1.
         24    2    1    2    0    0 -0.36854118019E+01  0.36425102019E+02 -0.68305201171E+03  0.68858744834E+03  0.79071189439E+02 0.  0.
         25    2    1    2    0    0 -0.10191561340E+03  0.23819655638E+03 -0.77279095243E+03  0.82460780050E+03  0.12509107391E+03 0.  0.
        -24    2    1    2    0    0  0.10560102520E+03 -0.27462165840E+03  0.27715748110E+04  0.27893058261E+04  0.10968786067E+03 0.  0.
        -11    1    3    3    0    0 -0.26274574854E+02  0.68056609088E+01 -0.54263930772E+03  0.54331766821E+03  0.00000000000E+00 0.  1.
         12    1    3    3    0    0  0.22589163052E+02  0.29619441111E+02 -0.14041270399E+03  0.14526978013E+03  0.00000000000E+00 0. -1.
         11    1    5    5    0    0  0.81274848634E+02 -0.24404458727E+03  0.19620981907E+04  0.19788867253E+04  0.00000000000E+00 0. -1.
        -12    1    5    5    0    0  0.24326176570E+02 -0.30577071132E+02  0.80947662027E+03  0.81041910078E+03  0.00000000000E+00 0.  1.
          5    1    4    4  501    0  0.42804222997E+01  0.12492960908E+02 -0.19206250408E+03  0.19256135116E+03  0.41800000000E+01 0.  1.
         -5    1    4    4    0  501 -0.10619603570E+03  0.22570359547E+03 -0.58072844835E+03  0.63204644934E+03  0.41800000000E+01 0.  1.
</event>
<event>
11    1  0.1078607E-008  0.1492169E+03  0.7561462E-02  0.1097682E+00
         22   -1    0    0    0    0  0.00000000000E+00  0.00000000000E+00  0.14364991206E+04  0.14364991206E+04  0.00000000000E+00 0. -1.
         22   -1    0    0    0    0 -0.00000000000E+00 -0.00000000000E+00 -0.84108687317E+03  0.84108687317E+03  0.00000000000E+00 0. -1.
         24    2    1    2    0    0  0.33184955285E+02  0.95968563779E+01 -0.76462516793E+03  0.76918991327E+03  0.76211116892E+02 0.  0.
         25    2    1    2    0    0 -0.17364808858E+02  0.70731090185E+02  0.13130441252E+01  0.14475348131E+03  0.12508965809E+03 0.  0.
        -24    2    1    2    0    0 -0.15820146427E+02 -0.80327946563E+02  0.13587243712E+04  0.13636425991E+04  0.81770198226E+02 0.  0.
        -13    1    3    3    0    0  0.44520041748E+02  0.34723470912E+01 -0.22381520702E+03  0.22822650636E+03  0.00000000000E+00 0.  1.
         14    1    3    3    0    0 -0.11335086463E+02  0.61245092867E+01 -0.54080996091E+03  0.54096340692E+03  0.00000000000E+00 0. -1.
         13    1    5    5    0    0 -0.45891006157E+02 -0.70145697051E+02  0.10146965219E+04  0.10181529525E+04  0.00000000000E+00 0. -1.
        -14    1    5    5    0    0  0.30070859731E+02 -0.10182249512E+02  0.34402784932E+03  0.34548964661E+03  0.00000000000E+00 0.  1.
          5    1    4    4  501    0 -0.49691057183E+02  0.42513888210E+02 -0.46516841801E+02  0.80361189798E+02  0.41800000000E+01 0.  1.
         -5    1    4    4    0  501  0.32326248324E+02  0.28217201975E+02  0.47829885926E+02  0.64392291509E+02  0.41800000000E+01 0.  1.
</event>
<event>
11    1  0.1078607E-008  0.1349363E+03  0.7561462E-02  0.1113348E+00
         22   -1    0    0    0    0  0.00000000000E+00  0.00000000000E+00  0.39020184771E+03  0.39020184771E+03  0.00000000000E+00 0. -1.
         22   -1    0    0    0    0 -0.00000000000E+00 -0.00000000000E+00 -0.89284985017E+03  0.89284985017E+03  0.00000000000E+00 0.  1.
         24    2    1    2    0    0  0.31718620096E+02 -0.89786192166E+01 -0.83926147953E+03  0.84386157935E+03  0.81583378331E+02 0.  0.
         25    2    1    2    0    0  0.41158017549E+01 -0.32557541168E+02  0.53600929931E+02  0.13999202165E+03  0.12509105933E+03 0.  0.
        -24    2    1    2    0    0 -0.35834421851E+02  0.41536160384E+02  0.28301254715E+03  0.29919809688E+03  0.80087707697E+02 0.  0.
        -11    1    3    3    0    0  0.53365435753E+02 -0.14431223719E+02 -0.74264668396E+03  0.74470143491E+03  0.00000000000E+00 0.  1.
         12    1    3    3    0    0 -0.21646815657E+02  0.54526045022E+01 -0.96614795569E+02  0.99160144447E+02  0.00000000000E+00 0. -1.
         11    1    5    5    0    0 -0.45536442449E+02  0.41233985412E+02  0.28289759826E+03  0.28949069112E+03  0.00000000000E+00 0. -1.
        -12    1    5    5    0    0  0.97020205979E+01  0.30217497256E+00  0.11494889149E+00  0.97074057628E+01  0.00000000000E+00 0.  1.
          5    1    4    4  501    0  0.43010442039E+02  0.21042641272E+02 -0.88466415713E+01  0.48871528963E+02  0.41800000000E+01 0.  1.
         -5    1    4    4    0  501 -0.38894640284E+02 -0.53600182439E+02  0.62447571502E+02  0.91120492684E+02  0.41800000000E+01 0.  1.
</event>
<event>
11    1  0.1078607E-008  0.3555386E+03  0.7561462E-02  0.9790896E-01
         22   -1    0    0    0    0  0.00000000000E+00  0.00000000000E+00  0.87399379747E+03  0.87399379747E+03  0.00000000000E+00 0.  1.
         22   -1    0    0    0    0 -0.00000000000E+00 -0.00000000000E+00 -0.21386006119E+04  0.21386006119E+04  0.00000000000E+00 0. -1.
         24    2    1    2    0    0  0.29619984442E+03 -0.13534127608E+03 -0.14321445506E+04  0.14708581964E+04  0.79587756891E+02 0.  0.
         25    2    1    2    0    0 -0.29892235440E+03  0.19007833241E+03 -0.63255211696E+03  0.73570065174E+03  0.12509565095E+03 0.  0.
        -24    2    1    2    0    0  0.27225099821E+01 -0.54737056329E+02  0.80008985314E+03  0.80603556130E+03  0.80907327066E+02 0.  0.
        -11    1    3    3    0    0  0.10012478327E+03 -0.21368838841E+02 -0.58446954199E+03  0.59336855749E+03  0.00000000000E+00 0.  1.
         12    1    3    3    0    0  0.19607506114E+03 -0.11397243724E+03 -0.84767500864E+03  0.87748963887E+03  0.00000000000E+00 0. -1.
         11    1    5    5    0    0 -0.28286664699E+02 -0.98066479160E+00  0.12827634122E+03  0.13136177838E+03  0.00000000000E+00 0. -1.
        -12    1    5    5    0    0  0.31009174681E+02 -0.53756391537E+02  0.67181351193E+03  0.67467378292E+03  0.00000000000E+00 0.  1.
          5    1    4    4  501    0 -0.23042722701E+03  0.13259343128E+03 -0.35149123763E+03  0.44072813332E+03  0.41800000000E+01 0. -1.
         -5    1    4    4    0  501 -0.68495127391E+02  0.57484901122E+02 -0.28106087933E+03  0.29497251842E+03  0.41800000000E+01 0. -1.
</event>
<event>
11    1  0.1078607E-008  0.1822853E+03  0.7561462E-02  0.1067809E+00
         22   -1    0    0    0    0  0.00000000000E+00  0.00000000000E+00  0.45561976719E+03  0.45561976719E+03  0.00000000000E+00 0.  1.
         22   -1    0    0    0    0 -0.00000000000E+00 -0.00000000000E+00 -0.22257927621E+03  0.22257927621E+03  0.00000000000E+00 0.  1.
         24    2    1    2    0    0 -0.27150069678E+02  0.99709440647E+02 -0.56940734591E+02  0.14376719235E+03  0.82144138569E+02 0.  0.
         25    2    1    2    0    0  0.10510236939E+03 -0.18783506987E+03  0.47959574749E+02  0.25352474710E+03  0.12508459161E+03 0.  0.
        -24    2    1    2    0    0 -0.77952299708E+02  0.88125629222E+02  0.24202165082E+03  0.28090710396E+03  0.80570677263E+02 0.  0.
        -13    1    3    3    0    0 -0.43728083000E+02  0.92000221199E+02 -0.67929482271E+02  0.12243610785E+03  0.00000000000E+00 0.  1.
         14    1    3    3    0    0  0.16578013322E+02  0.77092194485E+01  0.10988747680E+02  0.21331084496E+02  0.00000000000E+00 0. -1.
         11    1    5    5    0    0 -0.16091231567E+02 -0.97445772535E+01  0.93225230555E+01  0.20995093601E+02  0.00000000000E+00 0. -1.
        -12    1    5    5    0    0 -0.61861068141E+02  0.97870206475E+02  0.23269912777E+03  0.25991201036E+03  0.00000000000E+00 0.  1.
          5    1    4    4  501    0  0.48962189819E+02 -0.17241998540E+03  0.21036809756E+01  0.17929820208E+03  0.41800000000E+01 0.  1.
         -5    1    4    4    0  501  0.56140179566E+02 -0.15415084471E+02  0.45855893774E+02  0.74226545014E+02  0.41800000000E+01 0.  1.
</event>
<event>
11    1  0.1078607E-008  0.1424756E+03  0.7561462E-02  0.1104825E+00
         22   -1    0    0    0    0  0.00000000000E+00  0.00000000000E+00  0.10325497400E+04  0.10325497400E+04  0.00000000000E+00 0. -1.
         22   -1    0    0    0    0 -0.00000000000E+00 -0.00000000000E+00 -0.51551799439E+03  0.51551799439E+03  0.00000000000E+00 0.  1.
        -24    2    1    2    0    0  0.61988047712E+02 -0.28196435720E+02 -0.47211097681E+03  0.48377888208E+03  0.80719732842E+02 0.  0.
         25    2    1    2    0    0 -0.85920681314E+02 -0.18446263603E+02  0.13322800962E+03  0.20277986645E+03  0.12508934236E+03 0.  0.
         24    2    1    2    0    0  0.23932633602E+02  0.46642699324E+02  0.85591471285E+03  0.86150898590E+03  0.82821644337E+02 0.  0.
        -13    1    5    5    0    0  0.51523730360E+02  0.21029265327E+02  0.37293567053E+03  0.37706490044E+03  0.00000000000E+00 0.  1.
         14    1    5    5    0    0 -0.27591096758E+02  0.25613433997E+02  0.48297904232E+03  0.48444408546E+03  0.00000000000E+00 0. -1.
         13    1    3    3    0    0  0.36971919775E+02 -0.13321500604E+02 -0.67380662734E+02  0.78003454672E+02  0.00000000000E+00 0. -1.
        -14    1    3    3    0    0  0.25016127936E+02 -0.14874935116E+02 -0.40473031408E+03  0.40577542741E+03  0.00000000000E+00 0.  1.
          5    1    4    4  501    0 -0.88496477066E+02 -0.62541207205E+02  0.97084749469E+02  0.14555394200E+03  0.41800000000E+01 0.  1.
         -5    1    4    4    0  501  0.25757957525E+01  0.44094943602E+02  0.36143260152E+02  0.57225924452E+02  0.41800000000E+01 0.  1.
</event>
<event>
11    1  0.1078607E-008  0.2734929E+03  0.7561462E-02  0.1012079E+00
         22   -1    0    0    0    0  0.00000000000E+00  0.00000000000E+00  0.32415271237E+03  0.32415271237E+03  0.00000000000E+00 0. -1.
         22   -1    0    0    0    0 -0.00000000000E+00 -0.00000000000E+00 -0.78914936071E+03  0.78914936071E+03  0.00000000000E+00 0.  1.
        -24    2    1    2    0    0  0.61606413883E+02  0.16047257121E+01 -0.13403389431E+03  0.16940114616E+03  0.83269070613E+02 0.  0.
         25    2    1    2    0    0 -0.17099620821E+03  0.21274231820E+03 -0.53826426734E+03  0.61633975086E+03  0.12508904755E+03 0.  0.
         24    2    1    2    0    0  0.10938979433E+03 -0.21434704392E+03  0.20730151332E+03  0.32756117606E+03  0.80072618928E+02 0.  0.
        -11    1    5    5    0    0  0.34359649431E+02 -0.89226109030E+02  0.35066348546E+02  0.10184072291E+03  0.00000000000E+00 0.  1.
         12    1    5    5    0    0  0.75030144900E+02 -0.12512093488E+03  0.17223516477E+03  0.22572045316E+03  0.00000000000E+00 0. -1.
         13    1    3    3    0    0 -0.12318982685E+02  0.23430805131E+02 -0.32192106935E+02  0.41678432221E+02  0.00000000000E+00 0. -1.
        -14    1    3    3    0    0  0.73925396568E+02 -0.21826079419E+02 -0.10184178737E+03  0.12772271394E+03  0.00000000000E+00 0.  1.
          5    1    4    4  501    0 -0.16016531703E+03  0.22889513598E+03 -0.51335104813E+03  0.58445930831E+03  0.41800000000E+01 0.  1.
         -5    1    4    4    0  501 -0.10830891184E+02 -0.16152817772E+02 -0.24913219216E+02  0.31880442556E+02  0.41800000000E+01 0.  1.
</event>
<event>
11    1  0.1078607E-008  0.1274850E+03  0.7561462E-02  0.1122398E+00
         22   -1    0    0    0    0  0.00000000000E+00  0.00000000000E+00  0.62168093093E+03  0.62168093093E+03  0.00000000000E+00 0. -1.
         22   -1    0    0    0    0 -0.00000000000E+00 -0.00000000000E+00 -0.26973863865E+03  0.26973863865E+03  0.00000000000E+00 0. -1.
         24    2    1    2    0    0 -0.38633518567E+01 -0.25104924570E+02 -0.22925169924E+03  0.24442034464E+03  0.80868909608E+02 0.  0.
         25    2    1    2    0    0  0.52071869375E+02 -0.20839822913E+01  0.12360441152E+03  0.18341500504E+03  0.12508873236E+03 0.  0.
        -24    2    1    2    0    0 -0.48208517519E+02  0.27188906861E+02  0.45758958000E+03  0.46358421991E+03  0.49586363123E+02 0.  0.
        -13    1    3    3    0    0 -0.43325957136E+01 -0.24765859804E+02 -0.13253506976E+02  0.28421376543E+02  0.00000000000E+00 0.  1.
         14    1    3    3    0    0  0.46924385693E+00 -0.33906476583E+00 -0.21599819227E+03  0.21599896809E+03  0.00000000000E+00 0. -1.
         13    1    5    5    0    0 -0.16114951750E+02  0.27603862000E+02  0.34591957713E+03  0.34739317597E+03  0.00000000000E+00 0. -1.
        -14    1    5    5    0    0 -0.32093565768E+02 -0.41495513828E+00  0.11167000287E+03  0.11619104394E+03  0.00000000000E+00 0.  1.
          5    1    4    4  501    0  0.27578733734E+02 -0.14756526421E+02 -0.19845802591E+02  0.37278276608E+02  0.41800000000E+01 0. -1.
         -5    1    4    4    0  501  0.24493135641E+02  0.12672544130E+02  0.14345021411E+03  0.14613672843E+03  0.41800000000E+01 0. -1.
</event>
<event>
11    1  0.1635850E-008  0.1851260E+03  0.7561462E-02  0.1065570E+00
         22   -1    0    0    0    0  0.00000000000E+00  0.00000000000E+00  0.12913344472E+04  0.12913344472E+04  0.00000000000E+00 0. -1.
         22   -1    0    0    0    0 -0.00000000000E+00 -0.00000000000E+00 -0.13819670576E+04  0.13819670576E+04  0.00000000000E+00 0. -1.
        -24    2    1    2    0    0  0.11257587530E+03  0.51960658374E+02 -0.91673911234E+03  0.92864169155E+03  0.81188382550E+02 0.  0.
         25    2    1    2    0    0 -0.16401719322E+03 -0.13013575651E+03 -0.42361630261E+03  0.48880981929E+03  0.12508921937E+03 0.  0.
         24    2    1    2    0    0  0.51441317914E+02  0.78175098139E+02  0.12497228046E+04  0.12558499940E+04  0.81206920542E+02 0.  0.
        -13    1    5    5    0    0 -0.83242897562E+01  0.65380543750E+01  0.20312708121E+02  0.22905153703E+02  0.00000000000E+00 0.  1.
         14    1    5    5    0    0  0.59765607670E+02  0.71637043764E+02  0.12294100964E+04  0.12329448403E+04  0.00000000000E+00 0. -1.
         13    1    3    3    0    0  0.91100088477E+02  0.42645628633E+02 -0.87519460269E+03  0.88095599682E+03  0.00000000000E+00 0. -1.
        -14    1    3    3    0    0  0.21475786827E+02  0.93150297405E+01 -0.41544509650E+02  0.47685694721E+02  0.00000000000E+00 0.  1.
          5    1    4    4  501    0 -0.17264161506E+03 -0.13501660180E+03 -0.42476530528E+03  0.47799335453E+03  0.41800000000E+01 0. -1.
         -5    1    4    4    0  501  0.86244218389E+01  0.48808452840E+01  0.11490026668E+01  0.10816464758E+02  0.41800000000E+01 0. -1.
</event>
<event>
11    1  0.1078607E-008  0.1495401E+03  0.7561462E-02  0.1097350E+00
         22   -1    0    0    0    0  0.00000000000E+00  0.00000000000E+00  0.23308011546E+03  0.23308011546E+03  0.00000000000E+00 0. -1.
         22   -1    0    0    0    0 -0.00000000000E+00 -0.00000000000E+00 -0.88398488467E+03  0.88398488467E+03  0.00000000000E+00 0.  1.
         24    2    1    2    0    0 -0.52897602573E+02 -0.24997667705E+02 -0.68510469164E+03  0.69236172167E+03  0.81075738520E+02 0.  0.
         25    2    1    2    0    0  0.10779023444E+03  0.79074671084E+02 -0.13094543081E+03  0.22508899862E+03  0.12508722237E+03 0.  0.
        -24    2    1    2    0    0 -0.54892631862E+02 -0.54077003379E+02  0.16514535325E+03  0.19961427984E+03  0.81457655812E+02 0.  0.
        -11    1    3    3    0    0 -0.42055963338E+02 -0.45809353537E+02 -0.62083931340E+03  0.62394603452E+03  0.00000000000E+00 0.  1.
         12    1    3    3    0    0 -0.10841639235E+02  0.20811685831E+02 -0.64265378239E+02  0.68415687153E+02  0.00000000000E+00 0. -1.
         11    1    5    5    0    0 -0.40337263716E+02 -0.17141009030E+02  0.15137700489E+03  0.15759411996E+03  0.00000000000E+00 0. -1.
        -12    1    5    5    0    0 -0.14555368146E+02 -0.36935994349E+02  0.13768348356E+02  0.42020159886E+02  0.00000000000E+00 0.  1.
          5    1    4    4  501    0 -0.90718666270E+01  0.47709777607E+02 -0.80120985758E+02  0.93783614786E+02  0.41800000000E+01 0.  1.
         -5    1    4    4    0  501  0.11686210106E+03  0.31364893477E+02 -0.50824445055E+02  0.13130538383E+03  0.41800000000E+01 0.  1.
</event>
<event>
11    1  0.1078607E-008  0.1431450E+03  0.7561462E-02  0.1104096E+00
         22   -1    0    0    0    0  0.00000000000E+00  0.00000000000E+00  0.25136079974E+04  0.25136079974E+04  0.00000000000E+00 0.  1.
         22   -1    0    0    0    0 -0.00000000000E+00 -0.00000000000E+00 -0.49085865164E+02  0.49085865164E+02  0.00000000000E+00 0. -1.
        -24    2    1    2    0    0 -0.47183155662E+02  0.44809439935E+02  0.36116646455E+02  0.11098549283E+03  0.82336087968E+02 0.  0.
         25    2    1    2    0    0  0.65951735195E+02 -0.92726256038E+02  0.67903651048E+03  0.69977525107E+03  0.12508808701E+03 0.  0.
         24    2    1    2    0    0 -0.18768579533E+02  0.47916816103E+02  0.17493689753E+04  0.17519331186E+04  0.79558529915E+02 0.  0.
        -11    1    5    5    0    0 -0.45810542382E+02  0.20171509141E+02  0.12759501547E+04  0.12769315929E+04  0.00000000000E+00 0.  1.
         12    1    5    5    0    0  0.27041962848E+02  0.27745306962E+02  0.47341882053E+03  0.47500152573E+03  0.00000000000E+00 0. -1.
         13    1    3    3    0    0  0.32316884756E+00  0.41097727512E+02 -0.12452842167E+02  0.42944160520E+02  0.00000000000E+00 0. -1.
        -14    1    3    3    0    0 -0.47506324510E+02  0.37117124234E+01  0.48569488621E+02  0.68041332309E+02  0.00000000000E+00 0.  1.
          5    1    4    4  501    0  0.51913735229E+02 -0.89887331106E+02  0.67675502949E+03  0.68468212371E+03  0.41800000000E+01 0.  1.
         -5    1    4    4    0  501  0.14037999967E+02 -0.28389249323E+01  0.22814809931E+01  0.15093127355E+02  0.41800000000E+01 0.  1.
</event>
<event>
11    1  0.1078607E-008  0.2192712E+03  0.7561462E-02  0.1041675E+00
         22   -1    0    0    0    0  0.00000000000E+00  0.00000000000E+00  0.57537942292E+03  0.57537942292E+03  0.00000000000E+00 0.  1.
         22   -1    0    0    0    0 -0.00000000000E+00 -0.00000000000E+00 -0.11964605855E+04  0.11964605855E+04  0.00000000000E+00 0.  1.
        -24    2    1    2    0    0  0.54856738048E+02 -0.12926897291E+03 -0.10886000591E+04  0.11005283629E+04  0.79955360200E+02 0.  0.
         25    2    1    2    0    0 -0.22010581943E+03  0.83615412523E+02  0.16187423536E+03  0.31191157515E+03  0.12508978249E+03 0.  0.
         24    2    1    2    0    0  0.16524908138E+03  0.45653560389E+02  0.30564466124E+03  0.35940007038E+03  0.79738605246E+02 0.  0.
        -13    1    5    5    0    0  0.15707352960E+03  0.24484788622E+02  0.29318919965E+03  0.33351387582E+03  0.00000000000E+00 0.  1.
         14    1    5    5    0    0  0.81755517867E+01  0.21168771767E+02  0.12455461595E+02  0.25886194558E+02  0.00000000000E+00 0. -1.
         11    1    3    3    0    0  0.10933453913E+02 -0.43993750367E+02 -0.14152217259E+03  0.14860523483E+03  0.00000000000E+00 0. -1.
        -12    1    3    3    0    0  0.43923284134E+02 -0.85275222545E+02 -0.94707788656E+03  0.95192312803E+03  0.00000000000E+00 0.  1.
          5    1    4    4  501    0 -0.18210881413E+03  0.11365906514E+02  0.92052038952E+02  0.20441099357E+03  0.41800000000E+01 0.  1.
         -5    1    4    4    0  501 -0.37997005299E+02  0.72249506009E+02  0.69822196411E+02  0.10750058159E+03  0.41800000000E+01 0.  1.
</event>
<event>
11    1  0.1078607E-008  0.1382256E+03  0.7561462E-02  0.1109556E+00
         22   -1    0    0    0    0  0.00000000000E+00  0.00000000000E+00  0.85978490057E+03  0.85978490057E+03  0.00000000000E+00 0. -1.
         22   -1    0    0    0    0 -0.00000000000E+00 -0.00000000000E+00 -0.90932706134E+03  0.90932706134E+03  0.00000000000E+00 0. -1.
        -24    2    1    2    0    0 -0.41962043006E+02 -0.41125465977E+02 -0.87346231184E+03  0.87901180047E+03  0.79203649871E+02 0.  0.
         25    2    1    2    0    0  0.69713844933E+02  0.17243578032E+02  0.14221058183E+03  0.20255690538E+03  0.12509232260E+03 0.  0.
         24    2    1    2    0    0 -0.27751801927E+02  0.23881887945E+02  0.68170956924E+03  0.68754325606E+03  0.81530884198E+02 0.  0.
        -13    1    5    5    0    0 -0.45843632353E+02 -0.16861213658E+01  0.21786607492E+03  0.22264345541E+03  0.00000000000E+00 0.  1.
         14    1    5    5    0    0  0.18091830426E+02  0.25568009310E+02  0.46384349432E+03  0.46489980066E+03  0.00000000000E+00 0. -1.
         11    1    3    3    0    0 -0.45248485838E+02 -0.49164344085E+02 -0.86222275063E+03  0.86480785721E+03  0.00000000000E+00 0. -1.
        -12    1    3    3    0    0  0.32864428323E+01  0.80388781084E+01 -0.11239561215E+02  0.14203943257E+02  0.00000000000E+00 0.  1.
          5    1    4    4  501    0  0.86480446162E+02 -0.29755667394E+02  0.72798058785E+02  0.11696707688E+03  0.41800000000E+01 0. -1.
         -5    1    4    4    0  501 -0.16766601229E+02  0.46999245427E+02  0.69412523048E+02  0.85589828504E+02  0.41800000000E+01 0. -1.
</event>
<event>
11    1  0.1078607E-008  0.1359967E+03  0.7561462E-02  0.1112113E+00
         22   -1    0    0    0    0  0.00000000000E+00  0.00000000000E+00  0.57930764143E+03  0.57930764143E+03  0.00000000000E+00 0.  1.
         22   -1    0    0    0    0 -0.00000000000E+00 -0.00000000000E+00 -0.10058410442E+04  0.10058410442E+04  0.00000000000E+00 0.  1.
        -24    2    1    2    0    0  0.51039350190E+02 -0.16029019415E+02 -0.96590924831E+03  0.97074481372E+03  0.80640391014E+02 0.  0.
         25    2    1    2    0    0 -0.46752785742E+02  0.35494179430E+01  0.98239540521E+02  0.16582394724E+03  0.12509257697E+03 0.  0.
         24    2    1    2    0    0 -0.42865644488E+01  0.12479601472E+02  0.44113630498E+03  0.44857992470E+03  0.80303139348E+02 0.  0.
        -13    1    5    5    0    0 -0.30593715431E+02  0.94509669412E+01  0.38691458420E+03  0.38823728783E+03  0.00000000000E+00 0.  1.
         14    1    5    5    0    0  0.26307150982E+02  0.30286345309E+01  0.54221720782E+02  0.60342636870E+02  0.00000000000E+00 0. -1.
         11    1    3    3    0    0  0.19390640995E+02  0.15720482987E+02 -0.82380129752E+02  0.86079128257E+02  0.00000000000E+00 0. -1.
        -12    1    3    3    0    0  0.31648709196E+02 -0.31749502402E+02 -0.88352911855E+03  0.88466568546E+03  0.00000000000E+00 0.  1.
          5    1    4    4  501    0  0.26909853494E+02  0.12292165353E+02 -0.12567452957E+02  0.32413744275E+02  0.41800000000E+01 0.  1.
         -5    1    4    4    0  501 -0.73662639235E+02 -0.87427474101E+01  0.11080699348E+03  0.13341020296E+03  0.41800000000E+01 0.  1.
</event>
<event>
11    1  0.1078607E-008  0.1530999E+03  0.7561462E-02  0.1093753E+00
         22   -1    0    0    0    0  0.00000000000E+00  0.00000000000E+00  0.71004391079E+03  0.71004391079E+03  0.00000000000E+00 0. -1.
         22   -1    0    0    0    0 -0.00000000000E+00 -0.00000000000E+00 -0.72121193344E+03  0.72121193344E+03  0.00000000000E+00 0.  1.
         24    2    1    2    0    0 -0.35423488510E+02  0.80032160877E+02 -0.68294776894E+03  0.69366212727E+03  0.84199295714E+02 0.  0.
         25    2    1    2    0    0  0.93267982576E+02 -0.11839272065E+03  0.38826691267E+03  0.43487262444E+03  0.12508897286E+03 0.  0.
        -24    2    1    2    0    0 -0.57844494066E+02  0.38360559770E+02  0.28351283361E+03  0.30272109252E+03  0.80268393519E+02 0.  0.
        -13    1    3    3    0    0 -0.29252651101E+02  0.54656881768E+02 -0.64270939968E+03  0.64569223687E+03  0.00000000000E+00 0.  1.
         14    1    3    3    0    0 -0.61708374090E+01  0.25375279109E+02 -0.40238369258E+02  0.47969890397E+02  0.00000000000E+00 0. -1.
         13    1    5    5    0    0 -0.44711646150E+02  0.63553177085E+02  0.20758938806E+03  0.22165624660E+03  0.00000000000E+00 0. -1.
        -14    1    5    5    0    0 -0.13132847916E+02 -0.25192617315E+02  0.75923445545E+02  0.81064845926E+02  0.00000000000E+00 0.  1.
          5    1    4    4  501    0  0.55693324123E+02 -0.11132633406E+03  0.37342292902E+03  0.39364635820E+03  0.41800000000E+01 0. -1.
         -5    1    4    4    0  501  0.37574658453E+02 -0.70663865878E+01  0.14843983659E+02  0.41226266241E+02  0.41800000000E+01 0. -1.
</event>
<event>
11    1  0.1078607E-008  0.1753717E+03  0.7561462E-02  0.1073449E+00
         22   -1    0    0    0    0  0.00000000000E+00  0.00000000000E+00  0.15609146962E+04  0.15609146962E+04  0.00000000000E+00 0.  1.
         22   -1    0    0    0    0 -0.00000000000E+00 -0.00000000000E+00 -0.33108695022E+03  0.33108695022E+03  0.00000000000E+00 0.  1.
        -24    2    1    2    0    0 -0.22604233695E+02 -0.11903789431E+03 -0.24986560967E+03  0.28947800827E+03  0.81754037881E+02 0.  0.
         25    2    1    2    0    0 -0.10361593001E+02  0.13972073326E+03  0.86962837378E+02  0.20697072311E+03  0.12508037107E+03 0.  0.
         24    2    1    2    0    0  0.32965826696E+02 -0.20682838943E+02  0.13927305182E+04  0.13955529150E+04  0.79718985087E+02 0.  0.
        -13    1    5    5    0    0  0.29737037088E+02  0.26752816570E+02  0.75024399879E+03  0.75130956489E+03  0.00000000000E+00 0.  1.
         14    1    5    5    0    0  0.32287896074E+01 -0.47435655513E+02  0.64248651944E+03  0.64424335011E+03  0.00000000000E+00 0. -1.
         11    1    3    3    0    0  0.27012392779E+02 -0.75150792546E+02 -0.14094430001E+03  0.16199569960E+03  0.00000000000E+00 0. -1.
        -12    1    3    3    0    0 -0.49616626474E+02 -0.43887101767E+02 -0.10892130966E+03  0.12748230866E+03  0.00000000000E+00 0.  1.
          5    1    4    4  501    0 -0.18557794907E+01 -0.70465963949E+01 -0.22249662157E+02  0.23782731222E+02  0.41800000000E+01 0.  1.
         -5    1    4    4    0  501 -0.85058135101E+01  0.14676732965E+03  0.10921249954E+03  0.18318799189E+03  0.41800000000E+01 0.  1.
</event>
<event>
11    1  0.1078607E-008  0.1975255E+03  0.7561462E-02  0.1056287E+00
         22   -1    0    0    0    0  0.00000000000E+00  0.00000000000E+00  0.70992167438E+03  0.70992167438E+03  0.00000000000E+00 0.  1.
         22   -1    0    0    0    0 -0.00000000000E+00 -0.00000000000E+00 -0.35261310061E+03  0.35261310061E+03  0.00000000000E+00 0.  1.
        -24    2    1    2    0    0 -0.33766577058E+01  0.10601065676E+03 -0.27944591375E+03  0.30963999094E+03  0.80853225730E+02 0.  0.
         25    2    1    2    0    0 -0.41591908820E+02  0.73801120989E+02  0.10364617981E+03  0.18321215817E+03  0.12509065502E+03 0.  0.
         24    2    1    2    0    0  0.44968566526E+02 -0.17981177775E+03  0.53310830771E+03  0.56968262589E+03  0.77326445003E+02 0.  0.
        -11    1    5    5    0    0  0.35174518415E+02 -0.18513180271E+03  0.48554930345E+03  0.52083505758E+03  0.00000000000E+00 0.  1.
         12    1    5    5    0    0  0.97940481107E+01  0.53200249556E+01  0.47559004252E+02  0.48847568305E+02  0.00000000000E+00 0. -1.
         11    1    3    3    0    0 -0.48748767077E+01  0.50569470436E+01  0.44566808470E+01  0.83186020754E+01  0.00000000000E+00 0. -1.
        -12    1    3    3    0    0  0.14982190019E+01  0.10095370972E+03 -0.28390259460E+03  0.30132138886E+03  0.00000000000E+00 0.  1.
          5    1    4    4  501    0 -0.39322191989E+02  0.63078701008E+02  0.13254558469E+03  0.15202289869E+03  0.41800000000E+01 0.  1.
         -5    1    4    4    0  501 -0.22697168312E+01  0.10722419981E+02 -0.28899404881E+02  0.31189259485E+02  0.41800000000E+01 0.  1.
</event>
<event>
11    1  0.1078607E-008  0.1646367E+03  0.7561462E-02  0.1082796E+00
         22   -1    0    0    0    0  0.00000000000E+00  0.00000000000E+00  0.79187782126E+03  0.79187782126E+03  0.00000000000E+00 0. -1.
         22   -1    0    0    0    0 -0.00000000000E+00 -0.00000000000E+00 -0.31043337481E+03  0.31043337481E+03  0.00000000000E+00 0. -1.
        -24    2    1    2    0    0  0.10082616347E+03 -0.53094372656E+02 -0.26747136423E+03  0.30212264758E+03  0.82171989455E+02 0.  0.
         25    2    1    2    0    0 -0.24944369903E+02 -0.76572782519E+01  0.20324970203E+03  0.24008106334E+03  0.12509044767E+03 0.  0.
         24    2    1    2    0    0 -0.75881793563E+02  0.60751650908E+02  0.54566610865E+03  0.56010748515E+03  0.80747031589E+02 0.  0.
        -13    1    5    5    0    0 -0.79355492447E+02  0.15453399762E+02  0.35942253450E+03  0.36840285022E+03  0.00000000000E+00 0.  1.
         14    1    5    5    0    0  0.34736988839E+01  0.45298251146E+02  0.18624357415E+03  0.19170463493E+03  0.00000000000E+00 0. -1.
         11    1    3    3    0    0  0.83388456837E+02  0.12674652470E+01 -0.15927841285E+03  0.17979113995E+03  0.00000000000E+00 0. -1.
        -12    1    3    3    0    0  0.17437706629E+02 -0.54361837903E+02 -0.10819295137E+03  0.12233150763E+03  0.00000000000E+00 0.  1.
          5    1    4    4  501    0  0.37063845556E+02 -0.25920470430E+02  0.28279752731E+02  0.53505291787E+02  0.41800000000E+01 0. -1.
         -5    1    4    4    0  501 -0.62008215459E+02  0.18263192178E+02  0.17496994930E+03  0.18657577155E+03  0.41800000000E+01 0. -1.
</event>
<event>
11    1  0.1078607E-008  0.1449902E+03  0.7561462E-02  0.1102111E+00
         22   -1    0    0    0    0  0.00000000000E+00  0.00000000000E+00  0.10100456062E+04  0.10100456062E+04  0.00000000000E+00 0.  1.
         22   -1    0    0    0    0 -0.00000000000E+00 -0.00000000000E+00 -0.82256906663E+03  0.82256906663E+03  0.00000000000E+00 0.  1.
        -24    2    1    2    0    0 -0.73218060640E+02 -0.23717881824E+01 -0.79415561443E+03  0.80148784969E+03  0.79580924157E+02 0.  0.
         25    2    1    2    0    0  0.77693777322E+02 -0.69974852265E+01  0.23961693314E+03  0.28133378562E+03  0.12508851446E+03 0.  0.
         24    2    1    2    0    0 -0.44757166820E+01  0.93692734089E+01  0.74201522084E+03  0.74979303752E+03  0.10721565102E+03 0.  0.
        -13    1    5    5    0    0 -0.73345266627E+01 -0.19899322077E+02  0.68770567798E+03  0.68803261392E+03  0.00000000000E+00 0.  1.
         14    1    5    5    0    0  0.28588099807E+01  0.29268595486E+02  0.54309542864E+02  0.61760423593E+02  0.00000000000E+00 0. -1.
         13    1    3    3    0    0  0.86161549167E+01 -0.21556760800E+02 -0.13300754143E+03  0.13501828817E+03  0.00000000000E+00 0. -1.
        -14    1    3    3    0    0 -0.81834215557E+02  0.19184972617E+02 -0.66114807300E+03  0.66646956152E+03  0.00000000000E+00 0.  1.
          5    1    4    4  501    0 -0.20082676851E+02  0.41889209512E+01 -0.13814891006E+01  0.20981941768E+02  0.41800000000E+01 0.  1.
         -5    1    4    4    0  501  0.97776454172E+02 -0.11186406178E+02  0.24099842224E+03  0.26035184385E+03  0.41800000000E+01 0.  1.
</event>
<event>
11    1  0.1078607E-008  0.1326662E+03  0.7561462E-02  0.1116036E+00
         22   -1    0    0    0    0  0.00000000000E+00  0.00000000000E+00  0.17938293108E+04  0.17938293108E+04  0.00000000000E+00 0. -1.
         22   -1    0    0    0    0 -0.00000000000E+00 -0.00000000000E+00 -0.13521092325E+03  0.13521092325E+03  0.00000000000E+00 0. -1.
        -24    2    1    2    0    0 -0.12356881552E+02 -0.42917651844E+02 -0.10136958066E+03  0.13744483750E+03  0.81367524923E+02 0.  0.
         25    2    1    2    0    0  0.54457172381E+02  0.20174861012E+02  0.31618407235E+03  0.34495177412E+03  0.12508697062E+03 0.  0.
         24    2    1    2    0    0 -0.42100290829E+02  0.22742790832E+02  0.14438038958E+04  0.14466436224E+04  0.76931213373E+02 0.  0.
        -11    1    5    5    0    0 -0.37787688927E+02  0.25151958613E+02  0.36283798849E+03  0.36566642770E+03  0.00000000000E+00 0.  1.
         12    1    5    5    0    0 -0.43126019020E+01 -0.24091677813E+01  0.10809659073E+04  0.10809771947E+04  0.00000000000E+00 0. -1.
         11    1    3    3    0    0 -0.40950452107E+02 -0.48140642819E+02 -0.62266455536E+02  0.88721882892E+02  0.00000000000E+00 0. -1.
        -12    1    3    3    0    0  0.28593570555E+02  0.52229909746E+01 -0.39103125122E+02  0.48722954612E+02  0.00000000000E+00 0.  1.
          5    1    4    4  501    0 -0.21259487802E+02  0.45840598578E+02  0.72627978879E+02  0.88575515893E+02  0.41800000000E+01 0. -1.
         -5    1    4    4    0  501  0.75716660184E+02 -0.25665737566E+02  0.24355609347E+03  0.25637625822E+03  0.41800000000E+01 0. -1.
</event>
<event>
11    1  0.1078607E-008  0.1513781E+03  0.7561462E-02  0.1095479E+00
         22   -1    0    0    0    0  0.00000000000E+00  0.00000000000E+00  0.10539270591E+03  0.10539270591E+03  0.00000000000E+00 0. -1.
         22   -1    0    0    0    0 -0.00000000000E+00 -0.00000000000E+00 -0.63389816463E+03  0.63389816463E+03  0.00000000000E+00 0.  1.
        -24    2    1    2    0    0 -0.11057740340E+02 -0.78571299872E+02 -0.35530341270E+03  0.37270524593E+03  0.79830836666E+02 0.  0.
         25    2    1    2    0    0  0.25021852590E+02  0.10062612224E+03 -0.22197312434E+03  0.27508240700E+03  0.12508618281E+03 0.  0.
         24    2    1    2    0    0 -0.13964112250E+02 -0.22054822365E+02  0.48771078323E+02  0.91503217608E+02  0.72889019278E+02 0.  0.
        -13    1    5    5    0    0  0.18737271681E+02 -0.94485246478E+01 -0.98678231033E+01  0.23189090126E+02  0.00000000000E+00 0.  1.
         14    1    5    5    0    0 -0.32701383931E+02 -0.12606297717E+02  0.58638901426E+02  0.68314127482E+02  0.00000000000E+00 0. -1.
         13    1    3    3    0    0  0.66241998389E+01  0.30514893264E+01 -0.16160170033E+03  0.16176619289E+03  0.00000000000E+00 0. -1.
        -14    1    3    3    0    0 -0.17681940179E+02 -0.81622789199E+02 -0.19370171237E+03  0.21093905305E+03  0.00000000000E+00 0.  1.
          5    1    4    4  501    0 -0.30925610254E+02  0.36756918639E+02 -0.16705727375E+03  0.17387659288E+03  0.41800000000E+01 0.  1.
         -5    1    4    4    0  501  0.55947462844E+02  0.63869203598E+02 -0.54915850589E+02  0.10120581413E+03  0.41800000000E+01 0.  1.
</event>
<event>
11    1  0.1078607E-008  0.1422950E+03  0.7561462E-02  0.1105022E+00
         22   -1    0    0    0    0  0.00000000000E+00  0.00000000000E+00  0.34123103388E+03  0.34123103388E+03  0.00000000000E+00 0. -1.
         22   -1    0    0    0    0 -0.00000000000E+00 -0.00000000000E+00 -0.16110953403E+04  0.16110953403E+04  0.00000000000E+00 0.  1.
        -24    2    1    2    0    0  0.14976759011E+02  0.24594839829E+02 -0.15638385128E+04  0.15661078073E+04  0.79205811249E+02 0.  0.
         25    2    1    2    0    0 -0.41747910811E+02  0.44125838853E+02  0.13724773775E+03  0.19538563487E+03  0.12509447265E+03 0.  0.
         24    2    1    2    0    0  0.26771151800E+02 -0.68720678682E+02  0.15672646868E+03  0.19083293195E+03  0.80092419651E+02 0.  0.
        -13    1    5    5    0    0  0.48483152497E+02 -0.54244388422E+02  0.72714384497E+02  0.10286132152E+03  0.00000000000E+00 0.  1.
         14    1    5    5    0    0 -0.21712000697E+02 -0.14476290260E+02  0.84012084184E+02  0.87971610437E+02  0.00000000000E+00 0. -1.
         13    1    3    3    0    0  0.13923004493E+02  0.65199767648E+01 -0.53613170189E+02  0.55773938080E+02  0.00000000000E+00 0. -1.
        -14    1    3    3    0    0  0.10537545180E+01  0.18074863064E+02 -0.15102253426E+04  0.15103338692E+04  0.00000000000E+00 0.  1.
          5    1    4    4  501    0  0.85605170333E+01  0.30484823566E+02  0.13943641771E+03  0.14304752323E+03  0.41800000000E+01 0. -1.
         -5    1    4    4    0  501 -0.50308427845E+02  0.13641015287E+02 -0.21886799628E+01  0.52338111642E+02  0.41800000000E+01 0. -1.
</event>
<event>
11    1  0.1078607E-008  0.1252186E+03  0.7561462E-02  0.1125287E+00
         22   -1    0    0    0    0  0.00000000000E+00  0.00000000000E+00  0.18716783175E+04  0.18716783175E+04  0.00000000000E+00 0. -1.
         22   -1    0    0    0    0 -0.00000000000E+00 -0.00000000000E+00 -0.17543677113E+04  0.17543677113E+04  0.00000000000E+00 0. -1.
         24    2    1    2    0    0  0.58703762551E+02 -0.18348628126E+02 -0.17373602210E+04  0.17398689720E+04  0.70290103478E+02 0.  0.
         25    2    1    2    0    0 -0.58861955476E+02  0.16933813013E+02  0.32544733689E+03  0.35399854024E+03  0.12509002188E+03 0.  0.
        -24    2    1    2    0    0  0.15819292469E+00  0.14148151131E+01  0.15292234903E+04  0.15321785165E+04  0.95102557471E+02 0.  0.
        -13    1    3    3    0    0 -0.32387128903E+01 -0.25134469253E+02 -0.82181787040E+03  0.82220851548E+03  0.00000000000E+00 0.  1.
         14    1    3    3    0    0  0.61942475442E+02  0.67858411270E+01 -0.91554235055E+03  0.91766045657E+03  0.00000000000E+00 0. -1.
         13    1    5    5    0    0 -0.31208569119E+01 -0.38913727104E+02  0.33454574912E+03  0.33681578965E+03  0.00000000000E+00 0. -1.
        -14    1    5    5    0    0  0.32790498366E+01  0.40328542217E+02  0.11946777412E+04  0.11953627269E+04  0.00000000000E+00 0.  1.
          5    1    4    4  501    0  0.97608751807E+00  0.52411574345E+02  0.22928726271E+03  0.23524040281E+03  0.41800000000E+01 0.  1.
         -5    1    4    4    0  501 -0.59838042994E+02 -0.35477761332E+02  0.96160074180E+02  0.11875813743E+03  0.41800000000E+01 0.  1.
</event>
<event>
11    1  0.1078607E-008  0.2033800E+03  0.7561462E-02  0.1052159E+00
         22   -1    0    0    0    0  0.00000000000E+00  0.00000000000E+00  0.47910471291E+03  0.47910471291E+03  0.00000000000E+00 0. -1.
         22   -1    0    0    0    0 -0.00000000000E+00 -0.00000000000E+00 -0.15766748510E+04  0.15766748510E+04  0.00000000000E+00 0. -1.
         24    2    1    2    0    0  0.48901189919E+02  0.11032001734E+03 -0.53102405423E+03  0.55084015389E+03  0.82924642713E+02 0.  0.
         25    2    1    2    0    0 -0.11022945768E+03 -0.19719922719E+03 -0.10096099186E+04  0.10421118475E+04  0.12508735544E+03 0.  0.
        -24    2    1    2    0    0  0.61328267759E+02  0.86879209848E+02  0.44306383466E+03  0.46282756256E+03  0.81207373758E+02 0.  0.
        -11    1    3    3    0    0  0.39015197143E+02  0.12376101208E+02 -0.88617388912E+02  0.97613498589E+02  0.00000000000E+00 0.  1.
         12    1    3    3    0    0  0.98859927759E+01  0.97943916134E+02 -0.44240666531E+03  0.45322665530E+03  0.00000000000E+00 0. -1.
         13    1    5    5    0    0  0.56426645835E+01  0.75105336729E+02  0.28666339467E+03  0.29639256588E+03  0.00000000000E+00 0. -1.
        -14    1    5    5    0    0  0.55685603176E+02  0.11773873119E+02  0.15640044000E+03  0.16643499668E+03  0.00000000000E+00 0.  1.
          5    1    4    4  501    0 -0.12843507625E+03 -0.16662774395E+03 -0.94587135626E+03  0.96899456596E+03  0.41800000000E+01 0. -1.
         -5    1    4    4    0  501  0.18205618572E+02 -0.30571483244E+02 -0.63738562308E+02  0.73117281544E+02  0.41800000000E+01 0. -1.
</event>
<event>
11    1  0.1078607E-008  0.1983371E+03  0.7561462E-02  0.1055706E+00
         22   -1    0    0    0    0  0.00000000000E+00  0.00000000000E+00  0.90367536876E+03  0.90367536876E+03  0.00000000000E+00 0.  1.
         22   -1    0    0    0    0 -0.00000000000E+00 -0.00000000000E+00 -0.30761792673E+03  0.30761792673E+03  0.00000000000E+00 0.  1.
         24    2    1    2    0    0  0.75509652856E+02  0.12325866419E+03 -0.15605436021E+03  0.22795857102E+03  0.81961825207E+02 0.  0.
         25    2    1    2    0    0 -0.14707589666E+03 -0.12279744264E+03  0.51659635144E+01  0.22887583432E+03  0.12508768548E+03 0.  0.
        -24    2    1    2    0    0  0.71566243808E+02 -0.46122155235E+00  0.74694583873E+03  0.75445889015E+03  0.78474141941E+02 0.  0.
        -13    1    3    3    0    0  0.51260007359E+02  0.57754613665E+02 -0.13409297635E+03  0.15473884470E+03  0.00000000000E+00 0.  1.
         14    1    3    3    0    0  0.24249645497E+02  0.65504050523E+02 -0.21961383863E+02  0.73219726323E+02  0.00000000000E+00 0. -1.
         13    1    5    5    0    0  0.28051568882E+02  0.35546670802E+02  0.22835138512E+03  0.23279779081E+03  0.00000000000E+00 0. -1.
        -14    1    5    5    0    0  0.43514674926E+02 -0.36007892355E+02  0.51859445361E+03  0.52166109934E+03  0.00000000000E+00 0.  1.
          5    1    4    4  501    0 -0.76345802416E+02 -0.13197099889E+03  0.25399831809E+02  0.15462098806E+03  0.41800000000E+01 0. -1.
         -5    1    4    4    0  501 -0.70730094248E+02  0.91735562513E+01 -0.20233868294E+02  0.74254846258E+02  0.41800000000E+01 0. -1.
</event>
<event>
11    1  0.1078607E-008  0.1314241E+03  0.7561462E-02  0.1117531E+00
         22   -1    0    0    0    0  0.00000000000E+00  0.00000000000E+00  0.20360456375E+03  0.20360456375E+03  0.00000000000E+00 0. -1.
         22   -1    0    0    0    0 -0.00000000000E+00 -0.00000000000E+00 -0.49484844380E+03  0.49484844380E+03  0.00000000000E+00 0.  1.
        -24    2    1    2    0    0 -0.10610680664E+02  0.94115930773E+01 -0.31019372216E+03  0.32073171764E+03  0.80296480636E+02 0.  0.
         25    2    1    2    0    0 -0.23292849613E+02 -0.31603640999E+02 -0.14301233547E+03  0.19401492288E+03  0.12509162735E+03 0.  0.
         24    2    1    2    0    0  0.33903530277E+02  0.22192047922E+02  0.16196217758E+03  0.18370636704E+03  0.76644282025E+02 0.  0.
        -13    1    5    5    0    0 -0.28704453047E+01 -0.25576436663E+02  0.38466653312E+02  0.46282577561E+02  0.00000000000E+00 0.  1.
         14    1    5    5    0    0  0.36773975582E+02  0.47768484585E+02  0.12349552427E+03  0.13742378948E+03  0.00000000000E+00 0. -1.
         13    1    3    3    0    0 -0.20628383928E+02  0.51989649944E+01 -0.16722159982E+02  0.27059011345E+02  0.00000000000E+00 0. -1.
        -14    1    3    3    0    0  0.10017703264E+02  0.42126280830E+01 -0.29347156218E+03  0.29367270629E+03  0.00000000000E+00 0.  1.
          5    1    4    4  501    0 -0.74679670611E+02 -0.15218724165E+02 -0.73835583518E+02  0.10619712125E+03  0.41800000000E+01 0.  1.
         -5    1    4    4    0  501  0.51386820998E+02 -0.16384916834E+02 -0.69176751955E+02  0.87817801629E+02  0.41800000000E+01 0.  1.
</event>
<event>
11    1  0.1078607E-008  0.1414473E+03  0.7561462E-02  0.1105953E+00
         22   -1    0    0    0    0  0.00000000000E+00  0.00000000000E+00  0.11956843516E+04  0.11956843516E+04  0.00000000000E+00 0.  1.
         22   -1    0    0    0    0 -0.00000000000E+00 -0.00000000000E+00 -0.14344867868E+04  0.14344867868E+04  0.00000000000E+00 0.  1.
        -24    2    1    2    0    0  0.64518153858E+02 -0.16186797239E+02 -0.14096399286E+04  0.14141389984E+04  0.90993263209E+02 0.  0.
         25    2    1    2    0    0 -0.28631488626E+02 -0.23944225017E+02  0.18898404267E+03  0.22968132915E+03  0.12508179933E+03 0.  0.
         24    2    1    2    0    0 -0.35886665232E+02  0.40131022256E+02  0.98185345067E+03  0.98635081086E+03  0.77158096245E+02 0.  0.
        -11    1    5    5    0    0 -0.51199573434E+02  0.26035849954E+02  0.90208892461E+03  0.90391575366E+03  0.00000000000E+00 0.  1.
         12    1    5    5    0    0  0.15312908203E+02  0.14095172301E+02  0.79764526057E+02  0.82435057209E+02  0.00000000000E+00 0. -1.
         13    1    3    3    0    0 -0.72721828230E+01  0.25557362738E+02 -0.50384867170E+03  0.50454885532E+03  0.00000000000E+00 0. -1.
        -14    1    3    3    0    0  0.71790336681E+02 -0.41744159976E+02 -0.90579125687E+03  0.90959014306E+03  0.00000000000E+00 0.  1.
          5    1    4    4  501    0 -0.12497512112E+02 -0.47357854204E+02  0.12296683394E+02  0.50671836224E+02  0.41800000000E+01 0.  1.
         -5    1    4    4    0  501 -0.16133976514E+02  0.23413629187E+02  0.17668735928E+03  0.17900949293E+03  0.41800000000E+01 0.  1.
</event>
<event>
11    1  0.1078607E-008  0.1598656E+03  0.7561462E-02  0.1087204E+00
         22   -1    0    0    0    0  0.00000000000E+00  0.00000000000E+00  0.16839553751E+03  0.16839553751E+03  0.00000000000E+00 0.  1.
         22   -1    0    0    0    0 -0.00000000000E+00 -0.00000000000E+00 -0.44603595313E+03  0.44603595313E+03  0.00000000000E+00 0. -1.
         24    2    1    2    0    0 -0.11264871466E+02  0.83457979015E+02 -0.22151217960E+03  0.25040438224E+03  0.80886199936E+02 0.  0.
         25    2    1    2    0    0  0.26079152762E+02 -0.16647311866E+03 -0.10811812481E+03  0.23607551650E+03  0.12509476061E+03 0.  0.
        -24    2    1    2    0    0 -0.14814281295E+02  0.83015139645E+02  0.51989888797E+02  0.12795159191E+03  0.80979534416E+02 0.  0.
        -11    1    3    3    0    0  0.28986617726E+02  0.11331819342E+02 -0.88711885565E+02  0.94012939414E+02  0.00000000000E+00 0.  1.
         12    1    3    3    0    0 -0.40251489192E+02  0.72126159673E+02 -0.13280029404E+03  0.15639144282E+03  0.00000000000E+00 0. -1.
         13    1    5    5    0    0  0.23123357715E+02  0.38315130544E+02 -0.63991828135E+01  0.45207172454E+02  0.00000000000E+00 0. -1.
        -14    1    5    5    0    0 -0.37937639010E+02  0.44700009100E+02  0.58389071611E+02  0.82744419454E+02  0.00000000000E+00 0.  1.
          5    1    4    4  501    0 -0.22160551008E+02  0.38354264773E+01 -0.40561222497E+02  0.46567002134E+02  0.41800000000E+01 0.  1.
         -5    1    4    4    0  501  0.48239703769E+02 -0.17030854514E+03 -0.67556902311E+02  0.18950851436E+03  0.41800000000E+01 0.  1.
</event>
<event>
11    1  0.1078607E-008  0.3075855E+03  0.7561462E-02  0.9970310E-01
         22   -1    0    0    0    0  0.00000000000E+00  0.00000000000E+00  0.13436092002E+03  0.13436092002E+03  0.00000000000E+00 0.  1.
         22   -1    0    0    0    0 -0.00000000000E+00 -0.00000000000E+00 -0.19401442760E+04  0.19401442760E+04  0.00000000000E+00 0. -1.
         24    2    1    2    0    0  0.71792614429E+02 -0.84971504061E+02 -0.10955409289E+04  0.11038910569E+04  0.77402858877E+02 0.  0.
         25    2    1    2    0    0 -0.29840468094E+03 -0.72740210997E+02 -0.54840996596E+03  0.64088764330E+03  0.12508792378E+03 0.  0.
        -24    2    1    2    0    0  0.22661206651E+03  0.15771171506E+03 -0.16183246115E+03  0.32972649587E+03  0.79396491367E+02 0.  0.
        -13    1    3    3    0    0  0.33150211360E+02 -0.52788487125E+02 -0.28245451093E+03  0.28925094923E+03  0.00000000000E+00 0.  1.
         14    1    3    3    0    0  0.38642403069E+02 -0.32183016936E+02 -0.81308641795E+03  0.81464010762E+03  0.00000000000E+00 0. -1.
         11    1    5    5    0    0  0.55124372890E+02  0.51328041963E+02 -0.85554879483E+02  0.11398641051E+03  0.00000000000E+00 0. -1.
        -12    1    5    5    0    0  0.17148769362E+03  0.10638367309E+03 -0.76277581668E+02  0.21574008536E+03  0.00000000000E+00 0.  1.
          5    1    4    4  501    0 -0.21683308861E+03 -0.10000083880E+03 -0.34097803207E+03  0.41629346239E+03  0.41800000000E+01 0. -1.
         -5    1    4    4    0  501 -0.81571592334E+02  0.27260627800E+02 -0.20743193389E+03  0.22459418091E+03  0.41800000000E+01 0. -1.
</event>
<event>
11    1  0.1078607E-008  0.1338855E+03  0.7561462E-02  0.1114585E+00
         22   -1    0    0    0    0  0.00000000000E+00  0.00000000000E+00  0.57702241774E+03  0.57702241774E+03  0.00000000000E+00 0. -1.
         22   -1    0    0    0    0 -0.00000000000E+00 -0.00000000000E+00 -0.39958961751E+03  0.39958961751E+03  0.00000000000E+00 0. -1.
         24    2    1    2    0    0 -0.11002561771E+02 -0.47305709102E+02 -0.33602453752E+03  0.34880866845E+03  0.79975689401E+02 0.  0.
         25    2    1    2    0    0  0.31885689403E+02  0.29968887407E+02  0.28597769049E+02  0.13557489686E+03  0.12509152195E+03 0.  0.
        -24    2    1    2    0    0 -0.20883127633E+02  0.17336821695E+02  0.48485956870E+03  0.49222846994E+03  0.80395241491E+02 0.  0.
        -13    1    3    3    0    0 -0.14933530967E+02  0.20435625306E+02 -0.10633510184E+03  0.10930589651E+03  0.00000000000E+00 0.  1.
         14    1    3    3    0    0  0.39309691961E+01 -0.67741334408E+02 -0.22968943567E+03  0.23950277194E+03  0.00000000000E+00 0. -1.
         11    1    5    5    0    0 -0.17104007704E+01 -0.22209423506E+02  0.34287174091E+03  0.34359454984E+03  0.00000000000E+00 0. -1.
        -12    1    5    5    0    0 -0.19172726862E+02  0.39546245201E+02  0.14198782778E+03  0.14863392010E+03  0.00000000000E+00 0.  1.
          5    1    4    4  501    0 -0.15707982698E+02  0.67222814234E+02  0.28987030372E+02  0.74989117902E+02  0.41800000000E+01 0.  1.
         -5    1    4    4    0  501  0.47593672101E+02 -0.37253926827E+02 -0.38926132387E+00  0.60585778962E+02  0.41800000000E+01 0.  1.
</event>
<event>
11    1  0.1078607E-008  0.1355785E+03  0.7561462E-02  0.1112599E+00
         22   -1    0    0    0    0  0.00000000000E+00  0.00000000000E+00  0.45217650831E+03  0.45217650831E+03  0.00000000000E+00 0. -1.
         22   -1    0    0    0    0 -0.00000000000E+00 -0.00000000000E+00 -0.54092305113E+03  0.54092305113E+03  0.00000000000E+00 0.  1.
        -24    2    1    2    0    0 -0.76699844835E+01  0.41367475993E+02 -0.44530867332E+03  0.45472547743E+03  0.81886192702E+02 0.  0.
         25    2    1    2    0    0  0.10715154280E+02  0.13793033270E+02 -0.36996881460E+02  0.13161326212E+03  0.12509284244E+03 0.  0.
         24    2    1    2    0    0 -0.30451697968E+01 -0.55160509263E+02  0.39355901195E+03  0.40676081990E+03  0.86681681317E+02 0.  0.
        -11    1    5    5    0    0 -0.86065676807E+00 -0.78863588860E+02  0.29386112968E+03  0.30426069400E+03  0.00000000000E+00 0.  1.
         12    1    5    5    0    0 -0.21845130287E+01  0.23703079597E+02  0.99697882275E+02  0.10250012590E+03  0.00000000000E+00 0. -1.
         11    1    3    3    0    0 -0.24895959367E+02  0.55902007920E+02 -0.22192389237E+03  0.23020655353E+03  0.00000000000E+00 0. -1.
        -12    1    3    3    0    0  0.17225974884E+02 -0.14534531927E+02 -0.22338478095E+03  0.22451892390E+03  0.00000000000E+00 0.  1.
          5    1    4    4  501    0  0.40918588503E+02  0.14586618544E+02  0.33358556934E+02  0.54930556582E+02  0.41800000000E+01 0. -1.
         -5    1    4    4    0  501 -0.30203434223E+02 -0.79358527426E+00 -0.70355438394E+02  0.76682705535E+02  0.41800000000E+01 0. -1.
</event>
<event>
11    1  0.1078607E-008  0.1298421E+03  0.7561462E-02  0.1119463E+00
         22   -1    0    0    0    0  0.00000000000E+00  0.00000000000E+00  0.55897394784E+02  0.55897394784E+02  0.00000000000E+00 0.  1.
         22   -1    0    0    0    0 -0.00000000000E+00 -0.00000000000E+00 -0.15223720331E+04  0.15223720331E+04  0.00000000000E+00 0.  1.
        -24    2    1    2    0    0  0.19866844801E+02 -0.23704500653E+02 -0.10602953832E+04  0.10638206354E+04  0.80817385250E+02 0.  0.
         25    2    1    2    0    0  0.16809312983E+02  0.20142900891E+02 -0.40664451029E+03  0.42625749463E+03  0.12508958597E+03 0.  0.
         24    2    1    2    0    0 -0.36676157784E+02  0.35615997621E+01  0.46525518036E+00  0.88191297866E+02  0.80122799591E+02 0.  0.
        -13    1    5    5    0    0 -0.25106269671E+02 -0.27413645596E+02  0.26877453174E+02  0.45871889331E+02  0.00000000000E+00 0.  1.
         14    1    5    5    0    0 -0.11569888113E+02  0.30975245358E+02 -0.26412197993E+02  0.42319408535E+02  0.00000000000E+00 0. -1.
         11    1    3    3    0    0  0.26043878172E+02  0.23457653833E+01 -0.10698388170E+03  0.11013326995E+03  0.00000000000E+00 0. -1.
        -12    1    3    3    0    0 -0.61770333710E+01 -0.26050266036E+02 -0.95331150153E+03  0.95368736547E+03  0.00000000000E+00 0.  1.
          5    1    4    4  501    0 -0.35820491195E+02  0.49145931442E+02 -0.27208876255E+03  0.27883363727E+03  0.41800000000E+01 0.  1.
         -5    1    4    4    0  501  0.52629804178E+02 -0.29003030552E+02 -0.13455574774E+03  0.14742385736E+03  0.41800000000E+01 0.  1.
</event>
<event>
11    1  0.1078607E-008  0.1282479E+03  0.7561462E-02  0.1121441E+00
         22   -1    0    0    0    0  0.00000000000E+00  0.00000000000E+00  0.72181772395E+03  0.72181772395E+03  0.00000000000E+00 0.  1.
         22   -1    0    0    0    0 -0.00000000000E+00 -0.00000000000E+00 -0.86239755196E+03  0.86239755196E+03  0.00000000000E+00 0. -1.
        -24    2    1    2    0    0  0.21126262265E+02 -0.18427168083E+02 -0.83460142052E+03  0.83899838576E+03  0.81073304417E+02 0.  0.
         25    2    1    2    0    0 -0.34409088546E+02  0.39676856779E+02  0.18577391283E+03  0.23003843903E+03  0.12508996125E+03 0.  0.
         24    2    1    2    0    0  0.13282826281E+02 -0.21249688696E+02  0.50824767968E+03  0.51517845111E+03  0.80406155539E+02 0.  0.
        -11    1    5    5    0    0 -0.11867195313E+02 -0.35789377433E+01  0.44171388989E+03  0.44188776815E+03  0.00000000000E+00 0.  1.
         12    1    5    5    0    0  0.25150021594E+02 -0.17670750953E+02  0.66533789794E+02  0.73290682966E+02  0.00000000000E+00 0. -1.
         13    1    3    3    0    0  0.12378567198E+02 -0.50369197759E+02 -0.45198977516E+03  0.45495608784E+03  0.00000000000E+00 0. -1.
        -14    1    3    3    0    0  0.87476950672E+01  0.31942029676E+02 -0.38261164536E+03  0.38404229792E+03  0.00000000000E+00 0.  1.
          5    1    4    4  501    0  0.42545980537E+02 -0.10028779598E+02  0.63073260656E+02  0.76853402591E+02  0.41800000000E+01 0. -1.
         -5    1    4    4    0  501 -0.76955069083E+02  0.49705636377E+02  0.12270065217E+03  0.15318503644E+03  0.41800000000E+01 0. -1.
</event>
<event>
11    1  0.1078607E-008  0.2421592E+03  0.7561462E-02  0.1028161E+00
         22   -1    0    0    0    0  0.00000000000E+00  0.00000000000E+00  0.16871703779E+03  0.16871703779E+03  0.00000000000E+00 0. -1.
         22   -1    0    0    0    0 -0.00000000000E+00 -0.00000000000E+00 -0.17229785973E+04  0.17229785973E+04  0.00000000000E+00 0.  1.
        -24    2    1    2    0    0 -0.18757007689E+03 -0.11243478969E+03 -0.15014850586E+04  0.15191499263E+04  0.74397593359E+02 0.  0.
         25    2    1    2    0    0  0.99307454510E+02  0.10778527420E+03 -0.12870902054E+03  0.23172195464E+03  0.12509762763E+03 0.  0.
         24    2    1    2    0    0  0.88262622380E+02  0.46495154905E+01  0.75932519563E+02  0.14082375415E+03  0.79080172625E+02 0.  0.
        -11    1    5    5    0    0  0.29566200266E+02  0.16332704707E+02 -0.10786491706E+02  0.35457944731E+02  0.00000000000E+00 0.  1.
         12    1    5    5    0    0  0.58696422114E+02 -0.11683189217E+02  0.86719011269E+02  0.10536580942E+03  0.00000000000E+00 0. -1.
         11    1    3    3    0    0 -0.24429800014E+02  0.10630989741E+02 -0.17442220304E+03  0.17644528326E+03  0.00000000000E+00 0. -1.
        -12    1    3    3    0    0 -0.16314027688E+03 -0.12306577943E+03 -0.13270628555E+04  0.13427046431E+04  0.00000000000E+00 0.  1.
          5    1    4    4  501    0  0.11319043580E+03  0.36838516388E+02 -0.92214667097E+02  0.15063256047E+03  0.41800000000E+01 0.  1.
         -5    1    4    4    0  501 -0.13882981293E+02  0.70946757809E+02 -0.36494353447E+02  0.81089394169E+02  0.41800000000E+01 0.  1.
</event>
<event>
11    1  0.1078607E-008  0.1523655E+03  0.7561462E-02  0.1094486E+00
         22   -1    0    0    0    0  0.00000000000E+00  0.00000000000E+00  0.66899634658E+03  0.66899634658E+03  0.00000000000E+00 0.  1.
         22   -1    0    0    0    0 -0.00000000000E+00 -0.00000000000E+00 -0.42788232951E+03  0.42788232951E+03  0.00000000000E+00 0. -1.
        -24    2    1    2    0    0  0.59045524577E+02  0.66650391096E+02 -0.37380148368E+03  0.39196375774E+03  0.77326512771E+02 0.  0.
         25    2    1    2    0    0  0.91316244407E+01 -0.80322894756E+02  0.10024472399E+03  0.17953408487E+03  0.12509328102E+03 0.  0.
         24    2    1    2    0    0 -0.68177149018E+02  0.13672503660E+02  0.51467077676E+03  0.52538083348E+03  0.79397422764E+02 0.  0.
        -11    1    5    5    0    0 -0.75103932715E+02  0.25958436159E+02  0.49403972759E+03  0.50038954182E+03  0.00000000000E+00 0.  1.
         12    1    5    5    0    0  0.69267836971E+01 -0.12285932499E+02  0.20631049161E+02  0.24991291667E+02  0.00000000000E+00 0. -1.
         13    1    3    3    0    0  0.56028027798E+02  0.12478404731E+02 -0.25467624579E+03  0.26106482079E+03  0.00000000000E+00 0. -1.
        -14    1    3    3    0    0  0.30174967789E+01  0.54171986365E+02 -0.11912523788E+03  0.13089893695E+03  0.00000000000E+00 0.  1.
          5    1    4    4  501    0 -0.15263039015E+02 -0.10952408990E+03  0.74728931807E+02  0.13353041705E+03  0.41800000000E+01 0. -1.
         -5    1    4    4    0  501  0.24394663456E+02  0.29201195139E+02  0.25515792181E+02  0.46003667825E+02  0.41800000000E+01 0. -1.
</event>
<event>
11    1  0.1078607E-008  0.1867530E+03  0.7561462E-02  0.1064308E+00
         22   -1    0    0    0    0  0.00000000000E+00  0.00000000000E+00  0.17894480027E+03  0.17894480027E+03  0.00000000000E+00 0. -1.
         22   -1    0    0    0    0 -0.00000000000E+00 -0.00000000000E+00 -0.82615782470E+03  0.82615782470E+03  0.00000000000E+00 0. -1.
        -24    2    1    2    0    0 -0.36172623271E+02  0.82012360285E+01 -0.60451685595E+03  0.61130290120E+03  0.82914950077E+02 0.  0.
         25    2    1    2    0    0  0.11021876714E+03 -0.11772687730E+03 -0.10484831486E+03  0.22945315584E+03  0.12509111609E+03 0.  0.
         24    2    1    2    0    0 -0.74046143871E+02  0.10952564127E+03  0.62152146380E+02  0.16434656794E+03  0.75287499452E+02 0.  0.
        -11    1    5    5    0    0 -0.11914049732E+02 -0.69690732435E+00 -0.12625558325E+02  0.17373398742E+02  0.00000000000E+00 0.  1.
         12    1    5    5    0    0 -0.62132094140E+02  0.11022254860E+03  0.74777704705E+02  0.14697316919E+03  0.00000000000E+00 0. -1.
         11    1    3    3    0    0  0.16031617683E+02 -0.78423250153E+01 -0.37319256471E+03  0.37361906427E+03  0.00000000000E+00 0. -1.
        -12    1    3    3    0    0 -0.52204240954E+02  0.16043561044E+02 -0.23132429124E+03  0.23768383694E+03  0.00000000000E+00 0.  1.
          5    1    4    4  501    0  0.11440057766E+03 -0.63935989828E+02 -0.25767065250E+02  0.13362902759E+03  0.41800000000E+01 0. -1.
         -5    1    4    4    0  501 -0.41818105159E+01 -0.53790887474E+02 -0.79081249605E+02  0.95824128243E+02  0.41800000000E+01 0. -1.
</event>
<event>
11    1  0.1078607E-008  0.1682259E+03  0.7561462E-02  0.1079586E+00
         22   -1    0    0    0    0  0.00000000000E+00  0.00000000000E+00  0.28676817951E+03  0.28676817951E+03  0.00000000000E+00 0.  1.
         22   -1    0    0    0    0 -0.00000000000E+00 -0.00000000000E+00 -0.27397605821E+04  0.27397605821E+04  0.00000000000E+00 0.  1.
         24    2    1    2    0    0  0.11235446223E+03 -0.11246038610E+02 -0.26726710497E+04  0.26762872033E+04  0.81195174406E+02 0.  0.
         25    2    1    2    0    0 -0.81228684865E+02  0.41891802306E+02  0.60960561737E+02  0.16648534900E+03  0.12509260170E+03 0.  0.
        -24    2    1    2    0    0 -0.31125777369E+02 -0.30645763696E+02  0.15871808537E+03  0.18375620926E+03  0.81651313338E+02 0.  0.
        -11    1    3    3    0    0  0.91762552883E+02 -0.30757439204E+02 -0.24360628024E+04  0.24379844879E+04  0.00000000000E+00 0.  1.
         12    1    3    3    0    0  0.20591909352E+02  0.19511400594E+02 -0.23660824729E+03  0.23830271541E+03  0.00000000000E+00 0. -1.
         13    1    5    5    0    0  0.24319612879E+02 -0.16340311233E+02  0.25842364265E+02  0.39067596964E+02  0.00000000000E+00 0. -1.
        -14    1    5    5    0    0 -0.55445390248E+02 -0.14305452464E+02  0.13287572110E+03  0.14468861230E+03  0.00000000000E+00 0.  1.
          5    1    4    4  501    0 -0.23177522893E+02 -0.44661636620E+02  0.23102223121E+02  0.55525169663E+02  0.41800000000E+01 0. -1.
         -5    1    4    4    0  501 -0.58051161973E+02  0.86553438926E+02  0.37858338616E+02  0.11096017934E+03  0.41800000000E+01 0. -1.
</event>
<event>
11    1  0.1078607E-008  0.1496847E+03  0.7561462E-02  0.1097201E+00
         22   -1    0    0    0    0  0.00000000000E+00  0.00000000000E+00  0.86381118140E+03  0.86381118140E+03  0.00000000000E+00 0.  1.
         22   -1    0    0    0    0 -0.00000000000E+00 -0.00000000000E+00 -0.11247094372E+04  0.11247094372E+04  0.00000000000E+00 0. -1.
        -24    2    1    2    0    0  0.63820827516E+02 -0.52282233947E+02 -0.10897620776E+04  0.10959840432E+04  0.82420307226E+02 0.  0.
         25    2    1    2    0    0 -0.77343423598E+02  0.65116427011E+01  0.16129115009E+03  0.21837342950E+03  0.12509081880E+03 0.  0.
         24    2    1    2    0    0  0.13522596082E+02  0.45770591246E+02  0.66757267177E+03  0.67416314590E+03  0.81023870340E+02 0.  0.
        -13    1    5    5    0    0 -0.13577278023E+02  0.30464911412E+02  0.58451226420E+03  0.58546309901E+03  0.00000000000E+00 0.  1.
         14    1    5    5    0    0  0.27099874105E+02  0.15305679834E+02  0.83060407574E+02  0.88700046889E+02  0.00000000000E+00 0. -1.
         13    1    3    3    0    0  0.81066562855E+02 -0.26889512829E+02 -0.84471615367E+03  0.84902309379E+03  0.00000000000E+00 0. -1.
        -14    1    3    3    0    0 -0.17245735339E+02 -0.25392721118E+02 -0.24504592396E+03  0.24696094939E+03  0.00000000000E+00 0.  1.
          5    1    4    4  501    0 -0.71334272177E+02 -0.18359282470E+02  0.17436984482E+03  0.18933556671E+03  0.41800000000E+01 0.  1.
         -5    1    4    4    0  501 -0.60091514215E+01  0.24870925171E+02 -0.13078694726E+02  0.29037862790E+02  0.41800000000E+01 0.  1.
</event>
<event>
11    1  0.1078607E-008  0.1428995E+03  0.7561462E-02  0.1104363E+00
         22   -1    0    0    0    0  0.00000000000E+00  0.00000000000E+00  0.11246488667E+04  0.11246488667E+04  0.00000000000E+00 0. -1.
         22   -1    0    0    0    0 -0.00000000000E+00 -0.00000000000E+00 -0.12444201318E+03  0.12444201318E+03  0.00000000000E+00 0. -1.
         24    2    1    2    0    0 -0.36558761165E+02  0.56533235508E+02 -0.67534531144E+02  0.12543037495E+03  0.81482000033E+02 0.  0.
         25    2    1    2    0    0  0.47121184900E+01 -0.95013517271E+02  0.21780213880E+03  0.26857383516E+03  0.12507741898E+03 0.  0.
        -24    2    1    2    0    0  0.31846642675E+02  0.38480281763E+02  0.84993924591E+03  0.85508666982E+03  0.79256232772E+02 0.  0.
        -11    1    3    3    0    0  0.59969212750E+01  0.37676267600E+02  0.57821367737E+01  0.38586232140E+02  0.00000000000E+00 0.  1.
         12    1    3    3    0    0 -0.42555682440E+02  0.18856967908E+02 -0.73316667918E+02  0.86844142815E+02  0.00000000000E+00 0. -1.
         13    1    5    5    0    0  0.13615396169E+01  0.23444228450E+02  0.73122150663E+03  0.73159850834E+03  0.00000000000E+00 0. -1.
        -14    1    5    5    0    0  0.30485103058E+02  0.15036053313E+02  0.11871773927E+03  0.12348816148E+03  0.00000000000E+00 0.  1.
          5    1    4    4  501    0  0.27930255658E+02 -0.89673910651E+02  0.66030767975E+02  0.11488709306E+03  0.41800000000E+01 0. -1.
         -5    1    4    4    0  501 -0.23218137168E+02 -0.53396066195E+01  0.15177137083E+03  0.15368674210E+03  0.41800000000E+01 0. -1.
</event>
<event>
11    1  0.1078607E-008  0.4585404E+03  0.7561462E-02  0.9491256E-01
         22   -1    0    0    0    0  0.00000000000E+00  0.00000000000E+00  0.73969782087E+03  0.73969782087E+03  0.00000000000E+00 0. -1.
         22   -1    0    0    0    0 -0.00000000000E+00 -0.00000000000E+00 -0.90984036867E+03  0.90984036867E+03  0.00000000000E+00 0. -1.
         24    2    1    2    0    0 -0.33947084396E+02 -0.99453527974E+01 -0.55666302385E+03  0.56376442388E+03  0.81885828648E+02 0.  0.
         25    2    1    2    0    0  0.40034955522E+03 -0.22407180418E+03 -0.32285086671E+02  0.47663162161E+03  0.12508971220E+03 0.  0.
        -24    2    1    2    0    0 -0.36640247083E+03  0.23401715698E+03  0.41880556272E+03  0.60914214405E+03  0.81493876501E+02 0.  0.
        -11    1    3    3    0    0 -0.21832658898E+02  0.28470514762E+00 -0.31306148755E+02  0.38168324583E+02  0.00000000000E+00 0.  1.
         12    1    3    3    0    0 -0.12114425499E+02 -0.10230057945E+02 -0.52535687509E+03  0.52559609930E+03  0.00000000000E+00 0. -1.
         13    1    5    5    0    0 -0.33598469000E+03  0.21989176469E+03  0.41123073734E+03  0.57475979280E+03  0.00000000000E+00 0. -1.
        -14    1    5    5    0    0 -0.30417780830E+02  0.14125392288E+02  0.75748253824E+01  0.34382351250E+02  0.00000000000E+00 0.  1.
          5    1    4    4  501    0  0.35346646293E+03 -0.23046915385E+03 -0.52046275123E+02  0.42518332334E+03  0.41800000000E+01 0.  1.
         -5    1    4    4    0  501  0.46883092294E+02  0.63973496654E+01  0.19761188452E+02  0.51448298269E+02  0.41800000000E+01 0.  1.
</event>
<event>
11    1  0.1078607E-008  0.1077039E+04  0.7561462E-02  0.8609004E-01
         22   -1    0    0    0    0  0.00000000000E+00  0.00000000000E+00  0.22020238589E+04  0.22020238589E+04  0.00000000000E+00 0. -1.
         22   -1    0    0    0    0 -0.00000000000E+00 -0.00000000000E+00 -0.97133378779E+03  0.97133378779E+03  0.00000000000E+00 0. -1.
         24    2    1    2    0    0 -0.16631716754E+03  0.37384418083E+02 -0.30491756261E+03  0.35856088735E+03  0.80821995853E+02 0.  0.
         25    2    1    2    0    0 -0.91164150154E+03  0.26704874257E+03  0.59372798284E+02  0.95998861051E+03  0.12509094648E+03 0.  0.
        -24    2    1    2    0    0  0.10779586691E+04 -0.30443316065E+03  0.14762348354E+04  0.18548081488E+04  0.79809385632E+02 0.  0.
        -13    1    3    3    0    0 -0.10943010490E+03  0.17006493290E+02 -0.26200109541E+03  0.28444462144E+03  0.00000000000E+00 0.  1.
         14    1    3    3    0    0 -0.56887062640E+02  0.20377924793E+02 -0.42916467203E+02  0.74116265906E+02  0.00000000000E+00 0. -1.
         11    1    5    5    0    0  0.55862034823E+03 -0.14393144697E+03  0.69784488513E+03  0.90540622849E+03  0.00000000000E+00 0. -1.
        -12    1    5    5    0    0  0.51933832085E+03 -0.16050171368E+03  0.77838995029E+03  0.94940192032E+03  0.00000000000E+00 0.  1.
          5    1    4    4  501    0 -0.56826592243E+03  0.22819814099E+03  0.46684953650E+02  0.61416407209E+03  0.41800000000E+01 0.  1.
         -5    1    4    4    0  501 -0.34337557911E+03  0.38850601578E+02  0.12687844634E+02  0.34582453842E+03  0.41800000000E+01 0.  1.
</event>
<event>
11    1  0.1078607E-008  0.2282505E+03  0.7561462E-02  0.1036169E+00
         22   -1    0    0    0    0  0.00000000000E+00  0.00000000000E+00  0.30222843093E+03  0.30222843093E+03  0.00000000000E+00 0.  1.
         22   -1    0    0    0    0 -0.00000000000E+00 -0.00000000000E+00 -0.20672016007E+04  0.20672016007E+04  0.00000000000E+00 0. -1.
         24    2    1    2    0    0  0.10878143499E+03 -0.15330544394E+03 -0.17362599455E+04  0.17482501384E+04  0.80274454785E+02 0.  0.
         25    2    1    2    0    0 -0.22426079783E+03  0.11008468284E+03 -0.23683445746E+03  0.36626300043E+03  0.12508590009E+03 0.  0.
        -24    2    1    2    0    0  0.11547936285E+03  0.43220761099E+02  0.20812123327E+03  0.25491689279E+03  0.80403091119E+02 0.  0.
        -11    1    3    3    0    0 -0.28276392230E+01 -0.56459072011E+02 -0.50554124814E+03  0.50869202463E+03  0.00000000000E+00 0.  1.
         12    1    3    3    0    0  0.11160907421E+03 -0.96846371930E+02 -0.12307186974E+04  0.12395581137E+04  0.00000000000E+00 0. -1.
         11    1    5    5    0    0  0.54885564049E+01  0.25957334788E+02  0.84414355453E+02  0.88485540554E+02  0.00000000000E+00 0. -1.
        -12    1    5    5    0    0  0.10999080644E+03  0.17263426312E+02  0.12370687782E+03  0.16643135224E+03  0.00000000000E+00 0.  1.
          5    1    4    4  501    0 -0.34845980650E+02  0.16718505655E+02 -0.11728563499E+03  0.12356028234E+03  0.41800000000E+01 0. -1.
         -5    1    4    4    0  501 -0.18941481718E+03  0.93366177187E+02 -0.11954882247E+03  0.24270271808E+03  0.41800000000E+01 0. -1.
</event>
<event>
11    1  0.1078607E-008  0.1600393E+03  0.7561462E-02  0.1087040E+00
         22   -1    0    0    0    0  0.00000000000E+00  0.00000000000E+00  0.22591199315E+03  0.22591199315E+03  0.00000000000E+00 0. -1.
         22   -1    0    0    0    0 -0.00000000000E+00 -0.00000000000E+00 -0.25697449766E+04  0.25697449766E+04  0.00000000000E+00 0. -1.
         24    2    1    2    0    0  0.98001267335E+02  0.44528321335E+01 -0.21976151727E+04  0.22023432756E+04  0.10573258907E+03 0.  0.
         25    2    1    2    0    0 -0.11298817829E+03 -0.32928590879E+02 -0.33959728843E+03  0.38055766049E+03  0.12508874495E+03 0.  0.
        -24    2    1    2    0    0  0.14986910957E+02  0.28475758745E+02  0.19337947765E+03  0.21275603364E+03  0.82668199060E+02 0.  0.
        -13    1    3    3    0    0  0.57499057676E+01 -0.10909966689E+02 -0.26655331939E+02  0.29369976341E+02  0.00000000000E+00 0.  1.
         14    1    3    3    0    0  0.92251361568E+02  0.15362798822E+02 -0.21709598407E+04  0.21729732993E+04  0.00000000000E+00 0. -1.
         11    1    5    5    0    0  0.38543083928E+02  0.45509710849E+02  0.13074448417E+03  0.14370394303E+03  0.00000000000E+00 0. -1.
        -12    1    5    5    0    0 -0.23556172971E+02 -0.17033952104E+02  0.62634993481E+02  0.69052090610E+02  0.00000000000E+00 0.  1.
          5    1    4    4  501    0 -0.12168736475E+03 -0.44992183711E+02 -0.18966331460E+03  0.22982984279E+03  0.41800000000E+01 0. -1.
         -5    1    4    4    0  501  0.86991864537E+01  0.12063592832E+02 -0.14993397383E+03  0.15072781769E+03  0.41800000000E+01 0. -1.
</event>
<event>
11    1  0.1078607E-008  0.1425885E+03  0.7561462E-02  0.1104702E+00
         22   -1    0    0    0    0  0.00000000000E+00  0.00000000000E+00  0.79777059568E+03  0.79777059568E+03  0.00000000000E+00 0.  1.
         22   -1    0    0    0    0 -0.00000000000E+00 -0.00000000000E+00 -0.11922645911E+03  0.11922645911E+03  0.00000000000E+00 0.  1.
         24    2    1    2    0    0 -0.22959090683E+02  0.12832167855E+02 -0.59850454201E+02  0.10218011358E+03  0.78529703723E+02 0.  0.
         25    2    1    2    0    0  0.49214295694E+01  0.55353335203E+02  0.10496064193E+03  0.17248908126E+03  0.12509010598E+03 0.  0.
        -24    2    1    2    0    0  0.18037661114E+02 -0.68185503057E+02  0.63343394884E+03  0.64232785994E+03  0.79824132149E+02 0.  0.
        -11    1    3    3    0    0 -0.52040638839E+01  0.36127371465E+02 -0.62908698008E+02  0.72730829329E+02  0.00000000000E+00 0.  1.
         12    1    3    3    0    0 -0.17755026799E+02 -0.23295203610E+02  0.30582438066E+01  0.29449284254E+02  0.00000000000E+00 0. -1.
         11    1    5    5    0    0  0.44867984097E+02 -0.42458108046E+02  0.26892334422E+03  0.27592678740E+03  0.00000000000E+00 0. -1.
        -12    1    5    5    0    0 -0.26830322984E+02 -0.25727395011E+02  0.36451060462E+03  0.36640107255E+03  0.00000000000E+00 0.  1.
          5    1    4    4  501    0  0.42151820830E+02 -0.13390935710E+02  0.77857683610E+02  0.89640305977E+02  0.41800000000E+01 0.  1.
         -5    1    4    4    0  501 -0.37230391261E+02  0.68744270913E+02  0.27102958317E+02  0.82848775286E+02  0.41800000000E+01 0.  1.
</event>
<event>
11    1  0.1078607E-008  0.1527678E+03  0.7561462E-02  0.1094084E+00
         22   -1    0    0    0    0  0.00000000000E+00  0.00000000000E+00  0.16718208028E+04  0.16718208028E+04  0.00000000000E+00 0.  1.
         22   -1    0    0    0    0 -0.00000000000E+00 -0.00000000000E+00 -0.22441229918E+03  0.22441229918E+03  0.00000000000E+00 0. -1.
         24    2    1    2    0    0 -0.30100401623E+02 -0.48130305781E+02 -0.14456510459E+03  0.17410154283E+03  0.78674756049E+02 0.  0.
         25    2    1    2    0    0 -0.16149764789E+02 -0.28726239986E+02  0.38576651707E+01  0.12941658798E+03  0.12509100646E+03 0.  0.
        -24    2    1    2    0    0  0.46250166412E+02  0.76856545767E+02  0.15881159431E+04  0.15927149712E+04  0.81133990085E+02 0.  0.
        -11    1    3    3    0    0 -0.55938628285E+01  0.10560180723E+02  0.39131651339E+01  0.12574640337E+02  0.00000000000E+00 0.  1.
         12    1    3    3    0    0 -0.24506538794E+02 -0.58690486504E+02 -0.14847826972E+03  0.16152690249E+03  0.00000000000E+00 0. -1.
         13    1    5    5    0    0  0.20020650875E+02  0.16629156435E+02  0.10615722992E+03  0.10930101907E+03  0.00000000000E+00 0. -1.
        -14    1    5    5    0    0  0.26229515537E+02  0.60227389332E+02  0.14819587131E+04  0.14834139521E+04  0.00000000000E+00 0.  1.
          5    1    4    4  501    0  0.27633098750E+02 -0.25086290558E+02 -0.48242627059E+02  0.61137006682E+02  0.41800000000E+01 0.  1.
         -5    1    4    4    0  501 -0.43782863539E+02 -0.36399494280E+01  0.52100292230E+02  0.68279581296E+02  0.41800000000E+01 0.  1.
</event>
<event>
11    1  0.1078607E-008  0.1398667E+03  0.7561462E-02  0.1107707E+00
         22   -1    0    0    0    0  0.00000000000E+00  0.00000000000E+00  0.21591583755E+03  0.21591583755E+03  0.00000000000E+00 0.  1.
         22   -1    0    0    0    0 -0.00000000000E+00 -0.00000000000E+00 -0.70670861586E+03  0.70670861586E+03  0.00000000000E+00 0. -1.
         24    2    1    2    0    0  0.12223461037E+02  0.61208782473E+02 -0.53561358230E+03  0.54528574427E+03  0.80985834020E+02 0.  0.
         25    2    1    2    0    0 -0.59629607584E+02 -0.50706756711E+02 -0.11855708129E+03  0.18928954454E+03  0.12509150600E+03 0.  0.
        -24    2    1    2    0    0  0.47406146547E+02 -0.10502025762E+02  0.16337788528E+03  0.18804916460E+03  0.79451366449E+02 0.  0.
        -11    1    3    3    0    0  0.81928596286E+01  0.50749205042E+00 -0.23152690252E+01  0.85288315574E+01  0.00000000000E+00 0.  1.
         12    1    3    3    0    0  0.40306014088E+01  0.60701290423E+02 -0.53329831327E+03  0.53675691272E+03  0.00000000000E+00 0. -1.
         13    1    5    5    0    0  0.98785532164E+01  0.17161713776E+02  0.18044308757E+01  0.19883817645E+02  0.00000000000E+00 0. -1.
        -14    1    5    5    0    0  0.37527593330E+02 -0.27663739538E+02  0.16157345441E+03  0.16816534695E+03  0.00000000000E+00 0.  1.
          5    1    4    4  501    0  0.18583766955E+02 -0.18061918218E+02  0.15609774928E+02  0.30540575588E+02  0.41800000000E+01 0.  1.
         -5    1    4    4    0  501 -0.78213374539E+02 -0.32644838493E+02 -0.13416685622E+03  0.15874896895E+03  0.41800000000E+01 0.  1.
</event>
<event>
11    1  0.1078607E-008  0.1456769E+03  0.7561462E-02  0.1101380E+00
         22   -1    0    0    0    0  0.00000000000E+00  0.00000000000E+00  0.16918692712E+03  0.16918692712E+03  0.00000000000E+00 0.  1.
         22   -1    0    0    0    0 -0.00000000000E+00 -0.00000000000E+00 -0.59219887915E+03  0.59219887915E+03  0.00000000000E+00 0. -1.
         24    2    1    2    0    0 -0.32529086809E+02 -0.53283454857E+02 -0.29841124629E+03  0.31516707765E+03  0.79898353348E+02 0.  0.
         25    2    1    2    0    0  0.66126140275E+02  0.92803594365E+02 -0.24040434799E+03  0.29398506566E+03  0.12509114574E+03 0.  0.
        -24    2    1    2    0    0 -0.33597053467E+02 -0.39520139508E+02  0.11580364225E+03  0.15223366297E+03  0.84107081472E+02 0.  0.
        -11    1    3    3    0    0 -0.30667688245E+00 -0.10236897217E+02 -0.21914303639E+03  0.21938222014E+03  0.00000000000E+00 0.  1.
         12    1    3    3    0    0 -0.32222409926E+02 -0.43046557640E+02 -0.79268209899E+02  0.95784857502E+02  0.00000000000E+00 0. -1.
         11    1    5    5    0    0 -0.29084182848E+02 -0.63207072318E+02  0.61677113371E+02  0.92978976100E+02  0.00000000000E+00 0. -1.
        -12    1    5    5    0    0 -0.45128706189E+01  0.23686932810E+02  0.54126528882E+02  0.59254686869E+02  0.00000000000E+00 0.  1.
          5    1    4    4  501    0  0.36095953285E+02  0.82834999677E+02 -0.24552788616E+03  0.26166002808E+03  0.41800000000E+01 0.  1.
         -5    1    4    4    0  501  0.30030186990E+02  0.99685946879E+01  0.51235381689E+01  0.32325037573E+02  0.41800000000E+01 0.  1.
</event>
<event>
11    1  0.1078607E-008  0.1289747E+03  0.7561462E-02  0.1120535E+00
         22   -1    0    0    0    0  0.00000000000E+00  0.00000000000E+00  0.16001763954E+03  0.16001763954E+03  0.00000000000E+00 0. -1.
         22   -1    0    0    0    0 -0.00000000000E+00 -0.00000000000E+00 -0.18249381402E+03  0.18249381402E+03  0.00000000000E+00 0. -1.
         24    2    1    2    0    0  0.14032874449E+02  0.30314836226E+02 -0.61399641462E+02  0.10552737934E+03  0.79058212460E+02 0.  0.
         25    2    1    2    0    0 -0.94834783228E+01 -0.25123543111E+02 -0.29222744906E+02  0.13123603286E+03  0.12509116164E+03 0.  0.
        -24    2    1    2    0    0 -0.45493961263E+01 -0.51912931152E+01  0.68146211885E+02  0.10574804136E+03  0.80567335370E+02 0.  0.
        -11    1    3    3    0    0  0.65644342892E+01 -0.22077675517E+02  0.17914224142E+01  0.23102483590E+02  0.00000000000E+00 0.  1.
         12    1    3    3    0    0  0.74684401599E+01  0.52392511742E+02 -0.63191063876E+02  0.82424895747E+02  0.00000000000E+00 0. -1.
         13    1    5    5    0    0 -0.19654942913E+02  0.33453776470E+02  0.26685069784E+02  0.47091027706E+02  0.00000000000E+00 0. -1.
        -14    1    5    5    0    0  0.15105546787E+02 -0.38645069585E+02  0.41461142100E+02  0.58657013658E+02  0.00000000000E+00 0.  1.
          5    1    4    4  501    0 -0.64353201347E+02 -0.31744235733E+02 -0.99947338970E+01  0.72569953366E+02  0.41800000000E+01 0. -1.
         -5    1    4    4    0  501  0.54869723024E+02  0.66206926227E+01 -0.19228011009E+02  0.58666079492E+02  0.41800000000E+01 0. -1.
</event>
<event>
11    1  0.1078607E-008  0.2601451E+03  0.7561462E-02  0.1018629E+00
         22   -1    0    0    0    0  0.00000000000E+00  0.00000000000E+00  0.15688557451E+03  0.15688557451E+03  0.00000000000E+00 0.  1.
         22   -1    0    0    0    0 -0.00000000000E+00 -0.00000000000E+00 -0.16696866563E+04  0.16696866563E+04  0.00000000000E+00 0.  1.
        -24    2    1    2    0    0 -0.18670457049E+03 -0.13853976013E+03 -0.11995631752E+04  0.12244358905E+04  0.78990991256E+02 0.  0.
         25    2    1    2    0    0  0.21793960306E+03  0.59841872410E+02 -0.38599555292E+03  0.46445751865E+03  0.12509795954E+03 0.  0.
         24    2    1    2    0    0 -0.31235032569E+02  0.78697887723E+02  0.72757646327E+02  0.13767882174E+03  0.80577900605E+02 0.  0.
        -11    1    5    5    0    0 -0.53606691399E+02  0.56243361534E+02  0.27491411572E+02  0.82418267330E+02  0.00000000000E+00 0.  1.
         12    1    5    5    0    0  0.22371658830E+02  0.22454526189E+02  0.45266234755E+02  0.55260554414E+02  0.00000000000E+00 0. -1.
         13    1    3    3    0    0 -0.18266341366E+01  0.74328658821E+01 -0.79686703120E+02  0.80053449280E+02  0.00000000000E+00 0. -1.
        -14    1    3    3    0    0 -0.18487793635E+03 -0.14597262601E+03 -0.11198764721E+04  0.11443824412E+04  0.00000000000E+00 0.  1.
          5    1    4    4  501    0  0.21036375461E+03  0.41688014909E+02 -0.26088692751E+03  0.33774289213E+03  0.41800000000E+01 0.  1.
         -5    1    4    4    0  501  0.75758484509E+01  0.18153857501E+02 -0.12510862541E+03  0.12671462652E+03  0.41800000000E+01 0.  1.
</event>
<event>
11    1  0.1078607E-008  0.1940837E+03  0.7561462E-02  0.1058788E+00
         22   -1    0    0    0    0  0.00000000000E+00  0.00000000000E+00  0.25628818119E+03  0.25628818119E+03  0.00000000000E+00 0.  1.
         22   -1    0    0    0    0 -0.00000000000E+00 -0.00000000000E+00 -0.40039270687E+03  0.40039270687E+03  0.00000000000E+00 0.  1.
         24    2    1    2    0    0 -0.31179503750E+02  0.93282824936E+02 -0.23373342008E+03  0.26579421442E+03  0.79632944664E+02 0.  0.
         25    2    1    2    0    0  0.79439489477E+02  0.78768720247E+02 -0.14620744521E+02  0.16848543738E+03  0.12513365918E+03 0.  0.
        -24    2    1    2    0    0 -0.48259985727E+02 -0.17205154518E+03  0.10424963893E+03  0.22240123626E+03  0.81630645288E+02 0.  0.
        -11    1    3    3    0    0 -0.48373956285E+01  0.78472358048E+01 -0.12358671276E+03  0.12393004106E+03  0.00000000000E+00 0.  1.
         12    1    3    3    0    0 -0.26342108121E+02  0.85435589131E+02 -0.11014670732E+03  0.14186417336E+03  0.00000000000E+00 0. -1.
         13    1    5    5    0    0 -0.57301274527E+01 -0.38520860505E+01 -0.11801166700E+02  0.13672617271E+02  0.00000000000E+00 0. -1.
        -14    1    5    5    0    0 -0.42529858275E+02 -0.16819945913E+03  0.11605080563E+03  0.20872861899E+03  0.00000000000E+00 0.  1.
          5    1    4    4  501    0  0.44146625690E+02  0.38024359585E+02  0.55070594974E+02  0.80280877626E+02  0.41800000000E+01 0.  1.
         -5    1    4    4    0  501  0.35292863787E+02  0.40744360662E+02 -0.69691339495E+02  0.88204559750E+02  0.41800000000E+01 0.  1.
</event>
<event>
11    1  0.1078607E-008  0.1523681E+03  0.7561462E-02  0.1094483E+00
         22   -1    0    0    0    0  0.00000000000E+00  0.00000000000E+00  0.38652085718E+03  0.38652085718E+03  0.00000000000E+00 0. -1.
         22   -1    0    0    0    0 -0.00000000000E+00 -0.00000000000E+00 -0.48860113711E+03  0.48860113711E+03  0.00000000000E+00 0.  1.
         24    2    1    2    0    0 -0.29250948909E+02  0.78355143507E+02 -0.25133212166E+03  0.27682623826E+03  0.80434969301E+02 0.  0.
         25    2    1    2    0    0  0.14419257939E+02 -0.94695349553E+02 -0.19159952055E+03  0.24805767628E+03  0.12508840977E+03 0.  0.
        -24    2    1    2    0    0  0.14831690970E+02  0.16340206045E+02  0.34085136228E+03  0.35023807975E+03  0.77460182990E+02 0.  0.
        -13    1    3    3    0    0 -0.43707230048E+02  0.25604636000E+02 -0.17968138720E+03  0.18668508309E+03  0.00000000000E+00 0.  1.
         14    1    3    3    0    0  0.14456281139E+02  0.52750507507E+02 -0.71650734455E+02  0.90141155165E+02  0.00000000000E+00 0. -1.
         13    1    5    5    0    0  0.15728204949E+02  0.35996891793E+01  0.33628869446E+03  0.33667554146E+03  0.00000000000E+00 0. -1.
        -14    1    5    5    0    0 -0.89651397900E+00  0.12740516866E+02  0.45626678180E+01  0.13562538293E+02  0.00000000000E+00 0.  1.
          5    1    4    4  501    0  0.51646844409E+02 -0.98593238624E+01 -0.11938793385E+03  0.13052032007E+03  0.41800000000E+01 0. -1.
         -5    1    4    4    0  501 -0.37227586470E+02 -0.84836025690E+02 -0.72211586703E+02  0.11753735620E+03  0.41800000000E+01 0. -1.
</event>
<event>
11    1  0.1078607E-008  0.2677507E+03  0.7561462E-02  0.1014846E+00
         22   -1    0    0    0    0  0.00000000000E+00  0.00000000000E+00  0.15212121881E+04  0.15212121881E+04  0.00000000000E+00 0. -1.
         22   -1    0    0    0    0 -0.00000000000E+00 -0.00000000000E+00 -0.69330781947E+03  0.69330781947E+03  0.00000000000E+00 0.  1.
        -24    2    1    2    0    0  0.35910379158E+02  0.22144650580E+03 -0.50333875115E+03  0.55665874230E+03  0.78682569278E+02 0.  0.
         25    2    1    2    0    0  0.95712565747E+01 -0.33506356397E+03  0.42033696305E+02  0.36024487444E+03  0.12510130727E+03 0.  0.
         24    2    1    2    0    0 -0.45481635732E+02  0.11361705818E+03  0.12892094234E+04  0.12976163908E+04  0.82279676012E+02 0.  0.
        -13    1    5    5    0    0  0.20239204533E+02  0.79014531766E+01  0.13851359556E+03  0.14020725558E+03  0.00000000000E+00 0.  1.
         14    1    5    5    0    0 -0.65720840265E+02  0.10571560500E+03  0.11506958279E+04  0.11574091352E+04  0.00000000000E+00 0. -1.
         13    1    3    3    0    0  0.30574726893E+02  0.40168936607E+02 -0.65118491575E+02  0.82394024891E+02  0.00000000000E+00 0. -1.
        -14    1    3    3    0    0  0.53356522645E+01  0.18127756919E+03 -0.43822025958E+03  0.47426471741E+03  0.00000000000E+00 0.  1.
          5    1    4    4  501    0  0.29890728205E+02 -0.12071947148E+02 -0.59616383650E+01  0.33048465510E+02  0.41800000000E+01 0.  1.
         -5    1    4    4    0  501 -0.20319471630E+02 -0.32299161682E+03  0.47995334670E+02  0.32719640893E+03  0.41800000000E+01 0.  1.
</event>
<event>
11    1  0.1078607E-008  0.1475138E+03  0.7561462E-02  0.1099447E+00
         22   -1    0    0    0    0  0.00000000000E+00  0.00000000000E+00  0.15287338388E+04  0.15287338388E+04  0.00000000000E+00 0.  1.
         22   -1    0    0    0    0 -0.00000000000E+00 -0.00000000000E+00 -0.51245121566E+02  0.51245121566E+02  0.00000000000E+00 0. -1.
         24    2    1    2    0    0  0.70479681358E+01 -0.30675155690E+02  0.29877164978E+02  0.91933170765E+02  0.81045813391E+02 0.  0.
         25    2    1    2    0    0 -0.81684566717E+02  0.65662355775E+01  0.30176162441E+03  0.33678394805E+03  0.12509142979E+03 0.  0.
        -24    2    1    2    0    0  0.74636598582E+02  0.24108920113E+02  0.11458499279E+04  0.11512618416E+04  0.79245875574E+02 0.  0.
        -13    1    3    3    0    0  0.18962943757E+02  0.21747427259E+02  0.24596595867E+02  0.37914856674E+02  0.00000000000E+00 0.  1.
         14    1    3    3    0    0 -0.11914975621E+02 -0.52422582949E+02  0.52805691112E+01  0.54018314091E+02  0.00000000000E+00 0. -1.
         13    1    5    5    0    0  0.35690076859E+02  0.50432806913E+02  0.52207650070E+03  0.52571962316E+03  0.00000000000E+00 0. -1.
        -14    1    5    5    0    0  0.38946521723E+02 -0.26323886801E+02  0.62377342720E+03  0.62554221844E+03  0.00000000000E+00 0.  1.
          5    1    4    4  501    0 -0.74865080565E+02  0.55507693588E+02  0.14547988133E+03  0.17282289376E+03  0.41800000000E+01 0.  1.
         -5    1    4    4    0  501 -0.68194861524E+01 -0.48941458011E+02  0.15628174308E+03  0.16396105429E+03  0.41800000000E+01 0.  1.
</event>
<event>
11    1  0.1078607E-008  0.1484404E+03  0.7561462E-02  0.1098483E+00
         22   -1    0    0    0    0  0.00000000000E+00  0.00000000000E+00  0.69876832547E+03  0.69876832547E+03  0.00000000000E+00 0. -1.
         22   -1    0    0    0    0 -0.00000000000E+00 -0.00000000000E+00 -0.35754362191E+03  0.35754362191E+03  0.00000000000E+00 0. -1.
        -24    2    1    2    0    0  0.71526142844E+02  0.30083649901E+02 -0.29922250056E+03  0.31979740728E+03  0.81946700754E+02 0.  0.
         25    2    1    2    0    0 -0.11296301748E+03 -0.37156216028E+02  0.12752305586E+03  0.21459453385E+03  0.12508979365E+03 0.  0.
         24    2    1    2    0    0  0.41436874639E+02  0.70725661274E+01  0.51292414826E+03  0.52192000624E+03  0.86846273803E+02 0.  0.
        -13    1    5    5    0    0  0.34294455444E+02  0.19862437114E+02  0.85429520733E+02  0.94174460949E+02  0.00000000000E+00 0.  1.
         14    1    5    5    0    0  0.71424191952E+01 -0.12789870986E+02  0.42749462753E+03  0.42774554529E+03  0.00000000000E+00 0. -1.
         13    1    3    3    0    0  0.30894512654E+02  0.46958145798E+02 -0.90866146094E+02  0.10684659506E+03  0.00000000000E+00 0. -1.
        -14    1    3    3    0    0  0.40631630190E+02 -0.16874495898E+02 -0.20835635446E+03  0.21295081223E+03  0.00000000000E+00 0.  1.
          5    1    4    4  501    0 -0.46815688624E+02 -0.60323179423E+02  0.92214124818E+01  0.77026628676E+02  0.41800000000E+01 0.  1.
         -5    1    4    4    0  501 -0.66147328859E+02  0.23166963395E+02  0.11830164338E+03  0.13756790518E+03  0.41800000000E+01 0.  1.
</event>
<event>
11    1  0.1078607E-008  0.1542014E+03  0.7561462E-02  0.1092661E+00
         22   -1    0    0    0    0  0.00000000000E+00  0.00000000000E+00  0.15710843929E+04  0.15710843929E+04  0.00000000000E+00 0.  1.
         22   -1    0    0    0    0 -0.00000000000E+00 -0.00000000000E+00 -0.37777179824E+03  0.37777179824E+03  0.00000000000E+00 0. -1.
         24    2    1    2    0    0 -0.33630643581E+02  0.83282137650E+02 -0.34826757345E+03  0.36844100780E+03  0.79947100467E+02 0.  0.
         25    2    1    2    0    0  0.65382823562E+02 -0.84821598901E+02  0.35555469203E+03  0.39183712381E+03  0.12509026865E+03 0.  0.
        -24    2    1    2    0    0 -0.31752179981E+02  0.15394612505E+01  0.11860254761E+04  0.11885780595E+04  0.71069000390E+02 0.  0.
        -13    1    3    3    0    0 -0.42386865101E+02  0.24109957646E+02 -0.80869510710E+02  0.94434178946E+02  0.00000000000E+00 0.  1.
         14    1    3    3    0    0  0.87562215196E+01  0.59172180004E+02 -0.26739806274E+03  0.27400682885E+03  0.00000000000E+00 0. -1.
         13    1    5    5    0    0 -0.16574833129E+02  0.36151408538E+02  0.55664989511E+03  0.55806877279E+03  0.00000000000E+00 0. -1.
        -14    1    5    5    0    0 -0.15177346851E+02 -0.34611947287E+02  0.62937558094E+03  0.63050928672E+03  0.00000000000E+00 0.  1.
          5    1    4    4  501    0 -0.13505993847E-01  0.47051562330E+01 -0.88824470903E+01  0.10886181328E+02  0.41800000000E+01 0. -1.
         -5    1    4    4    0  501  0.65396329556E+02 -0.89526755134E+02  0.36443713912E+03  0.38095094248E+03  0.41800000000E+01 0. -1.
</event>
<event>
11    1  0.1078607E-008  0.1325007E+03  0.7561462E-02  0.1116234E+00
         22   -1    0    0    0    0  0.00000000000E+00  0.00000000000E+00  0.30885120592E+03  0.30885120592E+03  0.00000000000E+00 0.  1.
         22   -1    0    0    0    0 -0.00000000000E+00 -0.00000000000E+00 -0.11051748688E+04  0.11051748688E+04  0.00000000000E+00 0. -1.
        -24    2    1    2    0    0 -0.24415902052E+02 -0.14381483819E+02 -0.10270349134E+04  0.10305925899E+04  0.80730474907E+02 0.  0.
         25    2    1    2    0    0  0.18397610612E+02 -0.30986819011E+02 -0.36628227089E+01  0.13022657832E+03  0.12508753096E+03 0.  0.
         24    2    1    2    0    0  0.60182914402E+01  0.45368302830E+02  0.23437407323E+03  0.25320690654E+03  0.84190430473E+02 0.  0.
        -13    1    5    5    0    0  0.32648392026E+02  0.46695379032E+02  0.20815527131E+03  0.21581240210E+03  0.00000000000E+00 0.  1.
         14    1    5    5    0    0 -0.26630100586E+02 -0.13270762017E+01  0.26218801926E+02  0.37394504448E+02  0.00000000000E+00 0. -1.
         11    1    3    3    0    0 -0.15372109971E+02  0.33484464292E+02 -0.44571983610E+03  0.44724007357E+03  0.00000000000E+00 0. -1.
        -12    1    3    3    0    0 -0.90437920819E+01 -0.47865948111E+02 -0.58131507729E+03  0.58335251628E+03  0.00000000000E+00 0.  1.
          5    1    4    4  501    0 -0.17502768088E+02 -0.72569546999E+02 -0.65678556466E+01  0.75055280761E+02  0.41800000000E+01 0.  1.
         -5    1    4    4    0  501  0.35900378700E+02  0.41582727988E+02  0.29050329377E+01  0.55171297557E+02  0.41800000000E+01 0.  1.
</event>
<event>
11    1  0.1078607E-008  0.1350133E+03  0.7561462E-02  0.1113258E+00
         22   -1    0    0    0    0  0.00000000000E+00  0.00000000000E+00  0.21102985248E+04  0.21102985248E+04  0.00000000000E+00 0.  1.
         22   -1    0    0    0    0 -0.00000000000E+00 -0.00000000000E+00 -0.34901369397E+02  0.34901369397E+02  0.00000000000E+00 0.  1.
         24    2    1    2    0    0 -0.44237520286E+02  0.18767825192E+02  0.89796509617E+02  0.13983136738E+03  0.95813405643E+02 0.  0.
         25    2    1    2    0    0  0.69119115574E+02 -0.75826796089E+00  0.58257655381E+03  0.59984986693E+03  0.12508554953E+03 0.  0.
        -24    2    1    2    0    0 -0.24881595288E+02 -0.18009557231E+02  0.14030240919E+04  0.14055186599E+04  0.77863102187E+02 0.  0.
        -13    1    3    3    0    0 -0.33405867555E+02  0.47879785989E+02  0.17190362708E+02  0.60859957800E+02  0.00000000000E+00 0.  1.
         14    1    3    3    0    0 -0.10831652731E+02 -0.29111960797E+02  0.72606146909E+02  0.78971409582E+02  0.00000000000E+00 0. -1.
         13    1    5    5    0    0  0.26172117968E+02 -0.17283920314E+02  0.65793819306E+03  0.65868534184E+03  0.00000000000E+00 0. -1.
        -14    1    5    5    0    0 -0.51053713255E+02 -0.72563691721E+00  0.74508589888E+03  0.74683331802E+03  0.00000000000E+00 0.  1.
          5    1    4    4  501    0 -0.34922859377E+02 -0.11986552607E+02  0.18616378932E+03  0.18983601451E+03  0.41800000000E+01 0. -1.
         -5    1    4    4    0  501  0.10404197495E+03  0.11228284646E+02  0.39641276449E+03  0.41001385242E+03  0.41800000000E+01 0. -1.
</event>
<event>
11    1  0.1078607E-008  0.1404882E+03  0.7561462E-02  0.1107014E+00
         22   -1    0    0    0    0  0.00000000000E+00  0.00000000000E+00  0.24611655367E+04  0.24611655367E+04  0.00000000000E+00 0.  1.
         22   -1    0    0    0    0 -0.00000000000E+00 -0.00000000000E+00 -0.28769669708E+02  0.28769669708E+02  0.00000000000E+00 0.  1.
         24    2    1    2    0    0 -0.59766753165E+02  0.61889297158E+01  0.13694565436E+03  0.17167727035E+03  0.84312545161E+02 0.  0.
         25    2    1    2    0    0  0.71809674139E+02 -0.43390038822E+02  0.56027020394E+03  0.58016770941E+03  0.12511013091E+03 0.  0.
        -24    2    1    2    0    0 -0.12042920974E+02  0.37201109107E+02  0.17351800087E+04  0.17380902266E+04  0.92622993479E+02 0.  0.
        -13    1    3    3    0    0 -0.63628904493E+02  0.24652194855E+02  0.13673147785E+03  0.15281317100E+03  0.00000000000E+00 0.  1.
         14    1    3    3    0    0  0.38621513279E+01 -0.18463265140E+02  0.21417651212E+00  0.18864099344E+02  0.00000000000E+00 0. -1.
         13    1    5    5    0    0 -0.26564946351E+02  0.42626279513E+02  0.44635623714E+03  0.44917322551E+03  0.00000000000E+00 0. -1.
        -14    1    5    5    0    0  0.14522025377E+02 -0.54251704066E+01  0.12888237715E+04  0.12889170011E+04  0.00000000000E+00 0.  1.
          5    1    4    4  501    0 -0.13996120518E+01 -0.21902404513E+02  0.97611422724E+01  0.24380864132E+02  0.41800000000E+01 0. -1.
         -5    1    4    4    0  501  0.73209286191E+02 -0.21487634309E+02  0.55050906167E+03  0.55578684528E+03  0.41800000000E+01 0. -1.
</event>
<event>
11    1  0.1078607E-008  0.1518320E+03  0.7561462E-02  0.1095021E+00
         22   -1    0    0    0    0  0.00000000000E+00  0.00000000000E+00  0.17187600867E+04  0.17187600867E+04  0.00000000000E+00 0. -1.
         22   -1    0    0    0    0 -0.00000000000E+00 -0.00000000000E+00 -0.54187811726E+02  0.54187811726E+02  0.00000000000E+00 0.  1.
        -24    2    1    2    0    0 -0.33274999117E+02  0.12557874059E+02  0.29915529474E+02  0.90855364800E+02  0.78069409132E+02 0.  0.
         25    2    1    2    0    0  0.27503918973E+02 -0.97243353929E+02  0.28401258321E+03  0.32637892898E+03  0.12508925780E+03 0.  0.
         24    2    1    2    0    0  0.57710801439E+01  0.84685479870E+02  0.13506441623E+04  0.13557136046E+04  0.80714241838E+02 0.  0.
        -11    1    5    5    0    0  0.15933404246E+02  0.16507313792E+02  0.80640833202E+02  0.83840973032E+02  0.00000000000E+00 0.  1.
         12    1    5    5    0    0 -0.10162324102E+02  0.68178166078E+02  0.12700033291E+04  0.12718726316E+04  0.00000000000E+00 0. -1.
         13    1    3    3    0    0  0.22668396680E+01 -0.30023340151E+02  0.13619078560E+02  0.33045707993E+02  0.00000000000E+00 0. -1.
        -14    1    3    3    0    0 -0.35541838785E+02  0.42581214210E+02  0.16296450914E+02  0.57809656808E+02  0.00000000000E+00 0.  1.
          5    1    4    4  501    0  0.81086238152E+01  0.29673283946E+02  0.40152824444E+02  0.50754066547E+02  0.41800000000E+01 0. -1.
         -5    1    4    4    0  501  0.19395295158E+02 -0.12691663787E+03  0.24385975877E+03  0.27562486243E+03  0.41800000000E+01 0. -1.
</event>
<event>
11    1  0.1078607E-008  0.1496523E+03  0.7561462E-02  0.1097235E+00
         22   -1    0    0    0    0  0.00000000000E+00  0.00000000000E+00  0.91794012893E+03  0.91794012893E+03  0.00000000000E+00 0.  1.
         22   -1    0    0    0    0 -0.00000000000E+00 -0.00000000000E+00 -0.47755213163E+03  0.47755213163E+03  0.00000000000E+00 0.  1.
        -24    2    1    2    0    0 -0.35933923402E+01 -0.48035310930E+01 -0.45177415729E+03  0.45899820156E+03  0.80891739100E+02 0.  0.
         25    2    1    2    0    0 -0.62926817428E+02  0.53027378883E+02  0.32405289721E+03  0.35697160174E+03  0.12508699772E+03 0.  0.
         24    2    1    2    0    0  0.66520209768E+02 -0.48223847789E+02  0.56810925738E+03  0.57952245726E+03  0.79672280927E+02 0.  0.
        -11    1    5    5    0    0  0.27605013809E+02 -0.27297512292E+02  0.47366659019E+03  0.47525491016E+03  0.00000000000E+00 0.  1.
         12    1    5    5    0    0  0.38915195959E+02 -0.20926335497E+02  0.94442667191E+02  0.10426754711E+03  0.00000000000E+00 0. -1.
         11    1    3    3    0    0  0.16918232488E+02 -0.29664840676E+02 -0.98405470740E+02  0.10416269022E+03  0.00000000000E+00 0. -1.
        -12    1    3    3    0    0 -0.20511624828E+02  0.24861309583E+02 -0.35336868655E+03  0.35483551133E+03  0.00000000000E+00 0.  1.
          5    1    4    4  501    0 -0.49118146572E+02  0.19549821843E+02  0.31496986109E+03  0.31940299568E+03  0.41800000000E+01 0. -1.
         -5    1    4    4    0  501 -0.13808670855E+02  0.33477557040E+02  0.90830361215E+01  0.37568606061E+02  0.41800000000E+01 0. -1.
</event>
<event>
11    1  0.1078607E-008  0.1696217E+03  0.7561462E-02  0.1078361E+00
         22   -1    0    0    0    0  0.00000000000E+00  0.00000000000E+00  0.16137473338E+03  0.16137473338E+03  0.00000000000E+00 0. -1.
         22   -1    0    0    0    0 -0.00000000000E+00 -0.00000000000E+00 -0.21085187627E+04  0.21085187627E+04  0.00000000000E+00 0.  1.
        -24    2    1    2    0    0  0.30665281944E+02 -0.13238859249E+02 -0.14315434240E+04  0.14341897449E+04  0.80424017112E+02 0.  0.
         25    2    1    2    0    0 -0.74163621471E+02 -0.92759702802E+02 -0.63109182992E+03  0.65423951891E+03  0.12509134702E+03 0.  0.
         24    2    1    2    0    0  0.43498339527E+02  0.10599856205E+03  0.11549122465E+03  0.18146423226E+03  0.80394302798E+02 0.  0.
        -11    1    5    5    0    0  0.18672649102E+02 -0.91563369335E+01  0.89859408812E+01  0.22655097970E+02  0.00000000000E+00 0.  1.
         12    1    5    5    0    0  0.24825690425E+02  0.11515489898E+03  0.10650528376E+03  0.15880913429E+03  0.00000000000E+00 0. -1.
         13    1    3    3    0    0  0.46562650586E+02 -0.28779077765E+02 -0.64074543588E+03  0.64307933363E+03  0.00000000000E+00 0. -1.
        -14    1    3    3    0    0 -0.15897368643E+02  0.15540218516E+02 -0.79079798813E+03  0.79111041123E+03  0.00000000000E+00 0.  1.
          5    1    4    4  501    0 -0.88096898452E+02 -0.91577785738E+02 -0.34345507620E+03  0.36623273492E+03  0.41800000000E+01 0. -1.
         -5    1    4    4    0  501  0.13933276981E+02 -0.11819170639E+01 -0.28763675372E+03  0.28800678399E+03  0.41800000000E+01 0. -1.
</event>
<event>
11    1  0.1078607E-008  0.1642677E+03  0.7561462E-02  0.1083131E+00
         22   -1    0    0    0    0  0.00000000000E+00  0.00000000000E+00  0.10101776150E+04  0.10101776150E+04  0.00000000000E+00 0.  1.
         22   -1    0    0    0    0 -0.00000000000E+00 -0.00000000000E+00 -0.13649753046E+03  0.13649753046E+03  0.00000000000E+00 0.  1.
        -24    2    1    2    0    0  0.33586594361E+02  0.41970884823E+02 -0.93612973761E+02  0.13153408364E+03  0.75154586084E+02 0.  0.
         25    2    1    2    0    0 -0.81391399047E+02  0.60980053804E+02  0.40260756808E+03  0.43368652634E+03  0.12509205591E+03 0.  0.
         24    2    1    2    0    0  0.47804804686E+02 -0.10295093863E+03  0.56468549025E+03  0.58145453552E+03  0.79595721381E+02 0.  0.
        -11    1    5    5    0    0  0.28003560077E+02 -0.11126448426E+03  0.42889183553E+03  0.44397318772E+03  0.00000000000E+00 0.  1.
         12    1    5    5    0    0  0.19801244609E+02  0.83135456338E+01  0.13579365472E+03  0.13748134779E+03  0.00000000000E+00 0. -1.
         13    1    3    3    0    0 -0.19535210327E+02  0.16784689239E+02 -0.56276309825E+02  0.61890009556E+02  0.00000000000E+00 0. -1.
        -14    1    3    3    0    0  0.53121804688E+02  0.25186195584E+02 -0.37336663936E+02  0.69644074086E+02  0.00000000000E+00 0.  1.
          5    1    4    4  501    0 -0.10706672838E+03  0.18213511366E+02  0.23812193874E+03  0.26175283462E+03  0.41800000000E+01 0.  1.
         -5    1    4    4    0  501  0.25675329332E+02  0.42766542437E+02  0.16448562934E+03  0.17193369172E+03  0.41800000000E+01 0.  1.
</event>
<event>
11    1  0.1078607E-008  0.1421078E+03  0.7561462E-02  0.1105227E+00
         22   -1    0    0    0    0  0.00000000000E+00  0.00000000000E+00  0.73571668539E+03  0.73571668539E+03  0.00000000000E+00 0. -1.
         22   -1    0    0    0    0 -0.00000000000E+00 -0.00000000000E+00 -0.46221248188E+03  0.46221248188E+03  0.00000000000E+00 0. -1.
         24    2    1    2    0    0  0.23316902781E+02  0.63604090768E+02 -0.43767429644E+03  0.45021523524E+03  0.80906179980E+02 0.  0.
         25    2    1    2    0    0 -0.29195004828E+02 -0.44106116094E+02  0.31606477160E+03  0.34400740910E+03  0.12508581010E+03 0.  0.
        -24    2    1    2    0    0  0.58781020470E+01 -0.19497974674E+02  0.39511372835E+03  0.40370652293E+03  0.80308002233E+02 0.  0.
        -11    1    3    3    0    0 -0.18756474070E+02 -0.19886280226E+01 -0.32174461996E+02  0.37295522059E+02  0.00000000000E+00 0.  1.
         12    1    3    3    0    0  0.42073376850E+02  0.65592718791E+02 -0.40549983444E+03  0.41291971318E+03  0.00000000000E+00 0. -1.
         11    1    5    5    0    0 -0.20146330779E+02 -0.61018097375E+01  0.34521817376E+03  0.34585935613E+03  0.00000000000E+00 0. -1.
        -12    1    5    5    0    0  0.26024432826E+02 -0.13396164937E+02  0.49895554590E+02  0.57847166800E+02  0.00000000000E+00 0.  1.
          5    1    4    4  501    0  0.80118216553E+01 -0.77250345885E+02  0.24547157402E+03  0.25749868209E+03  0.41800000000E+01 0.  1.
         -5    1    4    4    0  501 -0.37206826483E+02  0.33144229791E+02  0.70593197572E+02  0.86508727010E+02  0.41800000000E+01 0.  1.
</event>
<event>
11    1  0.1078607E-008  0.2130517E+03  0.7561462E-02  0.1045659E+00
         22   -1    0    0    0    0  0.00000000000E+00  0.00000000000E+00  0.98592696001E+03  0.98592696001E+03  0.00000000000E+00 0. -1.
         22   -1    0    0    0    0 -0.00000000000E+00 -0.00000000000E+00 -0.16575330598E+03  0.16575330598E+03  0.00000000000E+00 0.  1.
        -24    2    1    2    0    0  0.14508992214E+02  0.76388901691E+02 -0.85781316679E+02  0.14082585256E+03  0.80173008554E+02 0.  0.
         25    2    1    2    0    0 -0.14865487277E+03  0.47783437584E+02  0.22431138296E+03  0.30056728783E+03  0.12507425747E+03 0.  0.
         24    2    1    2    0    0  0.13414588056E+03 -0.12417233928E+03  0.68164358775E+03  0.71028712560E+03  0.80348820541E+02 0.  0.
        -13    1    5    5    0    0  0.82727136845E+02 -0.10125447331E+03  0.34455303644E+03  0.36852821120E+03  0.00000000000E+00 0.  1.
         14    1    5    5    0    0  0.51418743713E+02 -0.22917865969E+02  0.33709055131E+03  0.34175891440E+03  0.00000000000E+00 0. -1.
         11    1    3    3    0    0  0.35597991431E+01  0.89451822786E+02 -0.53418665231E+02  0.10424900270E+03  0.00000000000E+00 0. -1.
        -12    1    3    3    0    0  0.10949193071E+02 -0.13062921095E+02 -0.32362651447E+02  0.36576849853E+02  0.00000000000E+00 0.  1.
          5    1    4    4  501    0 -0.24130238384E+02 -0.40425756561E+02  0.48353860404E+02  0.67617145857E+02  0.41800000000E+01 0. -1.
         -5    1    4    4    0  501 -0.12452463439E+03  0.88209194144E+02  0.17595752255E+03  0.23295014197E+03  0.41800000000E+01 0. -1.
</event>
<event>
11    1  0.1078607E-008  0.1638603E+03  0.7561462E-02  0.1083502E+00
         22   -1    0    0    0    0  0.00000000000E+00  0.00000000000E+00  0.12461183282E+03  0.12461183282E+03  0.00000000000E+00 0.  1.
         22   -1    0    0    0    0 -0.00000000000E+00 -0.00000000000E+00 -0.39823601595E+03  0.39823601595E+03  0.00000000000E+00 0.  1.
         24    2    1    2    0    0  0.92463682796E+02  0.66659126865E+02 -0.23641633856E+03  0.27420856635E+03  0.79402020698E+02 0.  0.
         25    2    1    2    0    0 -0.77990724257E+02 -0.16926446103E+02 -0.13228026526E+01  0.14838657110E+03  0.12509103496E+03 0.  0.
        -24    2    1    2    0    0 -0.14472958539E+02 -0.49732680761E+02 -0.35885041906E+02  0.10025271132E+03  0.77974764056E+02 0.  0.
        -13    1    3    3    0    0  0.12478536732E+02  0.51240013140E+02 -0.59927439678E+02  0.79828258480E+02  0.00000000000E+00 0.  1.
         14    1    3    3    0    0  0.79985146064E+02  0.15419113724E+02 -0.17648889889E+03  0.19438030787E+03  0.00000000000E+00 0. -1.
         13    1    5    5    0    0  0.26768626650E+02 -0.56715413815E-01 -0.82107309797E+00  0.26781276116E+02  0.00000000000E+00 0. -1.
        -14    1    5    5    0    0 -0.41241585190E+02 -0.49675965348E+02 -0.35063968808E+02  0.73471435203E+02  0.00000000000E+00 0.  1.
          5    1    4    4  501    0 -0.21990783293E+01  0.23357238653E+02 -0.45797195168E+02  0.51626078955E+02  0.41800000000E+01 0.  1.
         -5    1    4    4    0  501 -0.75791645928E+02 -0.40283684756E+02  0.44474392516E+02  0.96760492142E+02  0.41800000000E+01 0.  1.
</event>
<event>
11    1  0.1078607E-008  0.1993512E+03  0.7561462E-02  0.1054983E+00
         22   -1    0    0    0    0  0.00000000000E+00  0.00000000000E+00  0.27501619402E+03  0.27501619402E+03  0.00000000000E+00 0. -1.
         22   -1    0    0    0    0 -0.00000000000E+00 -0.00000000000E+00 -0.28409066627E+04  0.28409066627E+04  0.00000000000E+00 0. -1.
        -24    2    1    2    0    0  0.43600502674E+02  0.40388864397E+02 -0.24382415589E+04  0.24403084247E+04  0.80938521084E+02 0.  0.
         25    2    1    2    0    0 -0.19216037131E+03 -0.68928727910E+02 -0.33168606330E+03  0.40907202043E+03  0.12508994954E+03 0.  0.
         24    2    1    2    0    0  0.14855986864E+03  0.28539863512E+02  0.20403715350E+03  0.26654241156E+03  0.80803086401E+02 0.  0.
        -11    1    5    5    0    0  0.25195280087E+02  0.34535870541E+00 -0.14236643271E+01  0.25237833335E+02  0.00000000000E+00 0.  1.
         12    1    5    5    0    0  0.12336458855E+03  0.28194504807E+02  0.20546081783E+03  0.24130457822E+03  0.00000000000E+00 0. -1.
         13    1    3    3    0    0 -0.77565793089E+01  0.27885912336E+02 -0.16699277154E+04  0.16701785423E+04  0.00000000000E+00 0. -1.
        -14    1    3    3    0    0  0.51357081983E+02  0.12502952061E+02 -0.76831384351E+03  0.77012988242E+03  0.00000000000E+00 0.  1.
          5    1    4    4  501    0 -0.10192052733E+03 -0.53329817873E+02 -0.77250781823E+02  0.13862546323E+03  0.41800000000E+01 0.  1.
         -5    1    4    4    0  501 -0.90239843987E+02 -0.15598910037E+02 -0.25443528148E+03  0.27044655720E+03  0.41800000000E+01 0.  1.
</event>
<event>
11    1  0.1078607E-008  0.2684330E+03  0.7561462E-02  0.1014513E+00
         22   -1    0    0    0    0  0.00000000000E+00  0.00000000000E+00  0.12762362942E+04  0.12762362942E+04  0.00000000000E+00 0. -1.
         22   -1    0    0    0    0 -0.00000000000E+00 -0.00000000000E+00 -0.23561950900E+03  0.23561950900E+03  0.00000000000E+00 0. -1.
        -24    2    1    2    0    0 -0.20389856467E+03 -0.10959745614E+03 -0.44901892116E+02  0.24916696336E+03  0.80509432059E+02 0.  0.
         25    2    1    2    0    0  0.22580789586E+03  0.10962569859E+03  0.14009950184E+03  0.31350046981E+03  0.12509066525E+03 0.  0.
         24    2    1    2    0    0 -0.21909331191E+02 -0.28242457075E-01  0.94541917549E+03  0.94918837004E+03  0.81615714453E+02 0.  0.
        -11    1    5    5    0    0  0.23200523953E+02  0.23651887018E+02  0.32699419206E+03  0.32866834000E+03  0.00000000000E+00 0.  1.
         12    1    5    5    0    0 -0.45109855144E+02 -0.23680129475E+02  0.61842498343E+03  0.62052003005E+03  0.00000000000E+00 0. -1.
         13    1    3    3    0    0 -0.11531684739E+03 -0.93863381260E+02 -0.55214925283E+02  0.15860957603E+03  0.00000000000E+00 0. -1.
        -14    1    3    3    0    0 -0.88581717272E+02 -0.15734074876E+02  0.10313033167E+02  0.90557387331E+02  0.00000000000E+00 0.  1.
          5    1    4    4  501    0  0.15320789991E+03  0.50663539099E+02  0.22184109730E+02  0.16293882875E+03  0.41800000000E+01 0. -1.
         -5    1    4    4    0  501  0.72599995945E+02  0.58962159494E+02  0.11791539211E+03  0.15056164106E+03  0.41800000000E+01 0. -1.
</event>
<event>
11    1  0.1135122E-008  0.1543182E+03  0.7561462E-02  0.1092546E+00
         22   -1    0    0    0    0  0.00000000000E+00  0.00000000000E+00  0.12847672091E+04  0.12847672091E+04  0.00000000000E+00 0.  1.
         22   -1    0    0    0    0 -0.00000000000E+00 -0.00000000000E+00 -0.18958536186E+03  0.18958536186E+03  0.00000000000E+00 0.  1.
        -24    2    1    2    0    0 -0.75818873918E+02 -0.44971854612E+02 -0.93527098371E+02  0.15331134976E+03  0.83582788223E+02 0.  0.
         25    2    1    2    0    0  0.11165500900E+03 -0.34856075560E+01  0.45935071719E+02  0.17388533579E+03  0.12508832358E+03 0.  0.
         24    2    1    2    0    0 -0.35836135084E+02  0.48457462168E+02  0.11427738739E+04  0.11471558854E+04  0.80013400923E+02 0.  0.
        -13    1    5    5    0    0 -0.39445540326E+02  0.35908042017E+02  0.11169052349E+04  0.11181782693E+04  0.00000000000E+00 0.  1.
         14    1    5    5    0    0  0.36094052419E+01  0.12549420151E+02  0.25868638942E+02  0.28977616069E+02  0.00000000000E+00 0. -1.
         13    1    3    3    0    0  0.42267436037E+01  0.15276861759E+02  0.57562007120E+00  0.15861248537E+02  0.00000000000E+00 0. -1.
        -14    1    3    3    0    0 -0.80045617522E+02 -0.60248716372E+02 -0.94102718442E+02  0.13745010123E+03  0.00000000000E+00 0.  1.
          5    1    4    4  501    0  0.38092634563E+01  0.46971033952E+02  0.22814198258E+02  0.52523790427E+02  0.41800000000E+01 0. -1.
         -5    1    4    4    0  501  0.10784574555E+03 -0.50456641508E+02  0.23120873461E+02  0.12136154537E+03  0.41800000000E+01 0. -1.
</event>
<event>
11    1  0.1078607E-008  0.1383399E+03  0.7561462E-02  0.1109426E+00
         22   -1    0    0    0    0  0.00000000000E+00  0.00000000000E+00  0.99786361757E+03  0.99786361757E+03  0.00000000000E+00 0. -1.
         22   -1    0    0    0    0 -0.00000000000E+00 -0.00000000000E+00 -0.15069146945E+04  0.15069146945E+04  0.00000000000E+00 0.  1.
        -24    2    1    2    0    0  0.43239124134E+02 -0.43826786883E+02 -0.14594347022E+04  0.14628772943E+04  0.79182820733E+02 0.  0.
         25    2    1    2    0    0 -0.50767420812E+02 -0.17205862727E+02  0.65500712367E+02  0.15103325860E+03  0.12508928473E+03 0.  0.
         24    2    1    2    0    0  0.75282966774E+01  0.61032649609E+02  0.88488291292E+03  0.89086775914E+03  0.82740166307E+02 0.  0.
        -13    1    5    5    0    0 -0.63097345811E+01  0.41921079257E+02  0.15759949250E+03  0.16320168404E+03  0.00000000000E+00 0.  1.
         14    1    5    5    0    0  0.13838031258E+02  0.19111570353E+02  0.72728342042E+03  0.72766607510E+03  0.00000000000E+00 0. -1.
         11    1    3    3    0    0 -0.10232405920E+02  0.85756714364E+01 -0.61185367657E+02  0.62625022849E+02  0.00000000000E+00 0. -1.
        -12    1    3    3    0    0  0.53471530055E+02 -0.52402458319E+02 -0.13982493346E+04  0.14002522715E+04  0.00000000000E+00 0.  1.
          5    1    4    4  501    0  0.23461249377E+02 -0.48349981848E+02  0.37653331975E+02  0.65752541972E+02  0.41800000000E+01 0. -1.
         -5    1    4    4    0  501 -0.74228670188E+02  0.31144119122E+02  0.27847380393E+02  0.85280716628E+02  0.41800000000E+01 0. -1.
</event>
<event>
11    1  0.1078607E-008  0.1482771E+03  0.7561462E-02  0.1098652E+00
         22   -1    0    0    0    0  0.00000000000E+00  0.00000000000E+00  0.32887274718E+03  0.32887274718E+03  0.00000000000E+00 0.  1.
         22   -1    0    0    0    0 -0.00000000000E+00 -0.00000000000E+00 -0.83069104693E+03  0.83069104693E+03  0.00000000000E+00 0. -1.
         24    2    1    2    0    0  0.67427079456E+02 -0.49393693460E+02 -0.62241157962E+03  0.63272689783E+03  0.77207543661E+02 0.  0.
         25    2    1    2    0    0 -0.52292052339E+02  0.31437678447E+02 -0.17292228938E+03  0.22197091404E+03  0.12508469990E+03 0.  0.
        -24    2    1    2    0    0 -0.15135027117E+02  0.17956015013E+02  0.29351556926E+03  0.30486598224E+03  0.78996140488E+02 0.  0.
        -13    1    3    3    0    0  0.32349342112E+02 -0.37688998037E+02 -0.13385604375E+03  0.14277388051E+03  0.00000000000E+00 0.  1.
         14    1    3    3    0    0  0.35077737344E+02 -0.11704695423E+02 -0.48855553587E+03  0.48995301732E+03  0.00000000000E+00 0. -1.
         11    1    5    5    0    0 -0.43230215535E+02 -0.43391331191E+01  0.11851850570E+03  0.12623119981E+03  0.00000000000E+00 0. -1.
        -12    1    5    5    0    0  0.28095188418E+02  0.22295148132E+02  0.17499706356E+03  0.17863478244E+03  0.00000000000E+00 0.  1.
          5    1    4    4  501    0  0.22951297248E+02 -0.12604484880E+02  0.18851772792E+01  0.26583103239E+02  0.41800000000E+01 0.  1.
         -5    1    4    4    0  501 -0.75243349587E+02  0.44042163327E+02 -0.17480746666E+03  0.19538781080E+03  0.41800000000E+01 0.  1.
</event>
<event>
11    1  0.1078607E-008  0.1561921E+03  0.7561462E-02  0.1090714E+00
         22   -1    0    0    0    0  0.00000000000E+00  0.00000000000E+00  0.35002290774E+03  0.35002290774E+03  0.00000000000E+00 0.  1.
         22   -1    0    0    0    0 -0.00000000000E+00 -0.00000000000E+00 -0.45620197927E+03  0.45620197927E+03  0.00000000000E+00 0.  1.
        -24    2    1    2    0    0  0.20847193165E+02  0.14622753584E+02 -0.25309706128E+03  0.26661876643E+03  0.79868728548E+02 0.  0.
         25    2    1    2    0    0 -0.11201225341E+03  0.57828870176E+00 -0.14622620445E+03  0.22265934500E+03  0.12509197303E+03 0.  0.
         24    2    1    2    0    0  0.91165060241E+02 -0.15201042285E+02  0.29314419419E+03  0.31694677558E+03  0.77327873823E+02 0.  0.
        -13    1    5    5    0    0  0.95569190764E+02  0.78050550223E+00  0.27978002142E+03  0.29565341161E+03  0.00000000000E+00 0.  1.
         14    1    5    5    0    0 -0.44041305239E+01 -0.15981547788E+02  0.13364172769E+02  0.21293363970E+02  0.00000000000E+00 0. -1.
         11    1    3    3    0    0 -0.46368530992E+01  0.14595546795E+02 -0.34807651166E+01  0.15704971147E+02  0.00000000000E+00 0. -1.
        -12    1    3    3    0    0  0.25484046265E+02  0.27206788217E-01 -0.24961629616E+03  0.25091379528E+03  0.00000000000E+00 0.  1.
          5    1    4    4  501    0 -0.13908840692E+03  0.22172833907E+01 -0.13170162096E+03  0.19160712578E+03  0.41800000000E+01 0.  1.
         -5    1    4    4    0  501  0.27076153518E+02 -0.16389946889E+01 -0.14524583485E+02  0.31052219217E+02  0.41800000000E+01 0.  1.
</event>
<event>
11    1  0.1078607E-008  0.1505142E+03  0.7561462E-02  0.1096355E+00
         22   -1    0    0    0    0  0.00000000000E+00  0.00000000000E+00  0.12183238033E+04  0.12183238033E+04  0.00000000000E+00 0.  1.
         22   -1    0    0    0    0 -0.00000000000E+00 -0.00000000000E+00 -0.40794099329E+03  0.40794099329E+03  0.00000000000E+00 0.  1.
        -24    2    1    2    0    0 -0.80363040530E+02 -0.51523782691E+01 -0.34779280566E+03  0.36613162800E+03  0.81288179112E+02 0.  0.
         25    2    1    2    0    0  0.15610513476E+03  0.45932566614E+01  0.16102122927E+03  0.25683806793E+03  0.12509214907E+03 0.  0.
         24    2    1    2    0    0 -0.75742094227E+02  0.55912160769E+00  0.99715438642E+03  0.10032951007E+04  0.80913603401E+02 0.  0.
        -11    1    5    5    0    0 -0.32637653431E+02  0.66372388171E+01  0.82667984134E+03  0.82735048766E+03  0.00000000000E+00 0.  1.
         12    1    5    5    0    0 -0.43104440797E+02 -0.60781172094E+01  0.17047454508E+03  0.17594461300E+03  0.00000000000E+00 0. -1.
         13    1    3    3    0    0 -0.52519954909E+01  0.17612598079E+02 -0.13645651788E+02  0.22890847089E+02  0.00000000000E+00 0. -1.
        -14    1    3    3    0    0 -0.75111045040E+02 -0.22764976348E+02 -0.33414715388E+03  0.34324078091E+03  0.00000000000E+00 0.  1.
          5    1    4    4  501    0  0.91150213630E+02  0.51412451681E+02  0.40943242848E+02  0.11245187045E+03  0.41800000000E+01 0. -1.
         -5    1    4    4    0  501  0.64954921128E+02 -0.46819195019E+02  0.12007798642E+03  0.14438619748E+03  0.41800000000E+01 0. -1.
</event>
<event>
11    1  0.1078607E-008  0.1553640E+03  0.7561462E-02  0.1091520E+00
         22   -1    0    0    0    0  0.00000000000E+00  0.00000000000E+00  0.66515342561E+03  0.66515342561E+03  0.00000000000E+00 0. -1.
         22   -1    0    0    0    0 -0.00000000000E+00 -0.00000000000E+00 -0.49050152263E+03  0.49050152263E+03  0.00000000000E+00 0.  1.
        -24    2    1    2    0    0  0.22449444745E+02  0.36816519059E+02 -0.36543273199E+03  0.37655522096E+03  0.79958233992E+02 0.  0.
         25    2    1    2    0    0 -0.10845341429E+03 -0.50387264060E+01 -0.52793611244E+02  0.17384591509E+03  0.12509078691E+03 0.  0.
         24    2    1    2    0    0  0.86003969549E+02 -0.31777792653E+02  0.59287824621E+03  0.60525381219E+03  0.80131463592E+02 0.  0.
        -13    1    5    5    0    0 -0.14886857463E+02 -0.37153361058E+01  0.47634464500E+02  0.50044624643E+02  0.00000000000E+00 0.  1.
         14    1    5    5    0    0  0.10089082701E+03 -0.28062456548E+02  0.54524378171E+03  0.55520918755E+03  0.00000000000E+00 0. -1.
         11    1    3    3    0    0 -0.25926128069E+02  0.19204617058E+02 -0.21839511593E+03  0.22076550476E+03  0.00000000000E+00 0. -1.
        -12    1    3    3    0    0  0.48375572814E+02  0.17611902001E+02 -0.14703761606E+03  0.15578971620E+03  0.00000000000E+00 0.  1.
          5    1    4    4  501    0 -0.11766045370E+03 -0.43730981566E+02 -0.38202914853E+02  0.13127572593E+03  0.41800000000E+01 0.  1.
         -5    1    4    4    0  501  0.92070394087E+01  0.38692255160E+02 -0.14590696390E+02  0.42570189161E+02  0.41800000000E+01 0.  1.
</event>
<event>
11    1  0.1078607E-008  0.2019948E+03  0.7561462E-02  0.1053122E+00
         22   -1    0    0    0    0  0.00000000000E+00  0.00000000000E+00  0.17925682691E+03  0.17925682691E+03  0.00000000000E+00 0.  1.
         22   -1    0    0    0    0 -0.00000000000E+00 -0.00000000000E+00 -0.46990811967E+03  0.46990811967E+03  0.00000000000E+00 0.  1.
         24    2    1    2    0    0  0.12739579674E+03  0.76774354193E+02 -0.17849492332E+03  0.24672395740E+03  0.82995680697E+02 0.  0.
         25    2    1    2    0    0 -0.13128458476E+03 -0.11429072055E+03 -0.18841201933E+03  0.28538392519E+03  0.12508750829E+03 0.  0.
        -24    2    1    2    0    0  0.38887880198E+01  0.37516366361E+02  0.76255649888E+02  0.11705706399E+03  0.80404176955E+02 0.  0.
        -13    1    3    3    0    0  0.69452057786E+02  0.86686074273E+02 -0.10787693815E+03  0.15484023246E+03  0.00000000000E+00 0.  1.
         14    1    3    3    0    0  0.57943738957E+02 -0.99117200803E+01 -0.70617985174E+02  0.91883724943E+02  0.00000000000E+00 0. -1.
         11    1    5    5    0    0  0.33271913055E+01 -0.20723785490E+02 -0.14274839133E+00  0.20989660886E+02  0.00000000000E+00 0. -1.
        -12    1    5    5    0    0  0.56159671429E+00  0.58240151851E+02  0.76398398279E+02  0.96067403099E+02  0.00000000000E+00 0.  1.
          5    1    4    4  501    0 -0.14301359454E+03 -0.70478646099E+02 -0.10687934995E+03  0.19199165510E+03  0.41800000000E+01 0.  1.
         -5    1    4    4    0  501  0.11729009781E+02 -0.43812074455E+02 -0.81532669376E+02  0.93392270098E+02  0.41800000000E+01 0.  1.
</event>
<event>
11    1  0.1078607E-008  0.1355786E+03  0.7561462E-02  0.1112599E+00
         22   -1    0    0    0    0  0.00000000000E+00  0.00000000000E+00  0.10845315533E+03  0.10845315533E+03  0.00000000000E+00 0.  1.
         22   -1    0    0    0    0 -0.00000000000E+00 -0.00000000000E+00 -0.15611694432E+04  0.15611694432E+04  0.00000000000E+00 0.  1.
        -24    2    1    2    0    0 -0.22851443574E+02  0.48420124386E+02 -0.14263044902E+04  0.14297293983E+04  0.83156217875E+02 0.  0.
         25    2    1    2    0    0  0.28996981297E+02 -0.12885754579E+02 -0.69488388060E+02  0.14656895874E+03  0.12508779315E+03 0.  0.
         24    2    1    2    0    0 -0.61455377225E+01 -0.35534369807E+02  0.43076590458E+02  0.93324241472E+02  0.74520885189E+02 0.  0.
        -13    1    5    5    0    0 -0.94741201703E+01  0.14356715995E+02  0.39631905902E+02  0.43203729151E+02  0.00000000000E+00 0.  1.
         14    1    5    5    0    0  0.33285824478E+01 -0.49891085802E+02  0.34446845560E+01  0.50120512321E+02  0.00000000000E+00 0. -1.
         11    1    3    3    0    0 -0.18084806528E+02 -0.20822981351E+02 -0.29052557474E+03  0.29183174323E+03  0.00000000000E+00 0. -1.
        -12    1    3    3    0    0 -0.47666370462E+01  0.69243105737E+02 -0.11357789155E+04  0.11378976551E+04  0.00000000000E+00 0.  1.
          5    1    4    4  501    0  0.14633689935E+02 -0.13243253731E+02 -0.10558431441E+03  0.10749441148E+03  0.41800000000E+01 0.  1.
         -5    1    4    4    0  501  0.14363291362E+02  0.35749915147E+00  0.36095926348E+02  0.39074547256E+02  0.41800000000E+01 0.  1.
</event>
<event>
11    1  0.1078607E-008  0.1530869E+03  0.7561462E-02  0.1093766E+00
         22   -1    0    0    0    0  0.00000000000E+00  0.00000000000E+00  0.14921555237E+03  0.14921555237E+03  0.00000000000E+00 0.  1.
         22   -1    0    0    0    0 -0.00000000000E+00 -0.00000000000E+00 -0.76589631937E+03  0.76589631937E+03  0.00000000000E+00 0.  1.
        -24    2    1    2    0    0  0.32732885783E+01 -0.60461007542E+01 -0.58028031609E+03  0.58632426550E+03  0.83687689202E+02 0.  0.
         25    2    1    2    0    0  0.73049124277E+02 -0.40859061436E+02 -0.10126301385E+03  0.18140804601E+03  0.12509613793E+03 0.  0.
         24    2    1    2    0    0 -0.76322412855E+02  0.46905162191E+02  0.64862562936E+02  0.14737956024E+03  0.97408304371E+02 0.  0.
        -11    1    5    5    0    0 -0.61886093356E+02  0.56646923412E+02  0.85896974690E+02  0.12007103208E+03  0.00000000000E+00 0.  1.
         12    1    5    5    0    0 -0.14436319499E+02 -0.97417612218E+01 -0.21034411754E+02  0.27308528159E+02  0.00000000000E+00 0. -1.
         13    1    3    3    0    0  0.86612758875E+01  0.54071351582E+01 -0.58761471997E+01  0.11780658578E+02  0.00000000000E+00 0. -1.
        -14    1    3    3    0    0 -0.53879873092E+01 -0.11453235912E+02 -0.57440416889E+03  0.57454360692E+03  0.00000000000E+00 0.  1.
          5    1    4    4  501    0  0.67902790617E+02 -0.51652217561E+02 -0.12680873744E+03  0.15289430612E+03  0.41800000000E+01 0. -1.
         -5    1    4    4    0  501  0.51463336596E+01  0.10793156125E+02  0.25545723588E+02  0.28513739897E+02  0.41800000000E+01 0. -1.
</event>
<event>
11    1  0.1996636E-008  0.1673515E+03  0.7561462E-02  0.1080360E+00
         22   -1    0    0    0    0  0.00000000000E+00  0.00000000000E+00  0.38084360907E+03  0.38084360907E+03  0.00000000000E+00 0. -1.
         22   -1    0    0    0    0 -0.00000000000E+00 -0.00000000000E+00 -0.16593880683E+04  0.16593880683E+04  0.00000000000E+00 0.  1.
         24    2    1    2    0    0 -0.50605736943E+02  0.41267667833E+02 -0.12449967331E+04  0.12493273786E+04  0.80858347874E+02 0.  0.
         25    2    1    2    0    0  0.98551434097E+02  0.59564100422E+02 -0.38080678544E+03  0.41703992974E+03  0.12509287725E+03 0.  0.
        -24    2    1    2    0    0 -0.47945697154E+02 -0.10083176825E+03  0.34725905925E+03  0.37386436911E+03  0.81974855235E+02 0.  0.
        -11    1    3    3    0    0 -0.40458096268E+02  0.28454110878E+02 -0.12063848100E+04  0.12073983617E+04  0.00000000000E+00 0.  1.
         12    1    3    3    0    0 -0.10147640675E+02  0.12813556954E+02 -0.38611923103E+02  0.41929016907E+02  0.00000000000E+00 0. -1.
         13    1    5    5    0    0 -0.38306729888E+02 -0.79753384151E+02  0.33717143135E+03  0.34858654873E+03  0.00000000000E+00 0. -1.
        -14    1    5    5    0    0 -0.96389672656E+01 -0.21078384103E+02  0.10087627905E+02  0.25277820379E+02  0.00000000000E+00 0.  1.
          5    1    4    4  501    0  0.34905186058E+02  0.49359214507E+02 -0.32816062027E+03  0.33370880895E+03  0.41800000000E+01 0.  1.
         -5    1    4    4    0  501  0.63646248039E+02  0.10204885915E+02 -0.52646165166E+02  0.83331120793E+02  0.41800000000E+01 0.  1.
</event>
<event>
11    1  0.1078607E-008  0.1322954E+03  0.7561462E-02  0.1116480E+00
         22   -1    0    0    0    0  0.00000000000E+00  0.00000000000E+00  0.80489537736E+02  0.80489537736E+02  0.00000000000E+00 0.  1.
         22   -1    0    0    0    0 -0.00000000000E+00 -0.00000000000E+00 -0.76036246635E+03  0.76036246635E+03  0.00000000000E+00 0. -1.
         24    2    1    2    0    0 -0.11609218190E+02  0.27216526725E+02 -0.43564824235E+03  0.44382230437E+03  0.79456488210E+02 0.  0.
         25    2    1    2    0    0  0.89427353984E+00 -0.66235677861E+02 -0.26828319124E+03  0.30333918452E+03  0.12510325901E+03 0.  0.
        -24    2    1    2    0    0  0.10714944651E+02  0.39019151136E+02  0.24058504974E+02  0.93690515201E+02  0.81004918264E+02 0.  0.
        -11    1    3    3    0    0 -0.38296992518E+02  0.14091871470E+02 -0.11944259925E+03  0.12622113529E+03  0.00000000000E+00 0.  1.
         12    1    3    3    0    0  0.26687774328E+02  0.13124655255E+02 -0.31620564309E+03  0.31760116908E+03  0.00000000000E+00 0. -1.
         11    1    5    5    0    0  0.16433766842E+02  0.53320515303E+02 -0.96554344218E+01  0.56624848421E+02  0.00000000000E+00 0. -1.
        -12    1    5    5    0    0 -0.57188221912E+01 -0.14301364167E+02  0.33713939396E+02  0.37065666780E+02  0.00000000000E+00 0.  1.
          5    1    4    4  501    0  0.43411731727E+02 -0.63228414633E+02 -0.82657420109E+02  0.11283675096E+03  0.41800000000E+01 0.  1.
         -5    1    4    4    0  501 -0.42517458187E+02 -0.30072632282E+01 -0.18562577113E+03  0.19050243356E+03  0.41800000000E+01 0.  1.
</event>
<event>
11    1  0.1078607E-008  0.1332458E+03  0.7561462E-02  0.1115344E+00
         22   -1    0    0    0    0  0.00000000000E+00  0.00000000000E+00  0.96085287549E+03  0.96085287549E+03  0.00000000000E+00 0.  1.
         22   -1    0    0    0    0 -0.00000000000E+00 -0.00000000000E+00 -0.28833116644E+03  0.28833116644E+03  0.00000000000E+00 0. -1.
        -24    2    1    2    0    0 -0.32502948102E+01  0.42372713917E+02 -0.19761827730E+03  0.21746176783E+03  0.80191181814E+02 0.  0.
         25    2    1    2    0    0 -0.42247713173E+02 -0.34185199324E+02 -0.18766814889E+02  0.13766885052E+03  0.12508805675E+03 0.  0.
         24    2    1    2    0    0  0.45498007983E+02 -0.81875145929E+01  0.88890680124E+03  0.89405342359E+03  0.83899456582E+02 0.  0.
        -11    1    5    5    0    0  0.43639486552E+02 -0.11741989939E+02  0.88889433623E+03  0.89004236983E+03  0.00000000000E+00 0.  1.
         12    1    5    5    0    0  0.18585214312E+01  0.35544753457E+01  0.12465013482E-01  0.40110537605E+01  0.00000000000E+00 0. -1.
         13    1    3    3    0    0  0.39415369359E+01  0.59271827367E+02 -0.87101698747E+02  0.10542955543E+03  0.00000000000E+00 0. -1.
        -14    1    3    3    0    0 -0.71918317461E+01 -0.16899113451E+02 -0.11051657856E+03  0.11203221240E+03  0.00000000000E+00 0.  1.
          5    1    4    4  501    0 -0.18213647979E+02 -0.39408015820E+02 -0.68973201120E+02  0.81605781390E+02  0.41800000000E+01 0.  1.
         -5    1    4    4    0  501 -0.24034065194E+02  0.52228164964E+01  0.50206386231E+02  0.56063069130E+02  0.41800000000E+01 0.  1.
</event>
<event>
11    1  0.1078607E-008  0.1389314E+03  0.7561462E-02  0.1108758E+00
         22   -1    0    0    0    0  0.00000000000E+00  0.00000000000E+00  0.21118254720E+04  0.21118254720E+04  0.00000000000E+00 0. -1.
         22   -1    0    0    0    0 -0.00000000000E+00 -0.00000000000E+00 -0.25554211406E+03  0.25554211406E+03  0.00000000000E+00 0. -1.
        -24    2    1    2    0    0  0.46500435727E+01  0.60868946884E+02 -0.23089002876E+03  0.25217189599E+03  0.80955593672E+02 0.  0.
         25    2    1    2    0    0  0.14681599888E+02 -0.42439807889E+02  0.32605409523E+03  0.35210269931E+03  0.12509336984E+03 0.  0.
         24    2    1    2    0    0 -0.19331643461E+02 -0.18429138996E+02  0.17611192915E+04  0.17630929908E+04  0.79008795122E+02 0.  0.
        -13    1    5    5    0    0 -0.79786956392E+01  0.18554903330E+02  0.13398090394E+03  0.13549474766E+03  0.00000000000E+00 0.  1.
         14    1    5    5    0    0 -0.11352947822E+02 -0.36984042325E+02  0.16271383875E+04  0.16275982431E+04  0.00000000000E+00 0. -1.
         11    1    3    3    0    0  0.11173894760E+02  0.38137390838E+01 -0.16224185661E+03  0.16267089649E+03  0.00000000000E+00 0. -1.
        -12    1    3    3    0    0 -0.65238511871E+01  0.57055207800E+02 -0.68648172150E+02  0.89500999497E+02  0.00000000000E+00 0.  1.
          5    1    4    4  501    0  0.54627850639E+02 -0.52656044813E+02  0.28008431178E+03  0.29020950230E+03  0.41800000000E+01 0. -1.
         -5    1    4    4    0  501 -0.39946250750E+02  0.10216236924E+02  0.45969783451E+02  0.61893197013E+02  0.41800000000E+01 0. -1.
</event>
<event>
11    1  0.1078607E-008  0.1823227E+03  0.7561462E-02  0.1067779E+00
         22   -1    0    0    0    0  0.00000000000E+00  0.00000000000E+00  0.26087003218E+03  0.26087003218E+03  0.00000000000E+00 0.  1.
         22   -1    0    0    0    0 -0.00000000000E+00 -0.00000000000E+00 -0.63120372850E+03  0.63120372850E+03  0.00000000000E+00 0. -1.
        -24    2    1    2    0    0  0.13729529978E+01 -0.11794563957E+02 -0.35610392003E+03  0.36523753363E+03  0.80296060762E+02 0.  0.
         25    2    1    2    0    0 -0.12060145116E+03 -0.47221700654E+02 -0.21046866687E+03  0.27698194563E+03  0.12508932582E+03 0.  0.
         24    2    1    2    0    0  0.11922849816E+03  0.59016264611E+02  0.19623889059E+03  0.24985428141E+03  0.78861305450E+02 0.  0.
        -13    1    5    5    0    0  0.85922418721E+02 -0.21530439568E+00  0.97043945163E+02  0.12961572315E+03  0.00000000000E+00 0.  1.
         14    1    5    5    0    0  0.33306079441E+02  0.59231569006E+02  0.99194945426E+02  0.12023855826E+03  0.00000000000E+00 0. -1.
         13    1    3    3    0    0  0.28063152227E+02  0.11152379952E+02 -0.27718375172E+03  0.27882386610E+03  0.00000000000E+00 0. -1.
        -14    1    3    3    0    0 -0.26690199229E+02 -0.22946943909E+02 -0.78920168316E+02  0.86413667534E+02  0.00000000000E+00 0.  1.
          5    1    4    4  501    0 -0.14115984100E+03 -0.18723885313E+02 -0.18445630291E+03  0.23306283417E+03  0.41800000000E+01 0. -1.
         -5    1    4    4    0  501  0.20558389835E+02 -0.28497815340E+02 -0.26012363967E+02  0.43919111454E+02  0.41800000000E+01 0. -1.
</event>
<event>
11    1  0.1078607E-008  0.1871053E+03  0.7561462E-02  0.1064036E+00
         22   -1    0    0    0    0  0.00000000000E+00  0.00000000000E+00  0.41214012824E+03  0.41214012824E+03  0.00000000000E+00 0. -1.
         22   -1    0    0    0    0 -0.00000000000E+00 -0.00000000000E+00 -0.10838263698E+04  0.10838263698E+04  0.00000000000E+00 0.  1.
         24    2    1    2    0    0 -0.89035616644E+02  0.10327970639E+03 -0.95571980674E+03  0.96856981815E+03  0.78314142004E+02 0.  0.
         25    2    1    2    0    0  0.14737256913E+03 -0.21793615428E+03  0.20711735815E+03  0.35743578137E+03  0.12509155161E+03 0.  0.
        -24    2    1    2    0    0 -0.58336952481E+02  0.11465644789E+03  0.76916207010E+02  0.16996089857E+03  0.80133033597E+02 0.  0.
        -11    1    3    3    0    0 -0.53392032023E+02  0.10818906438E+03 -0.69786992670E+03  0.70822172893E+03  0.00000000000E+00 0.  1.
         12    1    3    3    0    0 -0.35643584622E+02 -0.49093579886E+01 -0.25784988004E+03  0.26034808922E+03  0.00000000000E+00 0. -1.
         13    1    5    5    0    0 -0.57856993043E+02  0.66386014948E+02  0.83362708337E+02  0.12125953887E+03  0.00000000000E+00 0. -1.
        -14    1    5    5    0    0 -0.47995943767E+00  0.48270432941E+02 -0.64465013268E+01  0.48701359701E+02  0.00000000000E+00 0.  1.
          5    1    4    4  501    0  0.11609069473E+03 -0.64765970175E+02  0.11573851336E+03  0.17630812849E+03  0.41800000000E+01 0. -1.
         -5    1    4    4    0  501  0.31281874395E+02 -0.15317018410E+03  0.91378844783E+02  0.18112765288E+03  0.41800000000E+01 0. -1.
</event>
<event>
11    1  0.1078607E-008  0.1929816E+03  0.7561462E-02  0.1059601E+00
         22   -1    0    0    0    0  0.00000000000E+00  0.00000000000E+00  0.59173881297E+03  0.59173881297E+03  0.00000000000E+00 0. -1.
         22   -1    0    0    0    0 -0.00000000000E+00 -0.00000000000E+00 -0.32419976702E+03  0.32419976702E+03  0.00000000000E+00 0. -1.
        -24    2    1    2    0    0 -0.12720706410E+03  0.11431538165E+02 -0.16461668785E+03  0.22347324874E+03  0.80804218713E+02 0.  0.
         25    2    1    2    0    0  0.18937156135E+03  0.11483796085E+03  0.26673637779E+02  0.25575042980E+03  0.12508978332E+03 0.  0.
         24    2    1    2    0    0 -0.62164497252E+02 -0.12626949901E+03  0.40548209602E+03  0.43671490145E+03  0.80596301759E+02 0.  0.
        -13    1    5    5    0    0 -0.75590481625E+01  0.15404308441E+01 -0.37088546023E+00  0.77233213279E+01  0.00000000000E+00 0.  1.
         14    1    5    5    0    0 -0.54605449090E+02 -0.12780992986E+03  0.40585298148E+03  0.42899158012E+03  0.00000000000E+00 0. -1.
         11    1    3    3    0    0 -0.11542502376E+03  0.31086560993E+02 -0.10320698568E+03  0.15792717397E+03  0.00000000000E+00 0. -1.
        -12    1    3    3    0    0 -0.11782040337E+02 -0.19655022828E+02 -0.61409702176E+02  0.65546074774E+02  0.00000000000E+00 0.  1.
          5    1    4    4  501    0  0.19599395172E+02  0.18187375595E+02  0.52093139774E+02  0.58703360497E+02  0.41800000000E+01 0.  1.
         -5    1    4    4    0  501  0.16977216618E+03  0.96650585251E+02 -0.25419501995E+02  0.19704706930E+03  0.41800000000E+01 0.  1.
</event>
<event>
11    1  0.1078607E-008  0.1371271E+03  0.7561462E-02  0.1110810E+00
         22   -1    0    0    0    0  0.00000000000E+00  0.00000000000E+00  0.15333822455E+03  0.15333822455E+03  0.00000000000E+00 0.  1.
         22   -1    0    0    0    0 -0.00000000000E+00 -0.00000000000E+00 -0.64667543903E+03  0.64667543903E+03  0.00000000000E+00 0.  1.
        -24    2    1    2    0    0 -0.22648528584E+01 -0.32894286597E+02 -0.46377776763E+03  0.47168726174E+03  0.79447413372E+02 0.  0.
         25    2    1    2    0    0  0.39650409691E+02  0.71231206859E+02 -0.12644548161E+03  0.19568126963E+03  0.12512657450E+03 0.  0.
         24    2    1    2    0    0 -0.37385556832E+02 -0.38336920262E+02  0.96886034749E+02  0.13264513221E+03  0.73078232424E+02 0.  0.
        -13    1    5    5    0    0 -0.57042482948E+02 -0.35317733578E+02  0.88514420850E+02  0.11106750139E+03  0.00000000000E+00 0.  1.
         14    1    5    5    0    0  0.19656926116E+02 -0.30191866841E+01  0.83716138991E+01  0.21577630821E+02  0.00000000000E+00 0. -1.
         11    1    3    3    0    0  0.25982398252E+02 -0.71559866789E+01 -0.56261085943E+02  0.62382713597E+02  0.00000000000E+00 0. -1.
        -12    1    3    3    0    0 -0.28247251110E+02 -0.25738299918E+02 -0.40751668168E+03  0.40930454814E+03  0.00000000000E+00 0.  1.
          5    1    4    4  501    0 -0.39429855510E+02  0.55880191528E+02 -0.53607513974E+02  0.86997398038E+02  0.41800000000E+01 0.  1.
         -5    1    4    4    0  501  0.79080265201E+02  0.15351015331E+02 -0.72837967631E+02  0.10868387159E+03  0.41800000000E+01 0.  1.
</event>
<event>
11    1  0.1078607E-008  0.1406339E+03  0.7561462E-02  0.1106853E+00
         22   -1    0    0    0    0  0.00000000000E+00  0.00000000000E+00  0.91235101171E+03  0.91235101171E+03  0.00000000000E+00 0. -1.
         22   -1    0    0    0    0 -0.00000000000E+00 -0.00000000000E+00 -0.81278742360E+02  0.81278742360E+02  0.00000000000E+00 0. -1.
         24    2    1    2    0    0  0.43617965995E+02  0.39159391190E+02  0.39663478628E+00  0.99187116794E+02  0.80012136223E+02 0.  0.
         25    2    1    2    0    0 -0.66609392117E+02 -0.55640899196E+02  0.16913408210E+03  0.22756821106E+03  0.12509289419E+03 0.  0.
        -24    2    1    2    0    0  0.22991426121E+02  0.16481508006E+02  0.66154155246E+03  0.66687442621E+03  0.79271867144E+02 0.  0.
        -11    1    3    3    0    0  0.43715812703E+02  0.59669460410E+02  0.13015175288E+02  0.75106002248E+02  0.00000000000E+00 0.  1.
         12    1    3    3    0    0 -0.97846707487E-01 -0.20510069220E+02 -0.12618540502E+02  0.24081114546E+02  0.00000000000E+00 0. -1.
         13    1    5    5    0    0  0.53644986996E+01  0.47090409964E+02  0.43842066889E+03  0.44097501909E+03  0.00000000000E+00 0. -1.
        -14    1    5    5    0    0  0.17626927421E+02 -0.30608901957E+02  0.22312088357E+03  0.22589940712E+03  0.00000000000E+00 0.  1.
          5    1    4    4  501    0 -0.89607197279E+02  0.22728394405E+01  0.96403980287E+02  0.13170351331E+03  0.41800000000E+01 0. -1.
         -5    1    4    4    0  501  0.22997805163E+02 -0.57913738637E+02  0.72730101815E+02  0.95864697753E+02  0.41800000000E+01 0. -1.
</event>
<event>
11    1  0.1078607E-008  0.1749262E+03  0.7561462E-02  0.1073823E+00
         22   -1    0    0    0    0  0.00000000000E+00  0.00000000000E+00  0.62711607416E+03  0.62711607416E+03  0.00000000000E+00 0.  1.
         22   -1    0    0    0    0 -0.00000000000E+00 -0.00000000000E+00 -0.53553842848E+03  0.53553842848E+03  0.00000000000E+00 0. -1.
        -24    2    1    2    0    0 -0.94608566968E+02  0.80216434262E+02 -0.48407178982E+03  0.50576366466E+03  0.78012367730E+02 0.  0.
         25    2    1    2    0    0  0.65244187867E+02 -0.69061040974E+02  0.13348327547E+03  0.20614358882E+03  0.12510460802E+03 0.  0.
         24    2    1    2    0    0  0.29364379101E+02 -0.11155393288E+02  0.44216616003E+03  0.45074724917E+03  0.81703488307E+02 0.  0.
        -13    1    5    5    0    0  0.69323555375E+01 -0.34168796344E+02  0.37131392365E+03  0.37294717333E+03  0.00000000000E+00 0.  1.
         14    1    5    5    0    0  0.22432023563E+02  0.23013403057E+02  0.70852236381E+02  0.77800075846E+02  0.00000000000E+00 0. -1.
         13    1    3    3    0    0 -0.95967903792E+02  0.92725636175E+02 -0.42916370559E+03  0.44943227338E+03  0.00000000000E+00 0. -1.
        -14    1    3    3    0    0  0.13593368243E+01 -0.12509201913E+02 -0.54908084238E+02  0.56331391283E+02  0.00000000000E+00 0.  1.
          5    1    4    4  501    0  0.84477681420E+02 -0.89093713237E+02  0.12821657590E+03  0.17757007387E+03  0.41800000000E+01 0. -1.
         -5    1    4    4    0  501 -0.19233493553E+02  0.20032672263E+02  0.52666995721E+01  0.28573514950E+02  0.41800000000E+01 0. -1.
</event>
<event>
11    1  0.1078607E-008  0.1723341E+03  0.7561462E-02  0.1076018E+00
         22   -1    0    0    0    0  0.00000000000E+00  0.00000000000E+00  0.37795479036E+03  0.37795479036E+03  0.00000000000E+00 0. -1.
         22   -1    0    0    0    0 -0.00000000000E+00 -0.00000000000E+00 -0.20858175075E+04  0.20858175075E+04  0.00000000000E+00 0. -1.
        -24    2    1    2    0    0 -0.65829790286E+02 -0.41006708304E+02 -0.20049928744E+04  0.20081470615E+04  0.81505108091E+02 0.  0.
         25    2    1    2    0    0  0.21311899720E+01  0.13879147623E+03  0.10231247390E+03  0.21302342510E+03  0.12507406399E+03 0.  0.
         24    2    1    2    0    0  0.63698600314E+02 -0.97784767926E+02  0.19481768342E+03  0.24260181124E+03  0.85336607177E+02 0.  0.
        -11    1    5    5    0    0  0.58312465835E+02 -0.81961430706E+02  0.85507439708E+02  0.13202099091E+03  0.00000000000E+00 0.  1.
         12    1    5    5    0    0  0.53861344793E+01 -0.15823337220E+02  0.10931024371E+03  0.11058082033E+03  0.00000000000E+00 0. -1.
         13    1    3    3    0    0 -0.62158720991E+02 -0.63216663639E+02 -0.14598575800E+04  0.14625471640E+04  0.00000000000E+00 0. -1.
        -14    1    3    3    0    0 -0.36710692950E+01  0.22209955335E+02 -0.54513529442E+03  0.54559989744E+03  0.00000000000E+00 0.  1.
          5    1    4    4  501    0 -0.50431367241E+02  0.21312198467E+02  0.13341561821E+02  0.56506656928E+02  0.41800000000E+01 0.  1.
         -5    1    4    4    0  501  0.52562557213E+02  0.11747927776E+03  0.88970912077E+02  0.15651676818E+03  0.41800000000E+01 0.  1.
</event>
<event>
11    1  0.1078607E-008  0.3199236E+03  0.7561462E-02  0.9920947E-01
         22   -1    0    0    0    0  0.00000000000E+00  0.00000000000E+00  0.68807499547E+03  0.68807499547E+03  0.00000000000E+00 0.  1.
         22   -1    0    0    0    0 -0.00000000000E+00 -0.00000000000E+00 -0.25782386657E+03  0.25782386657E+03  0.00000000000E+00 0.  1.
         24    2    1    2    0    0  0.12528661346E+03  0.25048979390E+03 -0.59224941691E+01  0.29167061406E+03  0.81208366623E+02 0.  0.
         25    2    1    2    0    0 -0.21825246155E+03 -0.26279004750E+03  0.32452879650E+03  0.48750135667E+03  0.12508351992E+03 0.  0.
        -24    2    1    2    0    0  0.92965848085E+02  0.12300253607E+02  0.11164482657E+03  0.16672689131E+03  0.80866209493E+02 0.  0.
        -11    1    3    3    0    0  0.55484857715E+02  0.17630428137E+03 -0.29362726596E+02  0.18714683748E+03  0.00000000000E+00 0.  1.
         12    1    3    3    0    0  0.69801755749E+02  0.74185512522E+02  0.23440232427E+02  0.10452377658E+03  0.00000000000E+00 0. -1.
         13    1    5    5    0    0 -0.13369925276E+02  0.11100204519E+02  0.18170660539E+02  0.25142441144E+02  0.00000000000E+00 0. -1.
        -14    1    5    5    0    0  0.10633577336E+03  0.12000490885E+01  0.93474166028E+02  0.14158445017E+03  0.00000000000E+00 0.  1.
          5    1    4    4  501    0 -0.19683377907E+03 -0.26987792566E+03  0.27417237948E+03  0.43216385482E+03  0.41800000000E+01 0. -1.
         -5    1    4    4    0  501 -0.21418682481E+02  0.70878781565E+01  0.50356417021E+02  0.55337501852E+02  0.41800000000E+01 0. -1.
</event>
<event>
11    1  0.1078607E-008  0.1580138E+03  0.7561462E-02  0.1088960E+00
         22   -1    0    0    0    0  0.00000000000E+00  0.00000000000E+00  0.30169108858E+04  0.30169108858E+04  0.00000000000E+00 0.  1.
         22   -1    0    0    0    0 -0.00000000000E+00 -0.00000000000E+00 -0.38247492397E+03  0.38247492397E+03  0.00000000000E+00 0.  1.
        -24    2    1    2    0    0  0.18390731852E+02 -0.11589213816E+02 -0.26917773657E+03  0.28181117321E+03  0.80550323308E+02 0.  0.
         25    2    1    2    0    0  0.59121991602E+02 -0.46403870061E+02 -0.55352435999E+02  0.15607431411E+03  0.12508625147E+03 0.  0.
         24    2    1    2    0    0 -0.77512723454E+02  0.57993083877E+02  0.29589661344E+04  0.29615003225E+04  0.75047686313E+02 0.  0.
        -11    1    5    5    0    0 -0.28322577993E+02  0.56960234713E+02  0.22125999669E+04  0.22135142308E+04  0.00000000000E+00 0.  1.
         12    1    5    5    0    0 -0.49190145460E+02  0.10328491639E+01  0.74636616758E+03  0.74798609164E+03  0.00000000000E+00 0. -1.
         13    1    3    3    0    0  0.17481967728E+02  0.28349461792E+02 -0.57954905298E+02  0.66843714945E+02  0.00000000000E+00 0. -1.
        -14    1    3    3    0    0  0.90876412379E+00 -0.39938675608E+02 -0.21122283128E+03  0.21496745827E+03  0.00000000000E+00 0.  1.
          5    1    4    4  501    0  0.91015674079E+02 -0.19210507877E+02 -0.91649307997E+01  0.93564763119E+02  0.41800000000E+01 0.  1.
         -5    1    4    4    0  501 -0.31893682477E+02 -0.27193362184E+02 -0.46187505199E+02  0.62509550993E+02  0.41800000000E+01 0.  1.
</event>
<event>
11    1  0.1078607E-008  0.1549796E+03  0.7561462E-02  0.1091897E+00
         22   -1    0    0    0    0  0.00000000000E+00  0.00000000000E+00  0.80145284306E+03  0.80145284306E+03  0.00000000000E+00 0.  1.
         22   -1    0    0    0    0 -0.00000000000E+00 -0.00000000000E+00 -0.49666160522E+03  0.49666160522E+03  0.00000000000E+00 0.  1.
         24    2    1    2    0    0  0.55845565110E+01 -0.89380718164E+02 -0.41887386056E+03  0.43604430536E+03  0.81604075389E+02 0.  0.
         25    2    1    2    0    0 -0.19209129434E+02  0.11522575387E+03  0.43024179231E+02  0.17647917585E+03  0.12509138460E+03 0.  0.
        -24    2    1    2    0    0  0.13624572923E+02 -0.25845035706E+02  0.68064091917E+03  0.68559096707E+03  0.76872091283E+02 0.  0.
        -11    1    3    3    0    0 -0.77661235406E+01 -0.10195863598E+03 -0.36894398480E+03  0.38285185130E+03  0.00000000000E+00 0.  1.
         12    1    3    3    0    0  0.13350680052E+02  0.12577917819E+02 -0.49929875766E+02  0.53192454056E+02  0.00000000000E+00 0. -1.
         11    1    5    5    0    0  0.39923103702E+02  0.62686203612E+01  0.30574385276E+03  0.30840306955E+03  0.00000000000E+00 0. -1.
        -12    1    5    5    0    0 -0.26298530779E+02 -0.32113656067E+02  0.37489706641E+03  0.37718789752E+03  0.00000000000E+00 0.  1.
          5    1    4    4  501    0 -0.30206305642E+02  0.13483962433E+03  0.13169761356E+02  0.13887065998E+03  0.41800000000E+01 0. -1.
         -5    1    4    4    0  501  0.10997176208E+02 -0.19613870460E+02  0.29854417875E+02  0.37608515866E+02  0.41800000000E+01 0. -1.
</event>
<event>
11    1  0.1078607E-008  0.1760569E+03  0.7561462E-02  0.1072878E+00
         22   -1    0    0    0    0  0.00000000000E+00  0.00000000000E+00  0.16337513403E+04  0.16337513403E+04  0.00000000000E+00 0.  1.
         22   -1    0    0    0    0 -0.00000000000E+00 -0.00000000000E+00 -0.38023126289E+04  0.38023126289E+04  0.00000000000E+00 0.  1.
         24    2    1    2    0    0  0.11594961827E+03  0.32875363596E+02 -0.33218549485E+04  0.33250273288E+04  0.81002070372E+02 0.  0.
         25    2    1    2    0    0 -0.18764607674E+03  0.23826915911E+01 -0.45019249569E+03  0.50352507941E+03  0.12508994797E+03 0.  0.
        -24    2    1    2    0    0  0.71696458469E+02 -0.35258055187E+02  0.16034861556E+04  0.16075115609E+04  0.80882970217E+02 0.  0.
        -13    1    3    3    0    0  0.57879067244E+02 -0.13770632333E+02 -0.21404259459E+04  0.21412526349E+04  0.00000000000E+00 0.  1.
         14    1    3    3    0    0  0.58070551028E+02  0.46645995929E+02 -0.11814290026E+04  0.11837746939E+04  0.00000000000E+00 0. -1.
         13    1    5    5    0    0 -0.10435592588E+02 -0.27056962467E+02  0.29405943432E+03  0.29548592475E+03  0.00000000000E+00 0. -1.
        -14    1    5    5    0    0  0.82132051057E+02 -0.82010927205E+01  0.13094267212E+04  0.13120256362E+04  0.00000000000E+00 0.  1.
          5    1    4    4  501    0 -0.14738024186E+03 -0.41282621575E+02 -0.38944706151E+03  0.41846347111E+03  0.41800000000E+01 0. -1.
         -5    1    4    4    0  501 -0.40265834877E+02  0.43665313166E+02 -0.60745434177E+02  0.85061608294E+02  0.41800000000E+01 0. -1.
</event>
<event>
11    1  0.1078607E-008  0.2347879E+03  0.7561462E-02  0.1032330E+00
         22   -1    0    0    0    0  0.00000000000E+00  0.00000000000E+00  0.34322047892E+04  0.34322047892E+04  0.00000000000E+00 0.  1.
         22   -1    0    0    0    0 -0.00000000000E+00 -0.00000000000E+00 -0.13749912390E+04  0.13749912390E+04  0.00000000000E+00 0.  1.
         24    2    1    2    0    0  0.10246321523E+03  0.16867012142E+03 -0.13225859087E+04  0.13396746256E+04  0.80909184915E+02 0.  0.
         25    2    1    2    0    0 -0.15654241210E+03 -0.24323893754E+03  0.54095413164E+03  0.62606258480E+03  0.12510907250E+03 0.  0.
        -24    2    1    2    0    0  0.54079196872E+02  0.74568816122E+02  0.28388453272E+04  0.28414588178E+04  0.79751826512E+02 0.  0.
        -13    1    3    3    0    0 -0.48829586332E+01  0.44648284218E+02 -0.41123857787E+03  0.41368403461E+03  0.00000000000E+00 0.  1.
         14    1    3    3    0    0  0.10734617386E+03  0.12402183720E+03 -0.91134733083E+03  0.92599059097E+03  0.00000000000E+00 0. -1.
         11    1    5    5    0    0  0.40553529252E+02  0.29671462636E+02  0.59334237607E+03  0.59546633798E+03  0.00000000000E+00 0. -1.
        -12    1    5    5    0    0  0.13525667620E+02  0.44897353486E+02  0.22455029511E+04  0.22459924798E+04  0.00000000000E+00 0.  1.
          5    1    4    4  501    0 -0.16875370828E+03 -0.18453403593E+03  0.47507189835E+03  0.53688118376E+03  0.41800000000E+01 0.  1.
         -5    1    4    4    0  501  0.12211296176E+02 -0.58704901614E+02  0.65882233294E+02  0.89181401041E+02  0.41800000000E+01 0.  1.
</event>
<event>
11    1  0.1078607E-008  0.1336132E+03  0.7561462E-02  0.1114908E+00
         22   -1    0    0    0    0  0.00000000000E+00  0.00000000000E+00  0.52875117575E+03  0.52875117575E+03  0.00000000000E+00 0. -1.
         22   -1    0    0    0    0 -0.00000000000E+00 -0.00000000000E+00 -0.16280934863E+04  0.16280934863E+04  0.00000000000E+00 0. -1.
        -24    2    1    2    0    0 -0.48265236204E+01  0.18992161286E+02 -0.14171090399E+04  0.14193473812E+04  0.77233153566E+02 0.  0.
         25    2    1    2    0    0  0.14367083926E+02  0.27354490526E+02 -0.18534976479E+03  0.22573629583E+03  0.12509060194E+03 0.  0.
         24    2    1    2    0    0 -0.95405603059E+01 -0.46346651812E+02  0.50311649415E+03  0.51176098502E+03  0.80833561582E+02 0.  0.
        -11    1    5    5    0    0 -0.20232823310E+02  0.18529054021E+02  0.12560333223E+03  0.12856473097E+03  0.00000000000E+00 0.  1.
         12    1    5    5    0    0  0.10692263004E+02 -0.64875705833E+02  0.37751316192E+03  0.38319625405E+03  0.00000000000E+00 0. -1.
         11    1    3    3    0    0 -0.34331189484E+02  0.26920530844E+02 -0.10724196271E+04  0.10733066674E+04  0.00000000000E+00 0. -1.
        -12    1    3    3    0    0  0.29504665863E+02 -0.79283695582E+01 -0.34468941279E+03  0.34604071385E+03  0.00000000000E+00 0.  1.
          5    1    4    4  501    0 -0.26445992616E+02 -0.32081841484E+02 -0.12441043417E+03  0.13124048007E+03  0.41800000000E+01 0. -1.
         -5    1    4    4    0  501  0.40813076542E+02  0.59436332010E+02 -0.60939330618E+02  0.94495815758E+02  0.41800000000E+01 0. -1.
</event>
<event>
11    1  0.1078607E-008  0.1314198E+03  0.7561462E-02  0.1117537E+00
         22   -1    0    0    0    0  0.00000000000E+00  0.00000000000E+00  0.32151511034E+03  0.32151511034E+03  0.00000000000E+00 0. -1.
         22   -1    0    0    0    0 -0.00000000000E+00 -0.00000000000E+00 -0.68996478290E+03  0.68996478290E+03  0.00000000000E+00 0.  1.
         24    2    1    2    0    0  0.24444796948E+02  0.23134666367E+01 -0.37151054909E+03  0.37933187743E+03  0.72592595515E+02 0.  0.
         25    2    1    2    0    0 -0.38415821503E+02 -0.39885639079E+02 -0.29277921013E+03  0.32316009353E+03  0.12508453388E+03 0.  0.
        -24    2    1    2    0    0  0.13971024554E+02  0.37572172442E+02  0.29584008667E+03  0.30898792227E+03  0.79657526717E+02 0.  0.
        -13    1    3    3    0    0  0.32830964401E+01  0.86965219819E+00 -0.34659033372E+03  0.34660697403E+03  0.00000000000E+00 0.  1.
         14    1    3    3    0    0  0.21161700508E+02  0.14438144386E+01 -0.24920215371E+02  0.32724903402E+02  0.00000000000E+00 0. -1.
         13    1    5    5    0    0 -0.13591239933E+02  0.42456297334E+02  0.25852798038E+03  0.26234324010E+03  0.00000000000E+00 0. -1.
        -14    1    5    5    0    0  0.27562264487E+02 -0.48841248921E+01  0.37312106288E+02  0.46644682176E+02  0.00000000000E+00 0.  1.
          5    1    4    4  501    0  0.37309567464E+02 -0.34696113457E+02 -0.62991785317E+02  0.81124974766E+02  0.41800000000E+01 0. -1.
         -5    1    4    4    0  501 -0.75725388967E+02 -0.51895256220E+01 -0.22978742482E+03  0.24203511876E+03  0.41800000000E+01 0. -1.
</event>
<event>
11    1  0.1078607E-008  0.2509047E+03  0.7561462E-02  0.1023418E+00
         22   -1    0    0    0    0  0.00000000000E+00  0.00000000000E+00  0.14192699788E+04  0.14192699788E+04  0.00000000000E+00 0. -1.
         22   -1    0    0    0    0 -0.00000000000E+00 -0.00000000000E+00 -0.27185272122E+03  0.27185272122E+03  0.00000000000E+00 0.  1.
        -24    2    1    2    0    0  0.10791733915E+02  0.59626577455E+02 -0.15944750433E+03  0.18833165540E+03  0.79834300459E+02 0.  0.
         25    2    1    2    0    0 -0.22663246076E+02  0.16416383940E+03  0.37042885096E+02  0.21093163010E+03  0.12512628961E+03 0.  0.
         24    2    1    2    0    0  0.11871512161E+02 -0.22379041686E+03  0.12698218768E+04  0.12918594145E+04  0.78930757964E+02 0.  0.
        -11    1    5    5    0    0  0.73757907117E+01 -0.14305322512E+02  0.26159757853E+03  0.26209223116E+03  0.00000000000E+00 0.  1.
         12    1    5    5    0    0  0.44957214494E+01 -0.20948509435E+03  0.10082242983E+04  0.10297671833E+04  0.00000000000E+00 0. -1.
         13    1    3    3    0    0  0.20353781361E+02  0.46593033910E+02 -0.32467421073E+02  0.60326782243E+02  0.00000000000E+00 0. -1.
        -14    1    3    3    0    0 -0.95620474455E+01  0.13033543544E+02 -0.12698008326E+03  0.12800487316E+03  0.00000000000E+00 0.  1.
          5    1    4    4  501    0  0.21472641385E+01 -0.19455783627E+02  0.13417609932E+02  0.24096533280E+02  0.41800000000E+01 0.  1.
         -5    1    4    4    0  501 -0.24810510215E+02  0.18361962303E+03  0.23625275164E+02  0.18683509682E+03  0.41800000000E+01 0.  1.
</event>
<event>
11    1  0.1078607E-008  0.1954445E+03  0.7561462E-02  0.1057793E+00
         22   -1    0    0    0    0  0.00000000000E+00  0.00000000000E+00  0.21572900365E+03  0.21572900365E+03  0.00000000000E+00 0.  1.
         22   -1    0    0    0    0 -0.00000000000E+00 -0.00000000000E+00 -0.32686830677E+04  0.32686830677E+04  0.00000000000E+00 0. -1.
         24    2    1    2    0    0  0.23606372064E+02  0.45974971189E+02 -0.19579934130E+04  0.19603225298E+04  0.80344614082E+02 0.  0.
         25    2    1    2    0    0  0.27095516356E+02 -0.18631579557E+03 -0.12643637908E+04  0.12844111237E+04  0.12509355060E+03 0.  0.
        -24    2    1    2    0    0 -0.50701888420E+02  0.14034082438E+03  0.16940313970E+03  0.23967841787E+03  0.80511438797E+02 0.  0.
        -11    1    3    3    0    0 -0.13598097176E+02  0.43642773137E+01 -0.66984051811E+02  0.68489549278E+02  0.00000000000E+00 0.  1.
         12    1    3    3    0    0  0.37204469240E+02  0.41610693876E+02 -0.18910093612E+04  0.18918329806E+04  0.00000000000E+00 0. -1.
         13    1    5    5    0    0 -0.37843045961E+01 -0.20426288041E+01 -0.69768954786E+01  0.81957528163E+01  0.00000000000E+00 0. -1.
        -14    1    5    5    0    0 -0.46917583824E+02  0.14238345318E+03  0.17638003518E+03  0.23148266506E+03  0.00000000000E+00 0.  1.
          5    1    4    4  501    0 -0.30149514583E+02 -0.11089765226E+03 -0.44639160043E+03  0.46096661033E+03  0.41800000000E+01 0.  1.
         -5    1    4    4    0  501  0.57245030939E+02 -0.75418143310E+02 -0.81797219039E+03  0.82344451335E+03  0.41800000000E+01 0.  1.
</event>
<event>
11    1  0.1078607E-008  0.1357602E+03  0.7561462E-02  0.1112387E+00
         22   -1    0    0    0    0  0.00000000000E+00  0.00000000000E+00  0.16808690243E+04  0.16808690243E+04  0.00000000000E+00 0.  1.
         22   -1    0    0    0    0 -0.00000000000E+00 -0.00000000000E+00 -0.27403470187E+02  0.27403470187E+02  0.00000000000E+00 0. -1.
         24    2    1    2    0    0  0.45087703865E+02  0.18375440506E+02  0.90786938855E+02  0.12570790494E+03  0.72039234069E+02 0.  0.
         25    2    1    2    0    0 -0.73939052107E+02 -0.26719089843E+02  0.68152273844E+03  0.69735439218E+03  0.12509601153E+03 0.  0.
        -24    2    1    2    0    0  0.28851348242E+02  0.83436493367E+01  0.88115587680E+03  0.88521019734E+03  0.79116354039E+02 0.  0.
        -13    1    3    3    0    0  0.44391577088E+02  0.39088928761E+01  0.99347098175E+02  0.10888405519E+03  0.00000000000E+00 0.  1.
         14    1    3    3    0    0  0.69612677747E+00  0.14466547630E+02 -0.85601593200E+01  0.16823849750E+02  0.00000000000E+00 0. -1.
         11    1    5    5    0    0  0.28767225397E+01  0.37272449815E+02  0.24174190291E+03  0.24461532795E+03  0.00000000000E+00 0. -1.
        -12    1    5    5    0    0  0.25974625702E+02 -0.28928800478E+02  0.63941397389E+03  0.64059486939E+03  0.00000000000E+00 0.  1.
          5    1    4    4  501    0 -0.79726839545E+02 -0.25108280096E+02  0.21412719487E+03  0.22990154993E+03  0.41800000000E+01 0. -1.
         -5    1    4    4    0  501  0.57877874381E+01 -0.16108097467E+01  0.46739554356E+03  0.46745284226E+03  0.41800000000E+01 0. -1.
</event>
<event>
11    1  0.1078607E-008  0.1404624E+03  0.7561462E-02  0.1107043E+00
         22   -1    0    0    0    0  0.00000000000E+00  0.00000000000E+00  0.48385346849E+03  0.48385346849E+03  0.00000000000E+00 0. -1.
         22   -1    0    0    0    0 -0.00000000000E+00 -0.00000000000E+00 -0.25064975947E+03  0.25064975947E+03  0.00000000000E+00 0. -1.
         24    2    1    2    0    0  0.58198541602E+02  0.21192825442E+01 -0.15316498115E+03  0.17863276487E+03  0.71123776845E+02 0.  0.
         25    2    1    2    0    0 -0.10654000587E+03 -0.37745043379E+02  0.12883087121E+02  0.16908848100E+03  0.12509787897E+03 0.  0.
        -24    2    1    2    0    0  0.48341464268E+02  0.35625760835E+02  0.37348560305E+03  0.38678198209E+03  0.80639407136E+02 0.  0.
        -13    1    3    3    0    0  0.44002343459E+02 -0.18958153461E+02 -0.39306241453E+02  0.61972561910E+02  0.00000000000E+00 0.  1.
         14    1    3    3    0    0  0.14196198143E+02  0.21077436005E+02 -0.11385873969E+03  0.11666020296E+03  0.00000000000E+00 0. -1.
         13    1    5    5    0    0  0.57163407770E+02  0.15780389788E+02  0.34921017066E+03  0.35420956958E+03  0.00000000000E+00 0. -1.
        -14    1    5    5    0    0 -0.88219435015E+01  0.19845371047E+02  0.24275432387E+02  0.32572412509E+02  0.00000000000E+00 0.  1.
          5    1    4    4  501    0 -0.85732501599E+02 -0.59229066865E+02  0.54500482731E+02  0.11766868407E+03  0.41800000000E+01 0.  1.
         -5    1    4    4    0  501 -0.20807504272E+02  0.21484023486E+02 -0.41617395610E+02  0.51419796932E+02  0.41800000000E+01 0.  1.
</event>
<event>
11    1  0.1078607E-008  0.1264257E+03  0.7561462E-02  0.1123740E+00
         22   -1    0    0    0    0  0.00000000000E+00  0.00000000000E+00  0.25327121919E+03  0.25327121919E+03  0.00000000000E+00 0. -1.
         22   -1    0    0    0    0 -0.00000000000E+00 -0.00000000000E+00 -0.88669863682E+03  0.88669863682E+03  0.00000000000E+00 0. -1.
        -24    2    1    2    0    0  0.13745823319E+02 -0.14228725816E+02 -0.76131803654E+03  0.76575710104E+03  0.79921090648E+02 0.  0.
         25    2    1    2    0    0  0.71390062049E+01  0.12878158475E+01 -0.81626546874E+02  0.14954300872E+03  0.12509034505E+03 0.  0.
         24    2    1    2    0    0 -0.20884829523E+02  0.12940909968E+02  0.20951716578E+03  0.22466974625E+03  0.77300768861E+02 0.  0.
        -11    1    5    5    0    0  0.20625621771E+02  0.85721796781E-01  0.15380586921E+02  0.25729090067E+02  0.00000000000E+00 0.  1.
         12    1    5    5    0    0 -0.41510451294E+02  0.12855188171E+02  0.19413657886E+03  0.19894065618E+03  0.00000000000E+00 0. -1.
         13    1    3    3    0    0 -0.22256039646E+02 -0.27337365984E+02 -0.53981859139E+03  0.54096836737E+03  0.00000000000E+00 0. -1.
        -14    1    3    3    0    0  0.36001862964E+02  0.13108640168E+02 -0.22149944515E+03  0.22478873367E+03  0.00000000000E+00 0.  1.
          5    1    4    4  501    0  0.48139530908E+02  0.43210418957E+02 -0.54975774650E+02  0.84996252511E+02  0.41800000000E+01 0. -1.
         -5    1    4    4    0  501 -0.41000524703E+02 -0.41922603110E+02 -0.26650772224E+02  0.64546756213E+02  0.41800000000E+01 0. -1.
</event>
<event>
11    1  0.2233844E-008  0.1654322E+03  0.7561462E-02  0.1082077E+00
         22   -1    0    0    0    0  0.00000000000E+00  0.00000000000E+00  0.13342282656E+04  0.13342282656E+04  0.00000000000E+00 0.  1.
         22   -1    0    0    0    0 -0.00000000000E+00 -0.00000000000E+00 -0.40388317276E+03  0.40388317276E+03  0.00000000000E+00 0. -1.
         24    2    1    2    0    0 -0.71572095495E+02 -0.61226345022E+02 -0.24832941516E+03  0.28540383757E+03  0.10448263919E+03 0.  0.
         25    2    1    2    0    0  0.12798758054E+03  0.11538619601E+03 -0.50114768538E+02  0.21875459397E+03  0.12508911766E+03 0.  0.
        -24    2    1    2    0    0 -0.56415485047E+02 -0.54159850988E+02  0.12287892765E+04  0.12339530068E+04  0.81246172008E+02 0.  0.
        -11    1    3    3    0    0  0.14378541261E+02 -0.10817167652E+02 -0.17742723158E+00  0.17994028044E+02  0.00000000000E+00 0.  1.
         12    1    3    3    0    0 -0.85950636756E+02 -0.50409177369E+02 -0.24815198792E+03  0.26740980953E+03  0.00000000000E+00 0. -1.
         11    1    5    5    0    0 -0.30936834598E+02  0.82932158728E+01  0.16828389163E+03  0.17130479662E+03  0.00000000000E+00 0. -1.
        -12    1    5    5    0    0 -0.25478650449E+02 -0.62453066860E+02  0.10605053849E+04  0.10626482102E+04  0.00000000000E+00 0.  1.
          5    1    4    4  501    0  0.11027979054E+03  0.24303370440E+02 -0.55135806814E+02  0.12573669158E+03  0.41800000000E+01 0. -1.
         -5    1    4    4    0  501  0.17707790002E+02  0.91082825569E+02  0.50210382762E+01  0.93017902394E+02  0.41800000000E+01 0. -1.
</event>
<event>
11    1  0.1078607E-008  0.1601898E+03  0.7561462E-02  0.1086899E+00
         22   -1    0    0    0    0  0.00000000000E+00  0.00000000000E+00  0.42309950622E+03  0.42309950622E+03  0.00000000000E+00 0. -1.
         22   -1    0    0    0    0 -0.00000000000E+00 -0.00000000000E+00 -0.55279438211E+03  0.55279438211E+03  0.00000000000E+00 0. -1.
        -24    2    1    2    0    0 -0.67326583848E+02 -0.42291723235E+02 -0.33969702671E+03  0.36061355977E+03  0.91250264595E+02 0.  0.
         25    2    1    2    0    0  0.42247338042E+02 -0.57779379355E+02 -0.16442491615E+03  0.21864644314E+03  0.12508964704E+03 0.  0.
         24    2    1    2    0    0  0.25079245805E+02  0.10007110259E+03  0.37442706697E+03  0.39663388542E+03  0.80496064731E+02 0.  0.
        -11    1    5    5    0    0 -0.10818771464E+02 -0.85397540767E+01  0.20684597917E+02  0.24856102001E+02  0.00000000000E+00 0.  1.
         12    1    5    5    0    0  0.35898017269E+02  0.10861085667E+03  0.35374246906E+03  0.37177778342E+03  0.00000000000E+00 0. -1.
         13    1    3    3    0    0 -0.81542517055E+02 -0.51883878583E+02 -0.32103741694E+03  0.33527025221E+03  0.00000000000E+00 0. -1.
        -14    1    3    3    0    0  0.14215933207E+02  0.95921553480E+01 -0.18659609770E+02  0.25343307557E+02  0.00000000000E+00 0.  1.
          5    1    4    4  501    0 -0.19872180916E+02 -0.76446616565E+02 -0.88250590606E+02  0.11851003291E+03  0.41800000000E+01 0.  1.
         -5    1    4    4    0  501  0.62119518959E+02  0.18667237210E+02 -0.76174325548E+02  0.10013641023E+03  0.41800000000E+01 0.  1.
</event>
<event>
11    1  0.1078607E-008  0.1600155E+03  0.7561462E-02  0.1087063E+00
         22   -1    0    0    0    0  0.00000000000E+00  0.00000000000E+00  0.50062435573E+03  0.50062435573E+03  0.00000000000E+00 0. -1.
         22   -1    0    0    0    0 -0.00000000000E+00 -0.00000000000E+00 -0.33101648532E+03  0.33101648532E+03  0.00000000000E+00 0.  1.
         24    2    1    2    0    0 -0.44244015299E+02  0.17842535826E+02 -0.22876758280E+03  0.24648531461E+03  0.78386953025E+02 0.  0.
         25    2    1    2    0    0  0.93350084010E+02 -0.99915409049E+02  0.19711635875E+02  0.18636898876E+03  0.12509006448E+03 0.  0.
        -24    2    1    2    0    0 -0.49106068711E+02  0.82072873222E+02  0.37866381734E+03  0.39878653768E+03  0.80604302461E+02 0.  0.
        -13    1    3    3    0    0 -0.50660508099E+02  0.16225990933E+02 -0.23275719967E+03  0.23875863097E+03  0.00000000000E+00 0.  1.
         14    1    3    3    0    0  0.64164928009E+01  0.16165448939E+01  0.39896168758E+01  0.77266836401E+01  0.00000000000E+00 0. -1.
         11    1    5    5    0    0 -0.68779658594E+02  0.79297838230E+02  0.30887939488E+03  0.32622886011E+03  0.00000000000E+00 0. -1.
        -12    1    5    5    0    0  0.19673589883E+02  0.27750349925E+01  0.69784422456E+02  0.72557677579E+02  0.00000000000E+00 0.  1.
          5    1    4    4  501    0 -0.28457259933E+02 -0.10318815658E+02 -0.10115263127E+02  0.32188267235E+02  0.41800000000E+01 0.  1.
         -5    1    4    4    0  501  0.12180734394E+03 -0.89596593391E+02  0.29826899002E+02  0.15418072152E+03  0.41800000000E+01 0.  1.
</event>
<event>
11    1  0.1078607E-008  0.1859316E+03  0.7561462E-02  0.1064943E+00
         22   -1    0    0    0    0  0.00000000000E+00  0.00000000000E+00  0.33474076792E+03  0.33474076792E+03  0.00000000000E+00 0. -1.
         22   -1    0    0    0    0 -0.00000000000E+00 -0.00000000000E+00 -0.89936769316E+03  0.89936769316E+03  0.00000000000E+00 0.  1.
        -24    2    1    2    0    0  0.67144237832E+02  0.30601880861E+02 -0.71616736737E+03  0.72440960070E+03  0.80179471943E+02 0.  0.
         25    2    1    2    0    0 -0.12995103748E+03 -0.14385117465E+03 -0.69343832061E+02  0.24090824866E+03  0.12509110535E+03 0.  0.
         24    2    1    2    0    0  0.62806799648E+02  0.11324929379E+03  0.22088427419E+03  0.26879061172E+03  0.81782845026E+02 0.  0.
        -11    1    5    5    0    0 -0.19854579617E+02  0.15907611730E+02  0.35238991410E+02  0.43463121819E+02  0.00000000000E+00 0.  1.
         12    1    5    5    0    0  0.82661379264E+02  0.97341682059E+02  0.18564528278E+03  0.22532748990E+03  0.00000000000E+00 0. -1.
         11    1    3    3    0    0  0.93530917799E+01  0.19038099592E+02 -0.36684363386E+02  0.42375371136E+02  0.00000000000E+00 0. -1.
        -12    1    3    3    0    0  0.57791146052E+02  0.11563781269E+02 -0.67948300398E+03  0.68203422956E+03  0.00000000000E+00 0.  1.
          5    1    4    4  501    0 -0.16901106645E+02 -0.52606415401E+02 -0.77578758558E+02  0.95336344206E+02  0.41800000000E+01 0. -1.
         -5    1    4    4    0  501 -0.11304993083E+03 -0.91244759250E+02  0.82349264964E+01  0.14557190445E+03  0.41800000000E+01 0. -1.
</event>
<event>
11    1  0.1078607E-008  0.1532673E+03  0.7561462E-02  0.1093586E+00
         22   -1    0    0    0    0  0.00000000000E+00  0.00000000000E+00  0.31196283575E+04  0.31196283575E+04  0.00000000000E+00 0. -1.
         22   -1    0    0    0    0 -0.00000000000E+00 -0.00000000000E+00 -0.55183022171E+02  0.55183022171E+02  0.00000000000E+00 0.  1.
        -24    2    1    2    0    0  0.34589800108E+01 -0.92974765824E+02  0.40110848681E+02  0.12916750661E+03  0.80119242121E+02 0.  0.
         25    2    1    2    0    0  0.14403411888E+02  0.62504969982E+02  0.48929771905E+03  0.50909161655E+03  0.12509071360E+03 0.  0.
         24    2    1    2    0    0 -0.17862391899E+02  0.30469795841E+02  0.25350367676E+04  0.25365522565E+04  0.80240036466E+02 0.  0.
        -13    1    5    5    0    0  0.52212756453E+00  0.56062510015E+02  0.15660714698E+04  0.15670747034E+04  0.00000000000E+00 0.  1.
         14    1    5    5    0    0 -0.18384519463E+02 -0.25592714173E+02  0.96896529780E+03  0.96947755307E+03  0.00000000000E+00 0. -1.
         13    1    3    3    0    0 -0.10804018354E+01 -0.44484677842E+02  0.61554131042E+02  0.75953702209E+02  0.00000000000E+00 0. -1.
        -14    1    3    3    0    0  0.45393818462E+01 -0.48490087981E+02 -0.21443282361E+02  0.53213804397E+02  0.00000000000E+00 0.  1.
          5    1    4    4  501    0 -0.22207334323E+02  0.67599067364E+02  0.13333306772E+03  0.15118855431E+03  0.41800000000E+01 0.  1.
         -5    1    4    4    0  501  0.36610746211E+02 -0.50940973823E+01  0.35596465132E+03  0.35790306224E+03  0.41800000000E+01 0.  1.
</event>
<event>
11    1  0.1078607E-008  0.1923104E+03  0.7561462E-02  0.1060099E+00
         22   -1    0    0    0    0  0.00000000000E+00  0.00000000000E+00  0.30042690262E+03  0.30042690262E+03  0.00000000000E+00 0. -1.
         22   -1    0    0    0    0 -0.00000000000E+00 -0.00000000000E+00 -0.19889854227E+04  0.19889854227E+04  0.00000000000E+00 0. -1.
        -24    2    1    2    0    0  0.47881632891E+02  0.88502883079E+01 -0.15855501145E+04  0.15884015447E+04  0.81727126411E+02 0.  0.
         25    2    1    2    0    0 -0.87024180265E+02 -0.14815341137E+03 -0.34683285130E+03  0.40677077488E+03  0.12508715083E+03 0.  0.
         24    2    1    2    0    0  0.39142547374E+02  0.13930312307E+03  0.24382444579E+03  0.29424000569E+03  0.78672240773E+02 0.  0.
        -11    1    5    5    0    0  0.39797035801E+02  0.80579260397E+02  0.80407904948E+02  0.12059126188E+03  0.00000000000E+00 0.  1.
         12    1    5    5    0    0 -0.65448842644E+00  0.58723862670E+02  0.16341654085E+03  0.17364874380E+03  0.00000000000E+00 0. -1.
         11    1    3    3    0    0  0.32165377214E+02  0.20871073827E+02 -0.15038814605E+04  0.15043701873E+04  0.00000000000E+00 0. -1.
        -12    1    3    3    0    0  0.15716255676E+02 -0.12020785519E+02 -0.81668654023E+02  0.84031357403E+02  0.00000000000E+00 0.  1.
          5    1    4    4  501    0 -0.11082395203E+03 -0.92097452372E+02 -0.28763612480E+03  0.32173887202E+03  0.41800000000E+01 0.  1.
         -5    1    4    4    0  501  0.23799771766E+02 -0.56055959003E+02 -0.59196726499E+02  0.85031902860E+02  0.41800000000E+01 0.  1.
</event>
<event>
11    1  0.1078607E-008  0.1482097E+03  0.7561462E-02  0.1098722E+00
         22   -1    0    0    0    0  0.00000000000E+00  0.00000000000E+00  0.11854431905E+03  0.11854431905E+03  0.00000000000E+00 0. -1.
         22   -1    0    0    0    0 -0.00000000000E+00 -0.00000000000E+00 -0.49464137192E+03  0.49464137192E+03  0.00000000000E+00 0.  1.
         24    2    1    2    0    0  0.50483310135E+01 -0.13199289389E+02 -0.22378292566E+03  0.23834358000E+03  0.80803201793E+02 0.  0.
         25    2    1    2    0    0 -0.42142570675E+01  0.90845968921E+02 -0.20038355364E+03  0.25312378731E+03  0.12508930051E+03 0.  0.
        -24    2    1    2    0    0 -0.83407394609E+00 -0.77646679532E+02  0.48069426434E+02  0.12171832367E+03  0.80467248226E+02 0.  0.
        -11    1    3    3    0    0 -0.34281204830E+01 -0.38515103542E+02 -0.53670473067E+02  0.66148959857E+02  0.00000000000E+00 0.  1.
         12    1    3    3    0    0  0.84764514965E+01  0.25315814153E+02 -0.17011245260E+03  0.17219462014E+03  0.00000000000E+00 0. -1.
         13    1    5    5    0    0  0.38260040060E+02 -0.53828438338E+02  0.28987931643E+02  0.72122337873E+02  0.00000000000E+00 0. -1.
        -14    1    5    5    0    0 -0.39094114006E+02 -0.23818241194E+02  0.19081494791E+02  0.49595985795E+02  0.00000000000E+00 0.  1.
          5    1    4    4  501    0  0.37868042644E+02  0.21591532615E+02 -0.15302935643E+03  0.15917172884E+03  0.41800000000E+01 0.  1.
         -5    1    4    4    0  501 -0.42082299711E+02  0.69254436305E+02 -0.47354197213E+02  0.93952058469E+02  0.41800000000E+01 0.  1.
</event>
<event>
11    1  0.1078607E-008  0.2099222E+03  0.7561462E-02  0.1047721E+00
         22   -1    0    0    0    0  0.00000000000E+00  0.00000000000E+00  0.45643683566E+03  0.45643683566E+03  0.00000000000E+00 0.  1.
         22   -1    0    0    0    0 -0.00000000000E+00 -0.00000000000E+00 -0.16606494680E+04  0.16606494680E+04  0.00000000000E+00 0. -1.
         24    2    1    2    0    0  0.12945306602E+03 -0.10248916056E+02 -0.14933752870E+04  0.15011286402E+04  0.79713926345E+02 0.  0.
         25    2    1    2    0    0 -0.22341607018E+03 -0.11555076419E+03  0.46819743181E+01  0.28095553180E+03  0.12508944978E+03 0.  0.
        -24    2    1    2    0    0  0.93963004158E+02  0.12579968025E+03  0.28448068031E+03  0.33500213168E+03  0.81501932868E+02 0.  0.
        -13    1    3    3    0    0 -0.65170593922E+01  0.12553739364E+02 -0.17188367800E+03  0.17246468392E+03  0.00000000000E+00 0.  1.
         14    1    3    3    0    0  0.13597012542E+03 -0.22802655420E+02 -0.13214916090E+04  0.13286639563E+04  0.00000000000E+00 0. -1.
         11    1    5    5    0    0 -0.80282160986E+01  0.13426140401E+02  0.73293736574E+02  0.74944548306E+02  0.00000000000E+00 0. -1.
        -12    1    5    5    0    0  0.10199122026E+03  0.11237353985E+03  0.21118694374E+03  0.26005758338E+03  0.00000000000E+00 0.  1.
          5    1    4    4  501    0 -0.23062958159E+03 -0.12806061752E+03  0.12268187579E+02  0.26411646387E+03  0.41800000000E+01 0.  1.
         -5    1    4    4    0  501  0.72135114053E+01  0.12509853327E+02 -0.75862132613E+01  0.16839067929E+02  0.41800000000E+01 0.  1.
</event>
<event>
11    1  0.1078607E-008  0.1354154E+03  0.7561462E-02  0.1112789E+00
         22   -1    0    0    0    0  0.00000000000E+00  0.00000000000E+00  0.18568231877E+04  0.18568231877E+04  0.00000000000E+00 0. -1.
         22   -1    0    0    0    0 -0.00000000000E+00 -0.00000000000E+00 -0.14292777894E+04  0.14292777894E+04  0.00000000000E+00 0. -1.
         24    2    1    2    0    0 -0.46260480912E+02 -0.23687430502E+02 -0.14102690318E+04  0.14134645158E+04  0.79511438275E+02 0.  0.
         25    2    1    2    0    0  0.17097221191E+02  0.40694060608E+02  0.25591241026E+03  0.28824764303E+03  0.12508885021E+03 0.  0.
        -24    2    1    2    0    0  0.29163259722E+02 -0.17006630106E+02  0.15819020198E+04  0.15843888183E+04  0.82062207403E+02 0.  0.
        -11    1    3    3    0    0 -0.16201822313E+02 -0.28585921388E+02 -0.19033357659E+03  0.19314896926E+03  0.00000000000E+00 0.  1.
         12    1    3    3    0    0 -0.30058658599E+02  0.48984908860E+01 -0.12199354553E+04  0.12203155466E+04  0.00000000000E+00 0. -1.
         13    1    5    5    0    0  0.52466947930E+02 -0.25651990086E+02  0.13251943443E+04  0.13264806276E+04  0.00000000000E+00 0. -1.
        -14    1    5    5    0    0 -0.23303688209E+02  0.86453599800E+01  0.25670767549E+03  0.25790819062E+03  0.00000000000E+00 0.  1.
          5    1    4    4  501    0 -0.43622494123E+02 -0.48919695424E+01  0.40740928719E+02  0.60034565314E+02  0.41800000000E+01 0. -1.
         -5    1    4    4    0  501  0.60719715313E+02  0.45586030150E+02  0.21517148154E+03  0.22821307771E+03  0.41800000000E+01 0. -1.
</event>
<event>
11    1  0.1078607E-008  0.1355340E+03  0.7561462E-02  0.1112650E+00
         22   -1    0    0    0    0  0.00000000000E+00  0.00000000000E+00  0.87559883181E+03  0.87559883181E+03  0.00000000000E+00 0. -1.
         22   -1    0    0    0    0 -0.00000000000E+00 -0.00000000000E+00 -0.12236079450E+04  0.12236079450E+04  0.00000000000E+00 0.  1.
         24    2    1    2    0    0 -0.40039581171E+02  0.14166602228E+02 -0.10364592542E+04  0.10407257556E+04  0.84014593604E+02 0.  0.
         25    2    1    2    0    0  0.18528947039E+02 -0.61752583845E+02 -0.15517193051E+03  0.20948133344E+03  0.12508955812E+03 0.  0.
        -24    2    1    2    0    0  0.21510634132E+02  0.47585981617E+02  0.84362207160E+03  0.84899968775E+03  0.79844455577E+02 0.  0.
        -13    1    3    3    0    0 -0.33217047991E+01 -0.82323244038E+01 -0.81930168022E+03  0.81934977152E+03  0.00000000000E+00 0.  1.
         14    1    3    3    0    0 -0.36717876372E+02  0.22398926632E+02 -0.21715757402E+03  0.22137598405E+03  0.00000000000E+00 0. -1.
         11    1    5    5    0    0  0.16483854644E+02  0.55569153783E+02  0.83206339199E+03  0.83407981429E+03  0.00000000000E+00 0. -1.
        -12    1    5    5    0    0  0.50267794883E+01 -0.79831721655E+01  0.11558679614E+02  0.14919873467E+02  0.00000000000E+00 0.  1.
          5    1    4    4  501    0 -0.30797531873E+02 -0.38994703181E+02 -0.14593597468E+03  0.15422015417E+03  0.41800000000E+01 0. -1.
         -5    1    4    4    0  501  0.49326478912E+02 -0.22757880665E+02 -0.92359558335E+01  0.55261179271E+02  0.41800000000E+01 0. -1.
</event>
<event>
11    1  0.1078607E-008  0.1371081E+03  0.7561462E-02  0.1110831E+00
         22   -1    0    0    0    0  0.00000000000E+00  0.00000000000E+00  0.39173991058E+03  0.39173991058E+03  0.00000000000E+00 0. -1.
         22   -1    0    0    0    0 -0.00000000000E+00 -0.00000000000E+00 -0.62026374630E+03  0.62026374630E+03  0.00000000000E+00 0.  1.
        -24    2    1    2    0    0  0.38826444800E+02  0.89400759257E+01 -0.52687101698E+03  0.53444218707E+03  0.80299221757E+02 0.  0.
         25    2    1    2    0    0 -0.10906826444E+02  0.42085055846E+02 -0.29496385052E+02  0.13567373801E+03  0.12508883109E+03 0.  0.
         24    2    1    2    0    0 -0.27919618356E+02 -0.51025131771E+02  0.32784356631E+03  0.34188773180E+03  0.77606365863E+02 0.  0.
        -11    1    5    5    0    0  0.21613904193E+02 -0.41128672381E+02  0.15940346111E+03  0.16603671871E+03  0.00000000000E+00 0.  1.
         12    1    5    5    0    0 -0.49533522549E+02 -0.98964593903E+01  0.16844010520E+03  0.17585101309E+03  0.00000000000E+00 0. -1.
         13    1    3    3    0    0 -0.54134725800E+01 -0.13737133771E+02 -0.18611323380E+02  0.23757017649E+02  0.00000000000E+00 0. -1.
        -14    1    3    3    0    0  0.44239917380E+02  0.22677209697E+02 -0.50825969360E+03  0.51068516942E+03  0.00000000000E+00 0.  1.
          5    1    4    4  501    0  0.45357825884E+01 -0.41027472540E+02  0.93773621432E+01  0.42535093129E+02  0.41800000000E+01 0. -1.
         -5    1    4    4    0  501 -0.15442609032E+02  0.83112528386E+02 -0.38873747195E+02  0.93138644876E+02  0.41800000000E+01 0. -1.
</event>
<event>
11    1  0.1078607E-008  0.1781944E+03  0.7561462E-02  0.1071113E+00
         22   -1    0    0    0    0  0.00000000000E+00  0.00000000000E+00  0.65780719221E+03  0.65780719221E+03  0.00000000000E+00 0. -1.
         22   -1    0    0    0    0 -0.00000000000E+00 -0.00000000000E+00 -0.10978404910E+03  0.10978404910E+03  0.00000000000E+00 0.  1.
        -24    2    1    2    0    0 -0.33254960166E+02 -0.34946541269E+02  0.47928566424E+02  0.10537083663E+03  0.80490450427E+02 0.  0.
         25    2    1    2    0    0 -0.36640757502E+02  0.13869039033E+03  0.63603120376E+02  0.20067448527E+03  0.12508925868E+03 0.  0.
         24    2    1    2    0    0  0.69895717668E+02 -0.10374384906E+03  0.43649145630E+03  0.46154591941E+03  0.82774674472E+02 0.  0.
        -13    1    5    5    0    0  0.87038609639E+02 -0.68430391399E+02  0.31834703128E+03  0.33705084240E+03  0.00000000000E+00 0.  1.
         14    1    5    5    0    0 -0.17142891971E+02 -0.35313457662E+02  0.11814442502E+03  0.12449507701E+03  0.00000000000E+00 0. -1.
         11    1    3    3    0    0  0.14705826121E+02 -0.41005610694E+02  0.33398351397E+02  0.54892361093E+02  0.00000000000E+00 0. -1.
        -12    1    3    3    0    0 -0.47960786288E+02  0.60590694249E+01  0.14530215027E+02  0.50478475535E+02  0.00000000000E+00 0.  1.
          5    1    4    4  501    0 -0.68670526177E+02  0.61024871476E+02 -0.50471348643E+01  0.92101151320E+02  0.41800000000E+01 0. -1.
         -5    1    4    4    0  501  0.32029768675E+02  0.77665518855E+02  0.68650255240E+02  0.10857333395E+03  0.41800000000E+01 0. -1.
</event>
<event>
11    1  0.1078607E-008  0.1307495E+03  0.7561462E-02  0.1118351E+00
         22   -1    0    0    0    0  0.00000000000E+00  0.00000000000E+00  0.11381997364E+04  0.11381997364E+04  0.00000000000E+00 0.  1.
         22   -1    0    0    0    0 -0.00000000000E+00 -0.00000000000E+00 -0.13811794338E+04  0.13811794338E+04  0.00000000000E+00 0. -1.
        -24    2    1    2    0    0 -0.21879397262E+02 -0.26912646405E+02 -0.13663634741E+04  0.13691452318E+04  0.80040763382E+02 0.  0.
         25    2    1    2    0    0  0.14973144266E+02 -0.16914369221E+02  0.37362870409E+03  0.39465925360E+03  0.12508887641E+03 0.  0.
         24    2    1    2    0    0  0.69062529957E+01  0.43827015627E+02  0.74975507257E+03  0.75557468487E+03  0.82413178148E+02 0.  0.
        -11    1    5    5    0    0 -0.32667960528E+02  0.28045919221E+02  0.52877639030E+03  0.53052638028E+03  0.00000000000E+00 0.  1.
         12    1    5    5    0    0  0.39574213524E+02  0.15781096406E+02  0.22097868227E+03  0.22504830459E+03  0.00000000000E+00 0. -1.
         11    1    3    3    0    0 -0.58734216524E+01 -0.12282066775E+02 -0.12809382558E+04  0.12810106016E+04  0.00000000000E+00 0. -1.
        -12    1    3    3    0    0 -0.16005975610E+02 -0.14630579631E+02 -0.85425218265E+02  0.88134630147E+02  0.00000000000E+00 0.  1.
          5    1    4    4  501    0 -0.37327484680E+02 -0.47869089605E+02  0.13007794220E+03  0.14360548144E+03  0.41800000000E+01 0.  1.
         -5    1    4    4    0  501  0.52300628947E+02  0.30954720383E+02  0.24355076188E+03  0.25105377216E+03  0.41800000000E+01 0.  1.
</event>
<event>
11    1  0.1078607E-008  0.2268353E+03  0.7561462E-02  0.1037018E+00
         22   -1    0    0    0    0  0.00000000000E+00  0.00000000000E+00  0.63549645902E+03  0.63549645902E+03  0.00000000000E+00 0.  1.
         22   -1    0    0    0    0 -0.00000000000E+00 -0.00000000000E+00 -0.45818135074E+03  0.45818135074E+03  0.00000000000E+00 0. -1.
         24    2    1    2    0    0 -0.12137840136E+03  0.16660599736E+03 -0.33172262396E+03  0.39880447416E+03  0.80714525895E+02 0.  0.
         25    2    1    2    0    0  0.68420291524E+02 -0.12138316902E+03  0.13231842592E+02  0.18772132533E+03  0.12509598040E+03 0.  0.
        -24    2    1    2    0    0  0.52958109839E+02 -0.45222828339E+02  0.49580588964E+03  0.50715201027E+03  0.80808512634E+02 0.  0.
        -13    1    3    3    0    0 -0.93131711181E+00 -0.86582665641E+01 -0.12827409667E+02  0.15504043673E+02  0.00000000000E+00 0.  1.
         14    1    3    3    0    0 -0.12044708425E+03  0.17526426392E+03 -0.31889521429E+03  0.38330043048E+03  0.00000000000E+00 0. -1.
         13    1    5    5    0    0 -0.91837172648E+01  0.37272690168E+01  0.73684815545E+01  0.12350211235E+02  0.00000000000E+00 0. -1.
        -14    1    5    5    0    0  0.62141827103E+02 -0.48950097356E+02  0.48843740809E+03  0.49480179903E+03  0.00000000000E+00 0.  1.
          5    1    4    4  501    0  0.48103897814E+02  0.45266814772E+01  0.32905881503E+02  0.58606699852E+02  0.41800000000E+01 0. -1.
         -5    1    4    4    0  501  0.20316393710E+02 -0.12590985049E+03 -0.19674038911E+02  0.12911462548E+03  0.41800000000E+01 0. -1.
</event>
<event>
11    1  0.1078607E-008  0.1529970E+03  0.7561462E-02  0.1093855E+00
         22   -1    0    0    0    0  0.00000000000E+00  0.00000000000E+00  0.60979521688E+03  0.60979521688E+03  0.00000000000E+00 0.  1.
         22   -1    0    0    0    0 -0.00000000000E+00 -0.00000000000E+00 -0.10116023649E+03  0.10116023649E+03  0.00000000000E+00 0. -1.
        -24    2    1    2    0    0 -0.12991858790E+02  0.85060487081E+02  0.32976492008E+02  0.12337475237E+03  0.82035392610E+02 0.  0.
         25    2    1    2    0    0  0.73268927530E+02 -0.73383391301E+02  0.84731413810E+02  0.18324828036E+03  0.12508821651E+03 0.  0.
         24    2    1    2    0    0 -0.60277068740E+02 -0.11677095780E+02  0.39092707458E+03  0.40433242064E+03  0.83012343409E+02 0.  0.
        -11    1    5    5    0    0 -0.81938701350E+01  0.73763781742E+01  0.28092164250E+03  0.28113790154E+03  0.00000000000E+00 0.  1.
         12    1    5    5    0    0 -0.52083198605E+02 -0.19053473954E+02  0.11000543208E+03  0.12319451909E+03  0.00000000000E+00 0. -1.
         11    1    3    3    0    0 -0.47575113043E+02  0.47480375311E+02  0.24850271006E+02  0.71661100953E+02  0.00000000000E+00 0. -1.
        -12    1    3    3    0    0  0.34583254253E+02  0.37580111771E+02  0.81262210019E+01  0.51713651420E+02  0.00000000000E+00 0.  1.
          5    1    4    4  501    0  0.33684257873E+02  0.26080833409E+02  0.59304047710E+02  0.73138782971E+02  0.41800000000E+01 0.  1.
         -5    1    4    4    0  501  0.39584669657E+02 -0.99464224710E+02  0.25427366100E+02  0.11010949739E+03  0.41800000000E+01 0.  1.
</event>
<event>
11    1  0.1078607E-008  0.1325301E+03  0.7561462E-02  0.1116199E+00
         22   -1    0    0    0    0  0.00000000000E+00  0.00000000000E+00  0.18953478316E+03  0.18953478316E+03  0.00000000000E+00 0.  1.
         22   -1    0    0    0    0 -0.00000000000E+00 -0.00000000000E+00 -0.26587825577E+03  0.26587825577E+03  0.00000000000E+00 0. -1.
         24    2    1    2    0    0  0.19813331281E+02  0.16165081805E+02 -0.12749597688E+03  0.15321855229E+03  0.81035934490E+02 0.  0.
         25    2    1    2    0    0 -0.52347429011E+02 -0.40383880232E+02 -0.64055759722E+02  0.15531127590E+03  0.12508933192E+03 0.  0.
        -24    2    1    2    0    0  0.32534097730E+02  0.24218798427E+02  0.11520826400E+03  0.14688321074E+03  0.81588698926E+02 0.  0.
        -13    1    3    3    0    0 -0.37967261854E+01  0.27174717586E+02 -0.48843504496E+01  0.27870006906E+02  0.00000000000E+00 0.  1.
         14    1    3    3    0    0  0.23610057466E+02 -0.11009635781E+02 -0.12261162643E+03  0.12534854539E+03  0.00000000000E+00 0. -1.
         11    1    5    5    0    0 -0.19553014054E+02 -0.11552323849E+02  0.55421128336E+02  0.59893889596E+02  0.00000000000E+00 0. -1.
        -12    1    5    5    0    0  0.52087111784E+02  0.35771122276E+02  0.59787135662E+02  0.86989321147E+02  0.00000000000E+00 0.  1.
          5    1    4    4  501    0 -0.29576332439E+02 -0.63869781931E+01 -0.97579605144E+02  0.10224873922E+03  0.41800000000E+01 0. -1.
         -5    1    4    4    0  501 -0.22771096572E+02 -0.33996902039E+02  0.33523845422E+02  0.53062536683E+02  0.41800000000E+01 0. -1.
</event>
<event>
11    1  0.1078607E-008  0.1294552E+03  0.7561462E-02  0.1119940E+00
         22   -1    0    0    0    0  0.00000000000E+00  0.00000000000E+00  0.60168589608E+02  0.60168589608E+02  0.00000000000E+00 0.  1.
         22   -1    0    0    0    0 -0.00000000000E+00 -0.00000000000E+00 -0.11826950121E+04  0.11826950121E+04  0.00000000000E+00 0.  1.
        -24    2    1    2    0    0 -0.77395010529E+01 -0.63815154431E+01 -0.95050661861E+03  0.95361227432E+03  0.76242469133E+02 0.  0.
         25    2    1    2    0    0 -0.26635447381E+02  0.11068931014E+02 -0.16035363758E+03  0.20541118833E+03  0.12509396034E+03 0.  0.
         24    2    1    2    0    0  0.34374948434E+02 -0.46874155713E+01 -0.11666166255E+02  0.83840139013E+02  0.75428512713E+02 0.  0.
        -13    1    5    5    0    0 -0.38633486168E+01  0.90130801954E+01  0.26406127047E+02  0.28168149083E+02  0.00000000000E+00 0.  1.
         14    1    5    5    0    0  0.38238297050E+02 -0.13700495767E+02 -0.38072293302E+02  0.55671989931E+02  0.00000000000E+00 0. -1.
         11    1    3    3    0    0 -0.65335525404E+01  0.33062093108E+02 -0.29498278086E+03  0.29690171827E+03  0.00000000000E+00 0. -1.
        -12    1    3    3    0    0 -0.12059485125E+01 -0.39443608551E+02 -0.65552383775E+03  0.65671055605E+03  0.00000000000E+00 0.  1.
          5    1    4    4  501    0 -0.75057067238E+02  0.16545325327E+02 -0.11702366118E+03  0.14006898589E+03  0.41800000000E+01 0. -1.
         -5    1    4    4    0  501  0.48421619857E+02 -0.54763943121E+01 -0.43329976397E+02  0.65342202433E+02  0.41800000000E+01 0. -1.
</event>
<event>
11    1  0.1078607E-008  0.2011555E+03  0.7561462E-02  0.1053710E+00
         22   -1    0    0    0    0  0.00000000000E+00  0.00000000000E+00  0.11453863807E+04  0.11453863807E+04  0.00000000000E+00 0. -1.
         22   -1    0    0    0    0 -0.00000000000E+00 -0.00000000000E+00 -0.17876903512E+03  0.17876903512E+03  0.00000000000E+00 0.  1.
        -24    2    1    2    0    0 -0.15703782420E+03 -0.31387128297E+02 -0.10269389540E+03  0.20658616110E+03  0.80534314140E+02 0.  0.
         25    2    1    2    0    0  0.13374348442E+03  0.33709684389E+02  0.37187893261E+03  0.41588834202E+03  0.12508201335E+03 0.  0.
         24    2    1    2    0    0  0.23294339781E+02 -0.23225560923E+01  0.69743230838E+03  0.70168091271E+03  0.73459226535E+02 0.  0.
        -13    1    5    5    0    0  0.53687871293E+01  0.28347819162E+02  0.51585101957E+03  0.51665723369E+03  0.00000000000E+00 0.  1.
         14    1    5    5    0    0  0.17925552652E+02 -0.30670375255E+02  0.18158128881E+03  0.18502367903E+03  0.00000000000E+00 0. -1.
         11    1    3    3    0    0 -0.24734540727E+02  0.15224140751E+02 -0.47844021433E+02  0.55969834317E+02  0.00000000000E+00 0. -1.
        -12    1    3    3    0    0 -0.13230328347E+03 -0.46611269048E+02 -0.54849873969E+02  0.15061632678E+03  0.00000000000E+00 0.  1.
          5    1    4    4  501    0  0.10140626029E+03  0.30967198695E+02  0.11323659153E+03  0.15518439059E+03  0.41800000000E+01 0. -1.
         -5    1    4    4    0  501  0.32337224123E+02  0.27424856942E+01  0.25864234108E+03  0.26070395143E+03  0.41800000000E+01 0. -1.
</event>
<event>
11    1  0.1078607E-008  0.1414223E+03  0.7561462E-02  0.1105980E+00
         22   -1    0    0    0    0  0.00000000000E+00  0.00000000000E+00  0.57459528242E+03  0.57459528242E+03  0.00000000000E+00 0. -1.
         22   -1    0    0    0    0 -0.00000000000E+00 -0.00000000000E+00 -0.14579492969E+04  0.14579492969E+04  0.00000000000E+00 0.  1.
        -24    2    1    2    0    0 -0.38277489417E+02 -0.27449391180E+02 -0.12992817810E+04  0.13026370985E+04  0.80694664457E+02 0.  0.
         25    2    1    2    0    0 -0.27996594895E+02  0.15432643790E+02 -0.12444964836E+03  0.17932459502E+03  0.12509044561E+03 0.  0.
         24    2    1    2    0    0  0.66274084312E+02  0.12016747390E+02  0.54037741488E+03  0.55058288571E+03  0.81222577264E+02 0.  0.
        -11    1    5    5    0    0 -0.11144104027E+02  0.10027605268E+02  0.23710938793E+03  0.23758283980E+03  0.00000000000E+00 0.  1.
         12    1    5    5    0    0  0.77418188339E+02  0.19891421220E+01  0.30326802695E+03  0.31300004592E+03  0.00000000000E+00 0. -1.
         13    1    3    3    0    0  0.17884360528E+02 -0.29556532542E+02 -0.65429774864E+03  0.65520911383E+03  0.00000000000E+00 0. -1.
        -14    1    3    3    0    0 -0.56161849945E+02  0.21071413619E+01 -0.64498403232E+03  0.64742798470E+03  0.00000000000E+00 0.  1.
          5    1    4    4  501    0  0.34821888907E+02 -0.34096972111E+02 -0.43934785492E+02  0.65748804023E+02  0.41800000000E+01 0. -1.
         -5    1    4    4    0  501 -0.62818483802E+02  0.49529615901E+02 -0.80514862865E+02  0.11357579100E+03  0.41800000000E+01 0. -1.
</event>
<event>
11    1  0.1078607E-008  0.2014356E+03  0.7561462E-02  0.1053513E+00
         22   -1    0    0    0    0  0.00000000000E+00  0.00000000000E+00  0.75863363862E+03  0.75863363862E+03  0.00000000000E+00 0. -1.
         22   -1    0    0    0    0 -0.00000000000E+00 -0.00000000000E+00 -0.11530280721E+04  0.11530280721E+04  0.00000000000E+00 0.  1.
        -24    2    1    2    0    0  0.26761065124E+02 -0.14987393654E+03 -0.97030249200E+03  0.98526859823E+03  0.78031616773E+02 0.  0.
         25    2    1    2    0    0 -0.67262857005E+02  0.23179868965E+03 -0.60311797439E+02  0.27846045916E+03  0.12509112658E+03 0.  0.
         24    2    1    2    0    0  0.40501791881E+02 -0.81924753112E+02  0.63621985596E+03  0.64793265333E+03  0.81786049027E+02 0.  0.
        -11    1    5    5    0    0  0.19867862166E+02 -0.87940153077E+01  0.30400301075E+02  0.37366361312E+02  0.00000000000E+00 0.  1.
         12    1    5    5    0    0  0.20633929715E+02 -0.73130737805E+02  0.60581955488E+03  0.61056629201E+03  0.00000000000E+00 0. -1.
         11    1    3    3    0    0  0.10968893345E+02  0.69102425129E+01 -0.55526467370E+02  0.57019791752E+02  0.00000000000E+00 0. -1.
        -12    1    3    3    0    0  0.15792171779E+02 -0.15678417905E+03 -0.91477602463E+03  0.92824880648E+03  0.00000000000E+00 0.  1.
          5    1    4    4  501    0 -0.17763362965E+02  0.17844012544E+03  0.66192736335E+01  0.17949290407E+03  0.41800000000E+01 0.  1.
         -5    1    4    4    0  501 -0.49499494040E+02  0.53358564217E+02 -0.66931071072E+02  0.98967555090E+02  0.41800000000E+01 0.  1.
</event>
<event>
11    1  0.1078607E-008  0.1812567E+03  0.7561462E-02  0.1068631E+00
         22   -1    0    0    0    0  0.00000000000E+00  0.00000000000E+00  0.10612995375E+04  0.10612995375E+04  0.00000000000E+00 0.  1.
         22   -1    0    0    0    0 -0.00000000000E+00 -0.00000000000E+00 -0.18566547875E+04  0.18566547875E+04  0.00000000000E+00 0.  1.
        -24    2    1    2    0    0  0.84883106189E+01  0.66878168341E+02 -0.13996031287E+04  0.14035611263E+04  0.80933162783E+02 0.  0.
         25    2    1    2    0    0  0.64375074884E+02 -0.17519721749E+03 -0.42133528285E+03  0.47750204609E+03  0.12508624289E+03 0.  0.
         24    2    1    2    0    0 -0.72863385503E+02  0.10831904915E+03  0.10255831615E+04  0.10368911525E+04  0.79248669841E+02 0.  0.
        -11    1    5    5    0    0 -0.48569120848E+02  0.79806974865E+02  0.92239862691E+03  0.92711775933E+03  0.00000000000E+00 0.  1.
         12    1    5    5    0    0 -0.24294264655E+02  0.28512074281E+02  0.10318453461E+03  0.10977339322E+03  0.00000000000E+00 0. -1.
         11    1    3    3    0    0  0.22905834263E+02 -0.10407622690E+02 -0.24638673376E+03  0.24766796004E+03  0.00000000000E+00 0. -1.
        -12    1    3    3    0    0 -0.14417523644E+02  0.77285791030E+02 -0.11532163949E+04  0.11558931663E+04  0.00000000000E+00 0.  1.
          5    1    4    4  501    0  0.67730227713E+02 -0.64744335982E+02 -0.29527349425E+03  0.30981142909E+03  0.41800000000E+01 0.  1.
         -5    1    4    4    0  501 -0.33551528289E+01 -0.11045288151E+03 -0.12606178860E+03  0.16769061699E+03  0.41800000000E+01 0.  1.
</event>
<event>
11    1  0.1078607E-008  0.1716276E+03  0.7561462E-02  0.1076624E+00
         22   -1    0    0    0    0  0.00000000000E+00  0.00000000000E+00  0.44163481315E+03  0.44163481315E+03  0.00000000000E+00 0.  1.
         22   -1    0    0    0    0 -0.00000000000E+00 -0.00000000000E+00 -0.76619576816E+03  0.76619576816E+03  0.00000000000E+00 0.  1.
        -24    2    1    2    0    0  0.11417739015E+03 -0.25675531747E+02 -0.70348241211E+03  0.71763083378E+03  0.80067472100E+02 0.  0.
         25    2    1    2    0    0 -0.12589810567E+03  0.26329215094E+02  0.11273538454E+03  0.21189554605E+03  0.12508754906E+03 0.  0.
         24    2    1    2    0    0  0.11720715518E+02 -0.65368334730E+00  0.26618607256E+03  0.27830420148E+03  0.80376618886E+02 0.  0.
        -11    1    5    5    0    0  0.94828672590E+01 -0.17615133177E+01  0.27189867638E+03  0.27206969313E+03  0.00000000000E+00 0.  1.
         12    1    5    5    0    0  0.22378482592E+01  0.11078299704E+01 -0.57126038183E+01  0.62345083575E+01  0.00000000000E+00 0. -1.
         13    1    3    3    0    0  0.18857390875E+02  0.10962548752E+01 -0.22011968068E+02  0.29005683988E+02  0.00000000000E+00 0. -1.
        -14    1    3    3    0    0  0.95319999275E+02 -0.26771786622E+02 -0.68147044404E+03  0.68862514979E+03  0.00000000000E+00 0.  1.
          5    1    4    4  501    0 -0.11469749481E+03  0.65415599614E+02  0.59786231747E+02  0.14500545471E+03  0.41800000000E+01 0.  1.
         -5    1    4    4    0  501 -0.11200610857E+02 -0.39086384520E+02  0.52949152789E+02  0.66890091340E+02  0.41800000000E+01 0.  1.
</event>
<event>
11    1  0.1078607E-008  0.3097602E+03  0.7561462E-02  0.9961431E-01
         22   -1    0    0    0    0  0.00000000000E+00  0.00000000000E+00  0.38846890111E+03  0.38846890111E+03  0.00000000000E+00 0. -1.
         22   -1    0    0    0    0 -0.00000000000E+00 -0.00000000000E+00 -0.16445873991E+04  0.16445873991E+04  0.00000000000E+00 0.  1.
         24    2    1    2    0    0 -0.22886821811E+03  0.10828831233E+03 -0.82962258207E+03  0.87053431579E+03  0.73819688642E+02 0.  0.
         25    2    1    2    0    0  0.42966246814E+02  0.13262274748E+03 -0.71253330510E+03  0.73673225536E+03  0.12504324734E+03 0.  0.
        -24    2    1    2    0    0  0.18590197129E+03 -0.24091105981E+03  0.28603738914E+03  0.42578972910E+03  0.82956758340E+02 0.  0.
        -13    1    3    3    0    0 -0.85131381497E+02  0.70308698033E+02 -0.43624912978E+03  0.45000440928E+03  0.00000000000E+00 0.  1.
         14    1    3    3    0    0 -0.14373683661E+03  0.37979614294E+02 -0.39337345229E+03  0.42052990651E+03  0.00000000000E+00 0. -1.
         11    1    5    5    0    0  0.17724367543E+03 -0.17722595902E+03  0.23692032173E+03  0.34489940545E+03  0.00000000000E+00 0. -1.
        -12    1    5    5    0    0  0.86582958644E+01 -0.63685100791E+02  0.49117067406E+02  0.80890323653E+02  0.00000000000E+00 0.  1.
          5    1    4    4  501    0  0.17273563429E+02  0.12929684515E+03 -0.68972205154E+03  0.70196155944E+03  0.41800000000E+01 0. -1.
         -5    1    4    4    0  501  0.25692683384E+02  0.33259023291E+01 -0.22811253561E+02  0.34770695921E+02  0.41800000000E+01 0. -1.
</event>
<event>
11    1  0.1078607E-008  0.1429544E+03  0.7561462E-02  0.1104303E+00
         22   -1    0    0    0    0  0.00000000000E+00  0.00000000000E+00  0.37377604951E+03  0.37377604951E+03  0.00000000000E+00 0.  1.
         22   -1    0    0    0    0 -0.00000000000E+00 -0.00000000000E+00 -0.31632448147E+03  0.31632448147E+03  0.00000000000E+00 0. -1.
         24    2    1    2    0    0 -0.22479749357E+02  0.16200623609E+02 -0.11239931595E+03  0.13764519598E+03  0.74463376318E+02 0.  0.
         25    2    1    2    0    0  0.76669690327E+02 -0.57228357396E+02 -0.14895584822E+03  0.21677105874E+03  0.12509404815E+03 0.  0.
        -24    2    1    2    0    0 -0.54189940970E+02  0.41027733787E+02  0.31880673221E+03  0.33568427627E+03  0.80164681677E+02 0.  0.
        -13    1    3    3    0    0  0.17912675726E+02  0.29733374019E+02 -0.34982071964E+02  0.49281668409E+02  0.00000000000E+00 0.  1.
         14    1    3    3    0    0 -0.40392425083E+02 -0.13532750410E+02 -0.77417243985E+02  0.88363527567E+02  0.00000000000E+00 0. -1.
         11    1    5    5    0    0 -0.54479101552E+02 -0.42817644191E+01  0.12121307660E+03  0.13296208464E+03  0.00000000000E+00 0. -1.
        -12    1    5    5    0    0  0.28916058105E+00  0.45309498206E+02  0.19759365561E+03  0.20272219163E+03  0.00000000000E+00 0.  1.
          5    1    4    4  501    0  0.49824887514E+02  0.22245265686E+02 -0.11863322620E+02  0.55996268490E+02  0.41800000000E+01 0. -1.
         -5    1    4    4    0  501  0.26844802813E+02 -0.79473623082E+02 -0.13709252560E+03  0.16077479025E+03  0.41800000000E+01 0. -1.
</event>
<event>
11    1  0.1078607E-008  0.1274561E+03  0.7561462E-02  0.1122435E+00
         22   -1    0    0    0    0  0.00000000000E+00  0.00000000000E+00  0.94570381605E+02  0.94570381605E+02  0.00000000000E+00 0. -1.
         22   -1    0    0    0    0 -0.00000000000E+00 -0.00000000000E+00 -0.17634917853E+04  0.17634917853E+04  0.00000000000E+00 0.  1.
        -24    2    1    2    0    0  0.22402920776E+02 -0.74911339398E+00 -0.82520390925E+03  0.82929206083E+03  0.79128871373E+02 0.  0.
         25    2    1    2    0    0 -0.20555812037E+01 -0.13619439769E+02 -0.91270125544E+03  0.92133427344E+03  0.12507416670E+03 0.  0.
         24    2    1    2    0    0 -0.20347339572E+02  0.14368553163E+02  0.68983760969E+02  0.10743583266E+03  0.78506237425E+02 0.  0.
        -13    1    5    5    0    0 -0.39895557604E+02  0.18881798005E+01  0.60896383423E+01  0.40401787517E+02  0.00000000000E+00 0.  1.
         14    1    5    5    0    0  0.19548218031E+02  0.12480373363E+02  0.62894122627E+02  0.67034045145E+02  0.00000000000E+00 0. -1.
         11    1    3    3    0    0  0.92285503273E+01  0.34078361241E+02 -0.20874962218E+03  0.21171420738E+03  0.00000000000E+00 0. -1.
        -12    1    3    3    0    0  0.13174370449E+02 -0.34827474635E+02 -0.61645428707E+03  0.61757785345E+03  0.00000000000E+00 0.  1.
          5    1    4    4  501    0 -0.92447273790E+01  0.52911183115E+02 -0.28374876204E+03  0.28881809266E+03  0.41800000000E+01 0. -1.
         -5    1    4    4    0  501  0.71891461753E+01 -0.66530622885E+02 -0.62895249339E+03  0.63251618078E+03  0.41800000000E+01 0. -1.
</event>
<event>
11    1  0.1078607E-008  0.4019258E+03  0.7561462E-02  0.9644093E-01
         22   -1    0    0    0    0  0.00000000000E+00  0.00000000000E+00  0.12181545368E+04  0.12181545368E+04  0.00000000000E+00 0. -1.
         22   -1    0    0    0    0 -0.00000000000E+00 -0.00000000000E+00 -0.25513586750E+03  0.25513586750E+03  0.00000000000E+00 0. -1.
         24    2    1    2    0    0  0.70979480334E+02  0.12432562528E+02 -0.34852204953E+02  0.10746266825E+03  0.71700025372E+02 0.  0.
         25    2    1    2    0    0  0.64936051963E+02 -0.37241737955E+03  0.14233085977E+03  0.42286648752E+03  0.12508635891E+03 0.  0.
        -24    2    1    2    0    0 -0.13591553230E+03  0.35998481702E+03  0.85554001446E+03  0.94296124850E+03  0.95734525845E+02 0.  0.
        -13    1    3    3    0    0  0.32599724922E+02 -0.22798569575E+02 -0.38338046681E+02  0.55247829486E+02  0.00000000000E+00 0.  1.
         14    1    3    3    0    0  0.38379755412E+02  0.35231132104E+02  0.34858417279E+01  0.52214838766E+02  0.00000000000E+00 0. -1.
         13    1    5    5    0    0 -0.14816444374E+03  0.30620922579E+03  0.75974591714E+03  0.83242456172E+03  0.00000000000E+00 0. -1.
        -14    1    5    5    0    0  0.12248911448E+02  0.53775591226E+02  0.95794097317E+02  0.11053668678E+03  0.00000000000E+00 0.  1.
          5    1    4    4  501    0  0.47967937332E+02 -0.19183045125E+03  0.95007350561E+01  0.19800904375E+03  0.41800000000E+01 0.  1.
         -5    1    4    4    0  501  0.16968114631E+02 -0.18058692830E+03  0.13283012472E+03  0.22485744377E+03  0.41800000000E+01 0.  1.
</event>
<event>
11    1  0.1078607E-008  0.1469100E+03  0.7561462E-02  0.1100079E+00
         22   -1    0    0    0    0  0.00000000000E+00  0.00000000000E+00  0.20791813442E+03  0.20791813442E+03  0.00000000000E+00 0. -1.
         22   -1    0    0    0    0 -0.00000000000E+00 -0.00000000000E+00 -0.53387113495E+03  0.53387113495E+03  0.00000000000E+00 0.  1.
         24    2    1    2    0    0 -0.50981651554E+02  0.58724820603E+02 -0.26516640167E+03  0.28773258615E+03  0.80181588949E+02 0.  0.
         25    2    1    2    0    0  0.28192390550E+02 -0.73554203466E+02 -0.22529123398E+03  0.26945916917E+03  0.12508825688E+03 0.  0.
        -24    2    1    2    0    0  0.22789261004E+02  0.14829382862E+02  0.16450463512E+03  0.18459751405E+03  0.79216199123E+02 0.  0.
        -13    1    3    3    0    0 -0.64919652268E+02  0.22209400898E+02 -0.20317959870E+03  0.21445225125E+03  0.00000000000E+00 0.  1.
         14    1    3    3    0    0  0.13938000713E+02  0.36515419706E+02 -0.61986802977E+02  0.73280334903E+02  0.00000000000E+00 0. -1.
         11    1    5    5    0    0  0.22896597110E+02  0.38795105876E+02  0.14992189996E+03  0.15654357377E+03  0.00000000000E+00 0. -1.
        -12    1    5    5    0    0 -0.10733610621E+00 -0.23965723014E+02  0.14582735157E+02  0.28053940281E+02  0.00000000000E+00 0.  1.
          5    1    4    4  501    0  0.40451943183E+02 -0.94262581689E+02 -0.22228841628E+03  0.24484976297E+03  0.41800000000E+01 0. -1.
         -5    1    4    4    0  501 -0.12259552633E+02  0.20708378223E+02 -0.30028176973E+01  0.24609406200E+02  0.41800000000E+01 0. -1.
</event>
<event>
11    1  0.1078607E-008  0.1267742E+03  0.7561462E-02  0.1123297E+00
         22   -1    0    0    0    0  0.00000000000E+00  0.00000000000E+00  0.13487115713E+03  0.13487115713E+03  0.00000000000E+00 0. -1.
         22   -1    0    0    0    0 -0.00000000000E+00 -0.00000000000E+00 -0.53819562288E+03  0.53819562288E+03  0.00000000000E+00 0. -1.
         24    2    1    2    0    0 -0.14583937057E+02 -0.16934420096E+02 -0.41806796607E+03  0.42643621716E+03  0.81040466753E+02 0.  0.
         25    2    1    2    0    0  0.96434312437E+01 -0.48045888901E+01 -0.57902242553E+02  0.13827358370E+03  0.12510329498E+03 0.  0.
        -24    2    1    2    0    0  0.49405058135E+01  0.21739008986E+02  0.72645742874E+02  0.10835697915E+03  0.77245309648E+02 0.  0.
        -13    1    3    3    0    0  0.18078778895E+02 -0.18203984726E+02 -0.43930268605E+02  0.50873330989E+02  0.00000000000E+00 0.  1.
         14    1    3    3    0    0 -0.32662715952E+02  0.12695646300E+01 -0.37413769746E+03  0.37556288617E+03  0.00000000000E+00 0. -1.
         11    1    5    5    0    0 -0.47802938115E+01  0.41466234100E+02  0.75410264907E+02  0.86191692365E+02  0.00000000000E+00 0. -1.
        -12    1    5    5    0    0  0.97207996249E+01 -0.19727225114E+02 -0.27645220325E+01  0.22165286782E+02  0.00000000000E+00 0.  1.
          5    1    4    4  501    0 -0.46866752710E+02 -0.36166769029E+02 -0.17230717749E+02  0.61797230729E+02  0.41800000000E+01 0. -1.
         -5    1    4    4    0  501  0.56510183954E+02  0.31362180139E+02 -0.40671524804E+02  0.76476352969E+02  0.41800000000E+01 0. -1.
</event>
<event>
11    1  0.1078607E-008  0.1404791E+03  0.7561462E-02  0.1107025E+00
         22   -1    0    0    0    0  0.00000000000E+00  0.00000000000E+00  0.10657203449E+03  0.10657203449E+03  0.00000000000E+00 0.  1.
         22   -1    0    0    0    0 -0.00000000000E+00 -0.00000000000E+00 -0.52241895798E+03  0.52241895798E+03  0.00000000000E+00 0.  1.
        -24    2    1    2    0    0 -0.41182550139E+02  0.45143991522E+02 -0.36792851336E+03  0.38147880356E+03  0.80129296864E+02 0.  0.
         25    2    1    2    0    0  0.45321404351E+02 -0.76513391003E+02 -0.51098666662E+02  0.16174574274E+03  0.12506911236E+03 0.  0.
         24    2    1    2    0    0 -0.41388542120E+01  0.31369399481E+02  0.31802565371E+01  0.85766446168E+02  0.79652996922E+02 0.  0.
        -11    1    5    5    0    0 -0.16897274805E+02  0.13590009659E+02  0.38517572603E+02  0.44201919162E+02  0.00000000000E+00 0.  1.
         12    1    5    5    0    0  0.12758420593E+02  0.17779389822E+02 -0.35337316066E+02  0.41564527006E+02  0.00000000000E+00 0. -1.
         13    1    3    3    0    0  0.79142438820E+01  0.28554534685E+00 -0.20960905606E+03  0.20975860691E+03  0.00000000000E+00 0. -1.
        -14    1    3    3    0    0 -0.49096794021E+02  0.44858446175E+02 -0.15831945731E+03  0.17172019665E+03  0.00000000000E+00 0.  1.
          5    1    4    4  501    0  0.74401899845E+01 -0.90451696944E+02 -0.72162300192E+02  0.11602472097E+03  0.41800000000E+01 0. -1.
         -5    1    4    4    0  501  0.37881214366E+02  0.13938305941E+02  0.21063633530E+02  0.45721021772E+02  0.41800000000E+01 0. -1.
</event>
<event>
11    1  0.1078607E-008  0.1799378E+03  0.7561462E-02  0.1069693E+00
         22   -1    0    0    0    0  0.00000000000E+00  0.00000000000E+00  0.63609251384E+03  0.63609251384E+03  0.00000000000E+00 0. -1.
         22   -1    0    0    0    0 -0.00000000000E+00 -0.00000000000E+00 -0.52280547091E+03  0.52280547091E+03  0.00000000000E+00 0. -1.
        -24    2    1    2    0    0 -0.92908792463E+01  0.10180555469E+03 -0.36228583613E+03  0.38511199014E+03  0.81298994385E+02 0.  0.
         25    2    1    2    0    0 -0.44296523550E+02 -0.21241348933E+03 -0.24797410602E+02  0.25168288538E+03  0.12509073016E+03 0.  0.
         24    2    1    2    0    0  0.53587402796E+02  0.11060793464E+03  0.50037028966E+03  0.52210310924E+03  0.84353452565E+02 0.  0.
        -13    1    5    5    0    0  0.13561326271E+01 -0.11368433108E+02  0.92172007499E+02  0.92880349555E+02  0.00000000000E+00 0.  1.
         14    1    5    5    0    0  0.52231270169E+02  0.12197636775E+03  0.40819828216E+03  0.42922275968E+03  0.00000000000E+00 0. -1.
         13    1    3    3    0    0  0.12898927524E+02  0.92745973577E+02 -0.33900101773E+03  0.35169573209E+03  0.00000000000E+00 0. -1.
        -14    1    3    3    0    0 -0.22189806770E+02  0.90595811159E+01 -0.23284818396E+02  0.33416258053E+02  0.00000000000E+00 0.  1.
          5    1    4    4  501    0 -0.56476595432E+02 -0.21232701961E+03 -0.48197860205E+02  0.22497305442E+03  0.41800000000E+01 0.  1.
         -5    1    4    4    0  501  0.12180071882E+02 -0.86469722285E-01  0.23400449603E+02  0.26709830955E+02  0.41800000000E+01 0.  1.
</event>
<event>
11    1  0.1078607E-008  0.1485833E+03  0.7561462E-02  0.1098335E+00
         22   -1    0    0    0    0  0.00000000000E+00  0.00000000000E+00  0.19244980476E+03  0.19244980476E+03  0.00000000000E+00 0.  1.
         22   -1    0    0    0    0 -0.00000000000E+00 -0.00000000000E+00 -0.52179105041E+03  0.52179105041E+03  0.00000000000E+00 0. -1.
         24    2    1    2    0    0 -0.41668257269E+02 -0.75063441231E+02 -0.41196712585E+03  0.42820618909E+03  0.79201412383E+02 0.  0.
         25    2    1    2    0    0 -0.26335165734E+02  0.57529360554E+02 -0.25847986061E+02  0.14254047352E+03  0.12508597015E+03 0.  0.
        -24    2    1    2    0    0  0.68003423004E+02  0.17534080677E+02  0.10847386626E+03  0.14349419256E+03  0.62386650099E+02 0.  0.
        -11    1    3    3    0    0 -0.37532567059E+01  0.68670141195E+01 -0.15507092574E+01  0.79779394595E+01  0.00000000000E+00 0.  1.
         12    1    3    3    0    0 -0.37915000563E+02 -0.81930455351E+02 -0.41041641659E+03  0.42022824963E+03  0.00000000000E+00 0. -1.
         11    1    5    5    0    0  0.49058152660E+02  0.36079643580E+02  0.48256073626E+02  0.77698723703E+02  0.00000000000E+00 0. -1.
        -12    1    5    5    0    0  0.18945270344E+02 -0.18545562903E+02  0.60217792638E+02  0.65795468857E+02  0.00000000000E+00 0.  1.
          5    1    4    4  501    0 -0.51211344582E+02  0.36270918423E+02  0.35983024635E+02  0.72459863366E+02  0.41800000000E+01 0.  1.
         -5    1    4    4    0  501  0.24876178847E+02  0.21258442131E+02 -0.61831010696E+02  0.70080610154E+02  0.41800000000E+01 0.  1.
</event>
<event>
11    1  0.1078607E-008  0.1570569E+03  0.7561462E-02  0.1089879E+00
         22   -1    0    0    0    0  0.00000000000E+00  0.00000000000E+00  0.36951647164E+03  0.36951647164E+03  0.00000000000E+00 0.  1.
         22   -1    0    0    0    0 -0.00000000000E+00 -0.00000000000E+00 -0.38187240271E+03  0.38187240271E+03  0.00000000000E+00 0.  1.
         24    2    1    2    0    0  0.35722827254E+02  0.61345780564E+01 -0.22064224622E+03  0.23735629882E+03  0.79632018293E+02 0.  0.
         25    2    1    2    0    0 -0.24800435771E+02 -0.10027745942E+03 -0.93873546424E+02  0.18742783981E+03  0.12508525867E+03 0.  0.
        -24    2    1    2    0    0 -0.10922391483E+02  0.94142881364E+02  0.30215986157E+03  0.32660473572E+03  0.79924281062E+02 0.  0.
        -11    1    3    3    0    0  0.51637042185E+02 -0.13857532370E+01 -0.21111289379E+03  0.21734065051E+03  0.00000000000E+00 0.  1.
         12    1    3    3    0    0 -0.15914214931E+02  0.75203312934E+01 -0.95293524268E+01  0.20015648311E+02  0.00000000000E+00 0. -1.
         13    1    5    5    0    0 -0.28029729534E+02  0.11202803141E+02  0.34370699029E+02  0.45743999472E+02  0.00000000000E+00 0. -1.
        -14    1    5    5    0    0  0.17107338052E+02  0.82940078223E+02  0.26778916254E+03  0.28086073625E+03  0.00000000000E+00 0.  1.
          5    1    4    4  501    0 -0.46018412090E+02 -0.48975705207E+02 -0.11043494905E+03  0.12934320362E+03  0.41800000000E+01 0.  1.
         -5    1    4    4    0  501  0.21217976318E+02 -0.51301754213E+02  0.16561402627E+02  0.58084636190E+02  0.41800000000E+01 0.  1.
</event>
<event>
11    1  0.1078607E-008  0.1928519E+03  0.7561462E-02  0.1059697E+00
         22   -1    0    0    0    0  0.00000000000E+00  0.00000000000E+00  0.13052096134E+04  0.13052096134E+04  0.00000000000E+00 0. -1.
         22   -1    0    0    0    0 -0.00000000000E+00 -0.00000000000E+00 -0.22768829844E+03  0.22768829844E+03  0.00000000000E+00 0. -1.
        -24    2    1    2    0    0  0.18646907106E+02  0.15391593726E+03 -0.15358992363E+03  0.23262306885E+03  0.80534493437E+02 0.  0.
         25    2    1    2    0    0 -0.43764380518E+00 -0.10448564862E+03  0.17297056292E+03  0.23766267212E+03  0.12508911937E+03 0.  0.
         24    2    1    2    0    0 -0.18209263301E+02 -0.49430288647E+02  0.10581406757E+04  0.10626121709E+04  0.81902414234E+02 0.  0.
        -13    1    5    5    0    0 -0.21303128543E+02 -0.13778669055E+02  0.82443125438E+02  0.86258587623E+02  0.00000000000E+00 0.  1.
         14    1    5    5    0    0  0.30938652424E+01 -0.35651619592E+02  0.97569755023E+03  0.97635358324E+03  0.00000000000E+00 0. -1.
         13    1    3    3    0    0  0.38262263397E+02  0.13106613150E+03 -0.14910804051E+03  0.20217700011E+03  0.00000000000E+00 0. -1.
        -14    1    3    3    0    0 -0.19615356291E+02  0.22849805761E+02 -0.44818831203E+01  0.30446068746E+02  0.00000000000E+00 0.  1.
          5    1    4    4  501    0  0.24810637043E+02 -0.10717084968E+02  0.12741775415E+03  0.13031953074E+03  0.41800000000E+01 0. -1.
         -5    1    4    4    0  501 -0.25248280848E+02 -0.93768563647E+02  0.45552808774E+02  0.10734314138E+03  0.41800000000E+01 0. -1.
</event>
<event>
11    1  0.1078607E-008  0.1809553E+03  0.7561462E-02  0.1068873E+00
         22   -1    0    0    0    0  0.00000000000E+00  0.00000000000E+00  0.13408367794E+03  0.13408367794E+03  0.00000000000E+00 0.  1.
         22   -1    0    0    0    0 -0.00000000000E+00 -0.00000000000E+00 -0.58632040993E+03  0.58632040993E+03  0.00000000000E+00 0.  1.
        -24    2    1    2    0    0 -0.31114888314E+01 -0.41029677343E+02 -0.31828313136E+03  0.33108052246E+03  0.81345220253E+02 0.  0.
         25    2    1    2    0    0  0.12883694617E+03  0.60947807068E+02 -0.13243630444E+03  0.23130050884E+03  0.12508779625E+03 0.  0.
         24    2    1    2    0    0 -0.12572545733E+03 -0.19918129725E+02 -0.15172961846E+01  0.15802305656E+03  0.93623510420E+02 0.  0.
        -11    1    5    5    0    0 -0.10869011070E+03 -0.41591968570E+02  0.25812539627E+02  0.11920452683E+03  0.00000000000E+00 0.  1.
         12    1    5    5    0    0 -0.17035346631E+02  0.21673838845E+02 -0.27329835812E+02  0.38818529733E+02  0.00000000000E+00 0. -1.
         13    1    3    3    0    0  0.26487419938E+02 -0.41351121273E+02 -0.10695914137E+03  0.11769348567E+03  0.00000000000E+00 0. -1.
        -14    1    3    3    0    0 -0.29598908769E+02  0.32144392910E+00 -0.21132398999E+03  0.21338703679E+03  0.00000000000E+00 0.  1.
          5    1    4    4  501    0  0.38409261504E+02 -0.37590527411E+02 -0.53485845474E+02  0.75937653285E+02  0.41800000000E+01 0. -1.
         -5    1    4    4    0  501  0.90427684661E+02  0.98538334479E+02 -0.78950458970E+02  0.15536285556E+03  0.41800000000E+01 0. -1.
</event>
<event>
11    1  0.1078607E-008  0.1437618E+03  0.7561462E-02  0.1103429E+00
         22   -1    0    0    0    0  0.00000000000E+00  0.00000000000E+00  0.18645123487E+03  0.18645123487E+03  0.00000000000E+00 0.  1.
         22   -1    0    0    0    0 -0.00000000000E+00 -0.00000000000E+00 -0.70131676944E+03  0.70131676944E+03  0.00000000000E+00 0.  1.
        -24    2    1    2    0    0 -0.30386248303E+02 -0.20667353065E+02 -0.60682932440E+03  0.61337755623E+03  0.81484562749E+02 0.  0.
         25    2    1    2    0    0  0.29609940287E+02  0.84319994942E+02  0.32994470396E+02  0.15725554331E+03  0.12511618886E+03 0.  0.
         24    2    1    2    0    0  0.77630801592E+00 -0.63652641876E+02  0.58969319433E+02  0.11713490477E+03  0.78682550859E+02 0.  0.
        -13    1    5    5    0    0 -0.24992235999E+02 -0.66815296091E+02  0.27781272822E+02  0.76555174689E+02  0.00000000000E+00 0.  1.
         14    1    5    5    0    0  0.25768544014E+02  0.31626542149E+01  0.31188046611E+02  0.40579730084E+02  0.00000000000E+00 0. -1.
         11    1    3    3    0    0  0.25239442989E+02 -0.72270309720E+01 -0.10237830698E+03  0.10569095136E+03  0.00000000000E+00 0. -1.
        -12    1    3    3    0    0 -0.55625691292E+02 -0.13440322093E+02 -0.50445101742E+03  0.50768660487E+03  0.00000000000E+00 0.  1.
          5    1    4    4  501    0  0.53118725624E+02  0.35052330595E+02 -0.32753251759E+02  0.71697369497E+02  0.41800000000E+01 0. -1.
         -5    1    4    4    0  501 -0.23508785337E+02  0.49267664347E+02  0.65747722155E+02  0.85558173816E+02  0.41800000000E+01 0. -1.
</event>
<event>
11    1  0.1078607E-008  0.1429013E+03  0.7561462E-02  0.1104361E+00
         22   -1    0    0    0    0  0.00000000000E+00  0.00000000000E+00  0.27346070876E+04  0.27346070876E+04  0.00000000000E+00 0. -1.
         22   -1    0    0    0    0 -0.00000000000E+00 -0.00000000000E+00 -0.19540259729E+03  0.19540259729E+03  0.00000000000E+00 0.  1.
         24    2    1    2    0    0 -0.35357401472E+02 -0.16050683904E+02 -0.14144823384E+03  0.16736570245E+03  0.80597178644E+02 0.  0.
         25    2    1    2    0    0 -0.20873846389E+02  0.57079795926E+02  0.81478278644E+02  0.16118584930E+03  0.12509335537E+03 0.  0.
        -24    2    1    2    0    0  0.56231247861E+02 -0.41029112022E+02  0.25991744455E+04  0.26014581332E+04  0.83852722811E+02 0.  0.
        -11    1    3    3    0    0 -0.11955557576E+02 -0.32276959301E+02 -0.13340612310E+03  0.13777492929E+03  0.00000000000E+00 0.  1.
         12    1    3    3    0    0 -0.23401843896E+02  0.16226275398E+02 -0.80421107407E+01  0.29590773160E+02  0.00000000000E+00 0. -1.
         13    1    5    5    0    0 -0.10177704726E+02  0.11017955242E+02  0.95700970654E+03  0.95712724307E+03  0.00000000000E+00 0. -1.
        -14    1    5    5    0    0  0.66408952586E+02 -0.52047067264E+02  0.16421647390E+04  0.16443308901E+04  0.00000000000E+00 0.  1.
          5    1    4    4  501    0  0.60127094670E+01 -0.35217471331E+02  0.13978441337E+01  0.35997907304E+02  0.41800000000E+01 0. -1.
         -5    1    4    4    0  501 -0.26886555856E+02  0.92297267257E+02  0.80080434511E+02  0.12518794199E+03  0.41800000000E+01 0. -1.
</event>
<event>
11    1  0.1078607E-008  0.1367815E+03  0.7561462E-02  0.1111207E+00
         22   -1    0    0    0    0  0.00000000000E+00  0.00000000000E+00  0.17143235837E+04  0.17143235837E+04  0.00000000000E+00 0. -1.
         22   -1    0    0    0    0 -0.00000000000E+00 -0.00000000000E+00 -0.58367727986E+03  0.58367727986E+03  0.00000000000E+00 0.  1.
         24    2    1    2    0    0  0.58507905252E+02  0.39873236144E+01 -0.55024659319E+03  0.55923500283E+03  0.80829458409E+02 0.  0.
         25    2    1    2    0    0 -0.96103152188E+01 -0.35216706577E+02  0.12842321127E+03  0.18295497900E+03  0.12508968210E+03 0.  0.
        -24    2    1    2    0    0 -0.48897590033E+02  0.31229382963E+02  0.15524696857E+04  0.15558108817E+04  0.83780223478E+02 0.  0.
        -13    1    3    3    0    0  0.11869260277E+02  0.39497915422E+02 -0.22621098601E+03  0.22993993749E+03  0.00000000000E+00 0.  1.
         14    1    3    3    0    0  0.46638644975E+02 -0.35510591807E+02 -0.32403560718E+03  0.32929506533E+03  0.00000000000E+00 0. -1.
         13    1    5    5    0    0 -0.19476207759E+02  0.50407454395E+02  0.12725150964E+04  0.12736620057E+04  0.00000000000E+00 0. -1.
        -14    1    5    5    0    0 -0.29421382274E+02 -0.19178071432E+02  0.27995458930E+03  0.28214887600E+03  0.00000000000E+00 0.  1.
          5    1    4    4  501    0  0.47108370540E+02 -0.43638937708E+02  0.99757417688E+02  0.11871213183E+03  0.41800000000E+01 0.  1.
         -5    1    4    4    0  501 -0.56718685759E+02  0.84222311314E+01  0.28665793585E+02  0.64242847176E+02  0.41800000000E+01 0.  1.
</event>
<event>
11    1  0.1078607E-008  0.4998216E+03  0.7561462E-02  0.9393920E-01
         22   -1    0    0    0    0  0.00000000000E+00  0.00000000000E+00  0.96108248243E+03  0.96108248243E+03  0.00000000000E+00 0.  1.
         22   -1    0    0    0    0 -0.00000000000E+00 -0.00000000000E+00 -0.17609627081E+04  0.17609627081E+04  0.00000000000E+00 0.  1.
        -24    2    1    2    0    0 -0.46631253171E+03 -0.98173411623E+01 -0.11447607370E+04  0.12386189271E+04  0.78459826032E+02 0.  0.
         25    2    1    2    0    0  0.53377234486E+03 -0.16773566366E+02 -0.43248214168E+03  0.69848563545E+03  0.12508841430E+03 0.  0.
         24    2    1    2    0    0 -0.67459813150E+02  0.26590907528E+02  0.77736265303E+03  0.78494062791E+03  0.81124547904E+02 0.  0.
        -13    1    5    5    0    0 -0.63065087827E+02 -0.16681590948E+02  0.48088331590E+03  0.48528779532E+03  0.00000000000E+00 0.  1.
         14    1    5    5    0    0 -0.43947253226E+01  0.43272498476E+02  0.29647933713E+03  0.29965283259E+03  0.00000000000E+00 0. -1.
         11    1    3    3    0    0 -0.84461720470E+01 -0.48867274968E+01 -0.65766646971E+02  0.66486613553E+02  0.00000000000E+00 0. -1.
        -12    1    3    3    0    0 -0.45786635966E+03 -0.49306136655E+01 -0.10789940900E+04  0.11721323136E+04  0.00000000000E+00 0.  1.
          5    1    4    4  501    0  0.50696773259E+03  0.87380187352E+01 -0.42228553954E+03  0.65987512770E+03  0.41800000000E+01 0.  1.
         -5    1    4    4    0  501  0.26804612274E+02 -0.25511585101E+02 -0.10196602143E+02  0.38610507751E+02  0.41800000000E+01 0.  1.
</event>
<event>
11    1  0.1078607E-008  0.1657338E+03  0.7561462E-02  0.1081805E+00
         22   -1    0    0    0    0  0.00000000000E+00  0.00000000000E+00  0.10307870224E+03  0.10307870224E+03  0.00000000000E+00 0.  1.
         22   -1    0    0    0    0 -0.00000000000E+00 -0.00000000000E+00 -0.15885508460E+04  0.15885508460E+04  0.00000000000E+00 0.  1.
         24    2    1    2    0    0  0.19446521482E+02 -0.30995020356E+02 -0.11774300722E+04  0.11810442121E+04  0.84764364429E+02 0.  0.
         25    2    1    2    0    0 -0.40796593127E+02  0.13276039558E+03 -0.32821587866E+03  0.37770729489E+03  0.12508977961E+03 0.  0.
        -24    2    1    2    0    0  0.21350071645E+02 -0.10176537522E+03  0.20173807153E+02  0.13287804122E+03  0.80234495015E+02 0.  0.
        -13    1    3    3    0    0  0.39101503708E+02 -0.45082058644E+02 -0.10223357338E+04  0.10240760090E+04  0.00000000000E+00 0.  1.
         14    1    3    3    0    0 -0.19654982226E+02  0.14087038287E+02 -0.15509433843E+03  0.15696820311E+03  0.00000000000E+00 0. -1.
         11    1    5    5    0    0 -0.17972282280E+02 -0.15756979296E+02 -0.18981316762E+02  0.30521725261E+02  0.00000000000E+00 0. -1.
        -12    1    5    5    0    0  0.39322353925E+02 -0.86008395929E+02  0.39155123916E+02  0.10235631596E+03  0.00000000000E+00 0.  1.
          5    1    4    4  501    0  0.36358554697E+02  0.14194139129E+02 -0.37086797064E+02  0.54002972157E+02  0.41800000000E+01 0.  1.
         -5    1    4    4    0  501 -0.77155147824E+02  0.11856625645E+03 -0.29112908160E+03  0.32370432273E+03  0.41800000000E+01 0.  1.
</event>
<event>
11    1  0.1078607E-008  0.1330954E+03  0.7561462E-02  0.1115523E+00
         22   -1    0    0    0    0  0.00000000000E+00  0.00000000000E+00  0.11006039727E+04  0.11006039727E+04  0.00000000000E+00 0.  1.
         22   -1    0    0    0    0 -0.00000000000E+00 -0.00000000000E+00 -0.83494590834E+03  0.83494590834E+03  0.00000000000E+00 0.  1.
         24    2    1    2    0    0  0.84332461679E+01  0.39312526637E+02 -0.76976186526E+03  0.77488231636E+03  0.79326418092E+02 0.  0.
         25    2    1    2    0    0  0.45749280160E+01 -0.81641835986E+02  0.31647649518E+02  0.15276451390E+03  0.12509637740E+03 0.  0.
        -24    2    1    2    0    0 -0.13008174184E+02  0.42329309350E+02  0.10037722801E+04  0.10079030508E+04  0.79679272325E+02 0.  0.
        -13    1    3    3    0    0  0.20379128681E+02  0.57121817074E+02 -0.67524841405E+03  0.67796654162E+03  0.00000000000E+00 0.  1.
         14    1    3    3    0    0 -0.11945882513E+02 -0.17809290437E+02 -0.94513451210E+02  0.96915774746E+02  0.00000000000E+00 0. -1.
         13    1    5    5    0    0  0.37430528980E+01  0.52696494698E+02  0.36260820023E+03  0.36643640359E+03  0.00000000000E+00 0. -1.
        -14    1    5    5    0    0 -0.16751227082E+02 -0.10367185348E+02  0.64116407991E+03  0.64146664723E+03  0.00000000000E+00 0.  1.
          5    1    4    4  501    0  0.29483075947E+01 -0.11501734057E+03  0.30349097290E+02  0.11906393768E+03  0.41800000000E+01 0. -1.
         -5    1    4    4    0  501  0.16266204213E+01  0.33375504581E+02  0.12985522279E+01  0.33700576225E+02  0.41800000000E+01 0. -1.
</event>
<event>
11    1  0.1078607E-008  0.1488751E+03  0.7561462E-02  0.1098034E+00
         22   -1    0    0    0    0  0.00000000000E+00  0.00000000000E+00  0.59177294966E+03  0.59177294966E+03  0.00000000000E+00 0.  1.
         22   -1    0    0    0    0 -0.00000000000E+00 -0.00000000000E+00 -0.85716830469E+03  0.85716830469E+03  0.00000000000E+00 0. -1.
         24    2    1    2    0    0 -0.31435807316E+02  0.73765312140E+02 -0.78700105601E+03  0.79520433733E+03  0.80930492985E+02 0.  0.
         25    2    1    2    0    0 -0.14064897606E+01 -0.10362492929E+03  0.49621954473E+02  0.16985239954E+03  0.12508954824E+03 0.  0.
        -24    2    1    2    0    0  0.32842297077E+02  0.29859617152E+02  0.47198374651E+03  0.48388451749E+03  0.96981215122E+02 0.  0.
        -13    1    3    3    0    0  0.18439418431E+02 -0.21897358269E+01 -0.23905898653E+03  0.23977907777E+03  0.00000000000E+00 0.  1.
         14    1    3    3    0    0 -0.49875225747E+02  0.75955047967E+02 -0.54794206947E+03  0.55542525956E+03  0.00000000000E+00 0. -1.
         13    1    5    5    0    0 -0.10340088991E+02  0.14042391092E+02  0.11012041730E+02  0.20624530322E+02  0.00000000000E+00 0. -1.
        -14    1    5    5    0    0  0.43182386068E+02  0.15817226060E+02  0.46097170477E+03  0.46325998717E+03  0.00000000000E+00 0.  1.
          5    1    4    4  501    0  0.83500113048E+01 -0.33712784496E+02 -0.41650577238E+02  0.54392255989E+02  0.41800000000E+01 0. -1.
         -5    1    4    4    0  501 -0.97565010655E+01 -0.69912144796E+02  0.91272531711E+02  0.11546014355E+03  0.41800000000E+01 0. -1.
</event>
<event>
11    1  0.1078607E-008  0.1440439E+03  0.7561462E-02  0.1103125E+00
         22   -1    0    0    0    0  0.00000000000E+00  0.00000000000E+00  0.39550785005E+03  0.39550785005E+03  0.00000000000E+00 0.  1.
         22   -1    0    0    0    0 -0.00000000000E+00 -0.00000000000E+00 -0.15820449578E+04  0.15820449578E+04  0.00000000000E+00 0. -1.
         24    2    1    2    0    0 -0.67209563014E+02 -0.26584825028E+02 -0.14606060260E+04  0.14645321667E+04  0.79124117794E+02 0.  0.
         25    2    1    2    0    0  0.45557020291E+02  0.30571531428E+02 -0.73639104286E+02  0.15517891185E+03  0.12509083248E+03 0.  0.
        -24    2    1    2    0    0  0.21652542723E+02 -0.39867064006E+01  0.34770802251E+03  0.35784172927E+03  0.81640111794E+02 0.  0.
        -11    1    3    3    0    0  0.82525858451E+01 -0.28441747869E+02 -0.29441681068E+03  0.29590251199E+03  0.00000000000E+00 0.  1.
         12    1    3    3    0    0 -0.75462148859E+02  0.18569228412E+01 -0.11661892153E+04  0.11686296547E+04  0.00000000000E+00 0. -1.
         13    1    5    5    0    0  0.18094069086E+02 -0.13733381904E+01  0.11241038955E+02  0.21345780629E+02  0.00000000000E+00 0. -1.
        -14    1    5    5    0    0  0.35584736366E+01 -0.26133682102E+01  0.33646698356E+03  0.33649594864E+03  0.00000000000E+00 0.  1.
          5    1    4    4  501    0 -0.14558190139E+02 -0.30594721680E+00 -0.85158377439E+02  0.86495411161E+02  0.41800000000E+01 0.  1.
         -5    1    4    4    0  501  0.60115210431E+02  0.30877478645E+02  0.11519273153E+02  0.68683500687E+02  0.41800000000E+01 0.  1.
</event>
<event>
11    1  0.1078607E-008  0.1810476E+03  0.7561462E-02  0.1068799E+00
         22   -1    0    0    0    0  0.00000000000E+00  0.00000000000E+00  0.32978992316E+04  0.32978992316E+04  0.00000000000E+00 0.  1.
         22   -1    0    0    0    0 -0.00000000000E+00 -0.00000000000E+00 -0.92324793823E+03  0.92324793823E+03  0.00000000000E+00 0.  1.
         24    2    1    2    0    0  0.94863267507E+02 -0.85121120366E+02 -0.78310793307E+03  0.79748230309E+03  0.80469523761E+02 0.  0.
         25    2    1    2    0    0 -0.11187132994E+03  0.13294625925E+03 -0.45500683642E+02  0.21887965488E+03  0.12509232110E+03 0.  0.
        -24    2    1    2    0    0  0.17008062438E+02 -0.47825138879E+02  0.32032599101E+04  0.32047852118E+04  0.84839168870E+02 0.  0.
        -13    1    3    3    0    0  0.96770953992E+02 -0.50118899102E+02 -0.67749070681E+03  0.68619981011E+03  0.00000000000E+00 0.  1.
         14    1    3    3    0    0 -0.19076864849E+01 -0.35002221264E+02 -0.10561722626E+03  0.11128249298E+03  0.00000000000E+00 0. -1.
         11    1    5    5    0    0  0.23328524555E+02  0.90140010427E+01  0.32633252869E+03  0.32728946142E+03  0.00000000000E+00 0. -1.
        -12    1    5    5    0    0 -0.63204621178E+01 -0.56839139922E+02  0.28769273814E+04  0.28774957504E+04  0.00000000000E+00 0.  1.
          5    1    4    4  501    0 -0.22625094533E+02  0.54268271341E+02 -0.75814085931E+02  0.96032224813E+02  0.41800000000E+01 0. -1.
         -5    1    4    4    0  501 -0.89246235412E+02  0.78677987904E+02  0.30313402289E+02  0.12284743007E+03  0.41800000000E+01 0. -1.
</event>
<event>
11    1  0.1078607E-008  0.1756973E+03  0.7561462E-02  0.1073177E+00
         22   -1    0    0    0    0  0.00000000000E+00  0.00000000000E+00  0.35420358637E+03  0.35420358637E+03  0.00000000000E+00 0. -1.
         22   -1    0    0    0    0 -0.00000000000E+00 -0.00000000000E+00 -0.11909329042E+04  0.11909329042E+04  0.00000000000E+00 0.  1.
        -24    2    1    2    0    0 -0.12107367149E+03  0.25023422246E+02 -0.11266904210E+04  0.11375292629E+04  0.96210776250E+02 0.  0.
         25    2    1    2    0    0  0.12359500393E+03  0.35403040340E+02  0.14795087104E+03  0.23252342543E+03  0.12509429591E+03 0.  0.
         24    2    1    2    0    0 -0.25213324427E+01 -0.60426462586E+02  0.14201023215E+03  0.17508380227E+03  0.82642103588E+02 0.  0.
        -11    1    5    5    0    0  0.40037758716E+02 -0.31593824265E+02  0.70836240985E+02  0.87286682212E+02  0.00000000000E+00 0.  1.
         12    1    5    5    0    0 -0.42559091159E+02 -0.28832638321E+02  0.71173991163E+02  0.87797120061E+02  0.00000000000E+00 0. -1.
         13    1    3    3    0    0 -0.50847346759E+02  0.15127871678E+02 -0.16703699794E+03  0.17525884815E+03  0.00000000000E+00 0. -1.
        -14    1    3    3    0    0 -0.70226324727E+02  0.98955505678E+01 -0.95965342309E+03  0.96227041473E+03  0.00000000000E+00 0.  1.
          5    1    4    4  501    0  0.49781343718E+02  0.25130980638E+02 -0.10932664059E+02  0.56980206332E+02  0.41800000000E+01 0.  1.
         -5    1    4    4    0  501  0.73813660211E+02  0.10272059701E+02  0.15888353510E+03  0.17554321909E+03  0.41800000000E+01 0.  1.
</event>
<event>
11    1  0.1078607E-008  0.1964167E+03  0.7561462E-02  0.1057087E+00
         22   -1    0    0    0    0  0.00000000000E+00  0.00000000000E+00  0.35077761679E+03  0.35077761679E+03  0.00000000000E+00 0.  1.
         22   -1    0    0    0    0 -0.00000000000E+00 -0.00000000000E+00 -0.72889010313E+03  0.72889010313E+03  0.00000000000E+00 0.  1.
         24    2    1    2    0    0 -0.12075320452E+03  0.86744270315E+02 -0.59951963924E+03  0.62268064628E+03  0.78749505274E+02 0.  0.
         25    2    1    2    0    0  0.14394985042E+03 -0.10271981298E+03 -0.30113826710E+01  0.21663085145E+03  0.12508772105E+03 0.  0.
        -24    2    1    2    0    0 -0.23196645908E+02  0.15975542662E+02  0.22441853557E+03  0.24035622220E+03  0.81327314578E+02 0.  0.
        -13    1    3    3    0    0 -0.12647655100E+03  0.91939078999E+02 -0.59025821418E+03  0.61061761488E+03  0.00000000000E+00 0.  1.
         14    1    3    3    0    0  0.57233464847E+01 -0.51948086837E+01 -0.92614250581E+01  0.12063031391E+02  0.00000000000E+00 0. -1.
         11    1    5    5    0    0 -0.22318080683E+02  0.80817498307E+01  0.99446736714E+01  0.25735344182E+02  0.00000000000E+00 0. -1.
        -12    1    5    5    0    0 -0.87856522495E+00  0.78937928309E+01  0.21447386190E+03  0.21462087802E+03  0.00000000000E+00 0.  1.
          5    1    4    4  501    0  0.51871791146E+02  0.80112904806E+01  0.40168449773E+02  0.66225676660E+02  0.41800000000E+01 0. -1.
         -5    1    4    4    0  501  0.92078059279E+02 -0.11073110346E+03 -0.43179832444E+02  0.15040517479E+03  0.41800000000E+01 0. -1.
</event>
<event>
11    1  0.1078607E-008  0.1510231E+03  0.7561462E-02  0.1095838E+00
         22   -1    0    0    0    0  0.00000000000E+00  0.00000000000E+00  0.10521912146E+03  0.10521912146E+03  0.00000000000E+00 0. -1.
         22   -1    0    0    0    0 -0.00000000000E+00 -0.00000000000E+00 -0.18755396724E+04  0.18755396724E+04  0.00000000000E+00 0. -1.
         24    2    1    2    0    0  0.37243452694E+02 -0.73504110202E+02 -0.15954776715E+04  0.15995381458E+04  0.78634284166E+02 0.  0.
         25    2    1    2    0    0 -0.10952260852E+03  0.83491189100E+02 -0.19733949539E+03  0.27121104389E+03  0.12508626405E+03 0.  0.
        -24    2    1    2    0    0  0.72279155825E+02 -0.99870788980E+01  0.22496615929E+02  0.11000960419E+03  0.79195941653E+02 0.  0.
        -11    1    3    3    0    0 -0.16844752689E+01  0.13617608946E+02 -0.40874618882E+03  0.40897643405E+03  0.00000000000E+00 0.  1.
         12    1    3    3    0    0  0.38927927963E+02 -0.87121719148E+02 -0.11867314827E+04  0.11905617118E+04  0.00000000000E+00 0. -1.
         13    1    5    5    0    0  0.85072752786E+02 -0.60004154043E+01  0.34520454116E+02  0.92005652022E+02  0.00000000000E+00 0. -1.
        -14    1    5    5    0    0 -0.12793596960E+02 -0.39866634937E+01 -0.12023838187E+02  0.18003952170E+02  0.00000000000E+00 0.  1.
          5    1    4    4  501    0 -0.10842186409E+03  0.37179561770E+02 -0.19298380244E+03  0.22449463430E+03  0.41800000000E+01 0. -1.
         -5    1    4    4    0  501 -0.11007444337E+01  0.46311627330E+02 -0.43556929512E+01  0.46716409594E+02  0.41800000000E+01 0. -1.
</event>
<event>
11    1  0.1078607E-008  0.1355232E+03  0.7561462E-02  0.1112663E+00
         22   -1    0    0    0    0  0.00000000000E+00  0.00000000000E+00  0.53587018524E+03  0.53587018524E+03  0.00000000000E+00 0.  1.
         22   -1    0    0    0    0 -0.00000000000E+00 -0.00000000000E+00 -0.26889073223E+03  0.26889073223E+03  0.00000000000E+00 0. -1.
        -24    2    1    2    0    0  0.47516230401E+02  0.14768568782E+02 -0.19677552759E+03  0.21833185277E+03  0.80450524550E+02 0.  0.
         25    2    1    2    0    0 -0.62858269374E+02 -0.41472727750E+02  0.36193786169E+02  0.15042924991E+03  0.12509124628E+03 0.  0.
         24    2    1    2    0    0  0.15342038973E+02  0.26704158968E+02  0.42756119443E+03  0.43599981479E+03  0.79616413159E+02 0.  0.
        -11    1    5    5    0    0  0.47637118194E+02  0.14011027248E+02  0.21786005158E+03  0.22344709886E+03  0.00000000000E+00 0.  1.
         12    1    5    5    0    0 -0.32295079221E+02  0.12693131720E+02  0.20970114285E+03  0.21255271593E+03  0.00000000000E+00 0. -1.
         11    1    3    3    0    0  0.66398069990E+02  0.10909087076E+02 -0.10615375715E+03  0.12568345968E+03  0.00000000000E+00 0. -1.
        -12    1    3    3    0    0 -0.18881839589E+02  0.38594817068E+01 -0.90621770433E+02  0.92648393088E+02  0.00000000000E+00 0.  1.
          5    1    4    4  501    0  0.15370783871E+02 -0.14334199898E+01 -0.34199517983E+02  0.37754405305E+02  0.41800000000E+01 0. -1.
         -5    1    4    4    0  501 -0.78229053245E+02 -0.40039307760E+02  0.70393304152E+02  0.11267484461E+03  0.41800000000E+01 0. -1.
</event>
<event>
11    1  0.1078607E-008  0.1411117E+03  0.7561462E-02  0.1106323E+00
         22   -1    0    0    0    0  0.00000000000E+00  0.00000000000E+00  0.62578642802E+03  0.62578642802E+03  0.00000000000E+00 0. -1.
         22   -1    0    0    0    0 -0.00000000000E+00 -0.00000000000E+00 -0.18564109123E+03  0.18564109123E+03  0.00000000000E+00 0. -1.
         24    2    1    2    0    0 -0.19153221077E+02 -0.29044733003E+02 -0.10926160536E+03  0.13977272163E+03  0.79924169763E+02 0.  0.
         25    2    1    2    0    0  0.75007017727E+02  0.54845641234E+02  0.60502682878E+02  0.16714571387E+03  0.12507205106E+03 0.  0.
        -24    2    1    2    0    0 -0.55853796651E+02 -0.25800908231E+02  0.48890425927E+03  0.50450908376E+03  0.10824374065E+03 0.  0.
        -13    1    3    3    0    0  0.52045088716E+01  0.22520618037E+01  0.11415325302E+02  0.12746307179E+02  0.00000000000E+00 0.  1.
         14    1    3    3    0    0 -0.24357729948E+02 -0.31296794807E+02 -0.12067693066E+03  0.12702641445E+03  0.00000000000E+00 0. -1.
         13    1    5    5    0    0 -0.61498650204E+02 -0.16809438382E+02  0.48972816300E+03  0.49386062288E+03  0.00000000000E+00 0. -1.
        -14    1    5    5    0    0  0.56448535530E+01 -0.89914698489E+01 -0.82390372700E+00  0.10648460876E+02  0.00000000000E+00 0.  1.
          5    1    4    4  501    0  0.46723132002E+01  0.54995706200E+02  0.76952513072E+02  0.94791982146E+02  0.41800000000E+01 0. -1.
         -5    1    4    4    0  501  0.70334704527E+02 -0.15006496575E+00 -0.16449830194E+02  0.72353731720E+02  0.41800000000E+01 0. -1.
</event>
<event>
11    1  0.1078607E-008  0.1342472E+03  0.7561462E-02  0.1114158E+00
         22   -1    0    0    0    0  0.00000000000E+00  0.00000000000E+00  0.54011776310E+03  0.54011776310E+03  0.00000000000E+00 0. -1.
         22   -1    0    0    0    0 -0.00000000000E+00 -0.00000000000E+00 -0.10797771140E+04  0.10797771140E+04  0.00000000000E+00 0. -1.
         24    2    1    2    0    0  0.16967363007E+02  0.44304818440E+02 -0.94611216527E+03  0.95072076469E+03  0.80566337852E+02 0.  0.
         25    2    1    2    0    0 -0.48930839349E+02 -0.58378460266E+02 -0.85271649546E+02  0.16947193144E+03  0.12508880712E+03 0.  0.
        -24    2    1    2    0    0  0.31963476342E+02  0.14073641825E+02  0.49172446395E+03  0.49970218093E+03  0.81789913548E+02 0.  0.
        -11    1    3    3    0    0  0.99352798089E+00 -0.23117373501E+02 -0.17986495136E+03  0.18134718300E+03  0.00000000000E+00 0.  1.
         12    1    3    3    0    0  0.15973835026E+02  0.67422191941E+02 -0.76624721392E+03  0.76937358169E+03  0.00000000000E+00 0. -1.
         11    1    5    5    0    0 -0.49900123051E+00 -0.19591485736E+02  0.34818678814E+03  0.34873788832E+03  0.00000000000E+00 0. -1.
        -12    1    5    5    0    0  0.32462477572E+02  0.33665127562E+02  0.14353767582E+03  0.15096429261E+03  0.00000000000E+00 0.  1.
          5    1    4    4  501    0 -0.68018343541E+02  0.46749296186E+01 -0.94765216719E+01  0.68961053414E+02  0.41800000000E+01 0.  1.
         -5    1    4    4    0  501  0.19087504192E+02 -0.63053389884E+02 -0.75795127875E+02  0.10051087803E+03  0.41800000000E+01 0.  1.
</event>
<event>
11    1  0.1078607E-008  0.2616702E+03  0.7561462E-02  0.1017860E+00
         22   -1    0    0    0    0  0.00000000000E+00  0.00000000000E+00  0.87884044040E+03  0.87884044040E+03  0.00000000000E+00 0. -1.
         22   -1    0    0    0    0 -0.00000000000E+00 -0.00000000000E+00 -0.88632558268E+03  0.88632558268E+03  0.00000000000E+00 0. -1.
        -24    2    1    2    0    0  0.59401789751E+02 -0.26890040352E+02 -0.67671598105E+03  0.68478930441E+03  0.82098876524E+02 0.  0.
         25    2    1    2    0    0  0.17575974152E+03  0.14914456393E+02 -0.12376181185E+03  0.24915586790E+03  0.12509089769E+03 0.  0.
         24    2    1    2    0    0 -0.23516153127E+03  0.11975583959E+02  0.79299265063E+03  0.83122085077E+03  0.81525446332E+02 0.  0.
        -13    1    5    5    0    0 -0.71443008519E+02 -0.60834369007E+00  0.13152479308E+03  0.14967713500E+03  0.00000000000E+00 0.  1.
         14    1    5    5    0    0 -0.16371852275E+03  0.12583927649E+02  0.66146785755E+03  0.68154371577E+03  0.00000000000E+00 0. -1.
         11    1    3    3    0    0  0.24958770052E+02 -0.46725948642E+02 -0.53465156125E+03  0.53726952865E+03  0.00000000000E+00 0. -1.
        -12    1    3    3    0    0  0.34443019699E+02  0.19835908289E+02 -0.14206441981E+03  0.14751977576E+03  0.00000000000E+00 0.  1.
          5    1    4    4  501    0  0.72591878001E+02  0.59850378436E+02 -0.20523155983E+02  0.96386310657E+02  0.41800000000E+01 0.  1.
         -5    1    4    4    0  501  0.10316786352E+03 -0.44935922043E+02 -0.10323865587E+03  0.15276955724E+03  0.41800000000E+01 0.  1.
</event>
<event>
11    1  0.1078607E-008  0.2453041E+03  0.7561462E-02  0.1026431E+00
         22   -1    0    0    0    0  0.00000000000E+00  0.00000000000E+00  0.57915266322E+02  0.57915266322E+02  0.00000000000E+00 0.  1.
         22   -1    0    0    0    0 -0.00000000000E+00 -0.00000000000E+00 -0.27599778428E+04  0.27599778428E+04  0.00000000000E+00 0. -1.
         24    2    1    2    0    0 -0.69809239129E+02  0.19892070790E+03 -0.17340665654E+04  0.17477522900E+04  0.56643056353E+02 0.  0.
         25    2    1    2    0    0  0.70866414445E+02 -0.19923889826E+03 -0.95828475027E+03  0.98928007498E+03  0.12508883597E+03 0.  0.
        -24    2    1    2    0    0 -0.10571753159E+01  0.31819035194E+00 -0.97112607584E+01  0.80860744155E+02  0.80267879597E+02 0.  0.
        -13    1    3    3    0    0 -0.51256731659E+02  0.64861925274E+02 -0.61478514289E+03  0.62031854221E+03  0.00000000000E+00 0.  1.
         14    1    3    3    0    0 -0.18552507470E+02  0.13405878263E+03 -0.11192814225E+04  0.11274337477E+04  0.00000000000E+00 0. -1.
         11    1    5    5    0    0 -0.34850246720E+02 -0.41814328013E+01 -0.25406180667E+02  0.43330106079E+02  0.00000000000E+00 0. -1.
        -12    1    5    5    0    0  0.33793071404E+02  0.44996231532E+01  0.15694919909E+02  0.37530638076E+02  0.00000000000E+00 0.  1.
          5    1    4    4  501    0  0.46923048230E+02 -0.53001840837E+01 -0.25351040600E+03  0.25790475520E+03  0.41800000000E+01 0. -1.
         -5    1    4    4    0  501  0.23943366215E+02 -0.19393871417E+03 -0.70477434427E+03  0.73137531978E+03  0.41800000000E+01 0. -1.
</event>
<event>
11    1  0.1078607E-008  0.1921518E+03  0.7561462E-02  0.1060217E+00
         22   -1    0    0    0    0  0.00000000000E+00  0.00000000000E+00  0.19682362953E+04  0.19682362953E+04  0.00000000000E+00 0. -1.
         22   -1    0    0    0    0 -0.00000000000E+00 -0.00000000000E+00 -0.12451431592E+03  0.12451431592E+03  0.00000000000E+00 0.  1.
        -24    2    1    2    0    0 -0.13026347993E+03 -0.49393470310E+02 -0.34499435120E+02  0.16729284466E+03  0.85955777800E+02 0.  0.
         25    2    1    2    0    0  0.21284931927E+03  0.84418352012E+02  0.82307832111E+03  0.86344505221E+03  0.12509254423E+03 0.  0.
         24    2    1    2    0    0 -0.82585839346E+02 -0.35024881702E+02  0.10551430934E+04  0.10620127143E+04  0.80603317088E+02 0.  0.
        -13    1    5    5    0    0 -0.23451186969E+02 -0.36099472881E+02  0.18846469616E+03  0.19331857596E+03  0.00000000000E+00 0.  1.
         14    1    5    5    0    0 -0.59134652378E+02  0.10745911787E+01  0.86667839722E+03  0.86869413838E+03  0.00000000000E+00 0. -1.
         13    1    3    3    0    0 -0.34370753397E+02  0.30303926179E+01  0.25233864660E+02  0.42746694541E+02  0.00000000000E+00 0. -1.
        -14    1    3    3    0    0 -0.95892726530E+02 -0.52423862928E+02 -0.59733299780E+02  0.12454615011E+03  0.00000000000E+00 0.  1.
          5    1    4    4  501    0  0.16717975802E+03  0.87411269270E+02  0.77203233545E+03  0.79475858024E+03  0.41800000000E+01 0.  1.
         -5    1    4    4    0  501  0.45669561255E+02 -0.29929172587E+01  0.51045985667E+02  0.68686471970E+02  0.41800000000E+01 0.  1.
</event>
<event>
11    1  0.1078607E-008  0.1442465E+03  0.7561462E-02  0.1102907E+00
         22   -1    0    0    0    0  0.00000000000E+00  0.00000000000E+00  0.23858794073E+03  0.23858794073E+03  0.00000000000E+00 0.  1.
         22   -1    0    0    0    0 -0.00000000000E+00 -0.00000000000E+00 -0.38480787127E+03  0.38480787127E+03  0.00000000000E+00 0.  1.
        -24    2    1    2    0    0  0.55153916757E+02 -0.47314562369E+02 -0.27310040302E+03  0.29412894373E+03  0.81531485101E+02 0.  0.
         25    2    1    2    0    0 -0.24233460547E+02  0.72234201267E+02 -0.28021714685E+02  0.14912378404E+03  0.12509055132E+03 0.  0.
         24    2    1    2    0    0 -0.30920456211E+02 -0.24919638898E+02  0.15490218716E+03  0.18014308423E+03  0.82944440392E+02 0.  0.
        -11    1    5    5    0    0 -0.61226803917E+01 -0.53650632343E+02  0.89680479496E+02  0.10468269183E+03  0.00000000000E+00 0.  1.
         12    1    5    5    0    0 -0.24797775819E+02  0.28730993445E+02  0.65221707668E+02  0.75460392399E+02  0.00000000000E+00 0. -1.
         11    1    3    3    0    0  0.10484288087E+02  0.23057439770E+02 -0.76665658420E+02  0.80741494947E+02  0.00000000000E+00 0. -1.
        -12    1    3    3    0    0  0.44669628671E+02 -0.70372002139E+02 -0.19643474460E+03  0.21338744878E+03  0.00000000000E+00 0.  1.
          5    1    4    4  501    0 -0.35682511508E+01 -0.23988684541E+02  0.26804141603E+02  0.36388512052E+02  0.41800000000E+01 0. -1.
         -5    1    4    4    0  501 -0.20665209396E+02  0.96222885808E+02 -0.54825856288E+02  0.11273527199E+03  0.41800000000E+01 0. -1.
</event>
<event>
11    1  0.1078607E-008  0.2040346E+03  0.7561462E-02  0.1051707E+00
         22   -1    0    0    0    0  0.00000000000E+00  0.00000000000E+00  0.79141942887E+03  0.79141942887E+03  0.00000000000E+00 0. -1.
         22   -1    0    0    0    0 -0.00000000000E+00 -0.00000000000E+00 -0.37182892923E+03  0.37182892923E+03  0.00000000000E+00 0.  1.
         24    2    1    2    0    0  0.76208966013E+02 -0.56157807008E+02 -0.25422641925E+03  0.28323599691E+03  0.81425130730E+02 0.  0.
         25    2    1    2    0    0 -0.43431512364E+02  0.20860698965E+03  0.79218026041E+02  0.25947306889E+03  0.12509038906E+03 0.  0.
        -24    2    1    2    0    0 -0.32777453649E+02 -0.15244918264E+03  0.59459889284E+03  0.62053929230E+03  0.84888486628E+02 0.  0.
        -13    1    3    3    0    0  0.47471087591E+02 -0.45086958798E+02 -0.24097331320E+03  0.24970878175E+03  0.00000000000E+00 0.  1.
         14    1    3    3    0    0  0.28737878422E+02 -0.11070848210E+02 -0.13253106048E+02  0.33527215157E+02  0.00000000000E+00 0. -1.
         11    1    5    5    0    0 -0.51268438074E+02 -0.13859074120E+03  0.55817459061E+03  0.57740342906E+03  0.00000000000E+00 0. -1.
        -12    1    5    5    0    0  0.18490984425E+02 -0.13858441439E+02  0.36424302232E+02  0.43135863237E+02  0.00000000000E+00 0.  1.
          5    1    4    4  501    0 -0.48920177626E+02  0.13086024281E+02  0.23949479453E+02  0.56173639516E+02  0.41800000000E+01 0. -1.
         -5    1    4    4    0  501  0.54886652618E+01  0.19552096536E+03  0.55268546588E+02  0.20329942938E+03  0.41800000000E+01 0. -1.
</event>
<event>
11    1  0.1078607E-008  0.1455697E+03  0.7561462E-02  0.1101494E+00
         22   -1    0    0    0    0  0.00000000000E+00  0.00000000000E+00  0.18289555208E+04  0.18289555208E+04  0.00000000000E+00 0. -1.
         22   -1    0    0    0    0 -0.00000000000E+00 -0.00000000000E+00 -0.44698039701E+03  0.44698039701E+03  0.00000000000E+00 0. -1.
        -24    2    1    2    0    0  0.75170900345E+02  0.22252692234E+02 -0.40870358969E+03  0.42374510097E+03  0.79846351204E+02 0.  0.
         25    2    1    2    0    0 -0.40692679976E+01  0.77182402521E+00  0.10620914331E+03  0.16414660562E+03  0.12508625568E+03 0.  0.
         24    2    1    2    0    0 -0.71101632348E+02 -0.23024516259E+02  0.16844695701E+04  0.16880442112E+04  0.80436034932E+02 0.  0.
        -13    1    5    5    0    0 -0.41671563055E+01 -0.75421955604E+00  0.32317511670E+01  0.53271244042E+01  0.00000000000E+00 0.  1.
         14    1    5    5    0    0 -0.66934476042E+02 -0.22270296703E+02  0.16812378190E+04  0.16827170868E+04  0.00000000000E+00 0. -1.
         11    1    3    3    0    0  0.12339886556E+02 -0.27202444215E+02 -0.15082827738E+03  0.15375765031E+03  0.00000000000E+00 0. -1.
        -12    1    3    3    0    0  0.62831013789E+02  0.49455136449E+02 -0.25787531231E+03  0.26998745066E+03  0.00000000000E+00 0.  1.
          5    1    4    4  501    0 -0.78256761181E+00  0.28696209546E+02 -0.19701411049E+02  0.35067119238E+02  0.41800000000E+01 0. -1.
         -5    1    4    4    0  501 -0.32867003858E+01 -0.27924385521E+02  0.12591055436E+03  0.12907948639E+03  0.41800000000E+01 0. -1.
</event>
<event>
11    1  0.1078607E-008  0.1352203E+03  0.7561462E-02  0.1113016E+00
         22   -1    0    0    0    0  0.00000000000E+00  0.00000000000E+00  0.25806070945E+03  0.25806070945E+03  0.00000000000E+00 0.  1.
         22   -1    0    0    0    0 -0.00000000000E+00 -0.00000000000E+00 -0.21170189529E+04  0.21170189529E+04  0.00000000000E+00 0.  1.
        -24    2    1    2    0    0 -0.29323802300E+02  0.42052922166E+02 -0.19989287178E+04  0.20012501289E+04  0.81594888003E+02 0.  0.
         25    2    1    2    0    0  0.38679747567E+02 -0.39255430431E+02 -0.66472123379E+02  0.15199831771E+03  0.12509130149E+03 0.  0.
         24    2    1    2    0    0 -0.93559452674E+01 -0.27974917352E+01  0.20644259773E+03  0.22183121578E+03  0.80592694859E+02 0.  0.
        -11    1    5    5    0    0 -0.23909548955E+02  0.33583521867E+02  0.90527777927E+02  0.99472599486E+02  0.00000000000E+00 0.  1.
         12    1    5    5    0    0  0.14553603688E+02 -0.36381013602E+02  0.11591481980E+03  0.12235861629E+03  0.00000000000E+00 0. -1.
         13    1    3    3    0    0  0.46183428234E+01 -0.28086307508E+01 -0.88069403791E+01  0.10333426149E+02  0.00000000000E+00 0. -1.
        -14    1    3    3    0    0 -0.33942145123E+02  0.44861552917E+02 -0.19901217774E+04  0.19909167027E+04  0.00000000000E+00 0.  1.
          5    1    4    4  501    0  0.79825771079E+02 -0.48555906334E+02 -0.38103347604E+02  0.10099092666E+03  0.41800000000E+01 0. -1.
         -5    1    4    4    0  501 -0.41146023511E+02  0.93004759033E+01 -0.28368775775E+02  0.51007391051E+02  0.41800000000E+01 0. -1.
</event>
<event>
11    1  0.1078607E-008  0.1524956E+03  0.7561462E-02  0.1094356E+00
         22   -1    0    0    0    0  0.00000000000E+00  0.00000000000E+00  0.30229597541E+03  0.30229597541E+03  0.00000000000E+00 0.  1.
         22   -1    0    0    0    0 -0.00000000000E+00 -0.00000000000E+00 -0.15538777189E+04  0.15538777189E+04  0.00000000000E+00 0.  1.
         24    2    1    2    0    0 -0.39108688008E+02  0.41548591575E+02 -0.91295486160E+03  0.91856452618E+03  0.83776097378E+02 0.  0.
         25    2    1    2    0    0  0.67932245944E+01 -0.12205375310E+03 -0.61316677986E+03  0.63762215434E+03  0.12508095472E+03 0.  0.
        -24    2    1    2    0    0  0.32315463413E+02  0.80505161524E+02  0.27453989798E+03  0.29998701379E+03  0.84229939183E+02 0.  0.
        -11    1    3    3    0    0 -0.76318195387E+01  0.36389963094E+02 -0.80834962937E+03  0.80920429892E+03  0.00000000000E+00 0.  1.
         12    1    3    3    0    0 -0.31476868469E+02  0.51586284815E+01 -0.10460523223E+03  0.10936022726E+03  0.00000000000E+00 0. -1.
         13    1    5    5    0    0 -0.72460001205E+00  0.45696873515E+02  0.40462874509E+02  0.61040752844E+02  0.00000000000E+00 0. -1.
        -14    1    5    5    0    0  0.33040063425E+02  0.34808288009E+02  0.23407702347E+03  0.23894626095E+03  0.00000000000E+00 0.  1.
          5    1    4    4  501    0 -0.24290399490E+02 -0.13211521320E+03 -0.40120024457E+03  0.42311176031E+03  0.41800000000E+01 0.  1.
         -5    1    4    4    0  501  0.31083624084E+02  0.10061460098E+02 -0.21196653528E+03  0.21451039403E+03  0.41800000000E+01 0.  1.
</event>
<event>
11    1  0.1078607E-008  0.1367100E+03  0.7561462E-02  0.1111289E+00
         22   -1    0    0    0    0  0.00000000000E+00  0.00000000000E+00  0.47947619427E+03  0.47947619427E+03  0.00000000000E+00 0. -1.
         22   -1    0    0    0    0 -0.00000000000E+00 -0.00000000000E+00 -0.79845604592E+03  0.79845604592E+03  0.00000000000E+00 0. -1.
         24    2    1    2    0    0 -0.39059974804E+02 -0.39549562555E+02 -0.76275897643E+03  0.76916756116E+03  0.82022140258E+02 0.  0.
         25    2    1    2    0    0  0.15641068989E+02  0.33109864390E+02  0.13058327181E+03  0.18449678353E+03  0.12508463574E+03 0.  0.
        -24    2    1    2    0    0  0.23418905816E+02  0.64396981648E+01  0.31319585298E+03  0.32426789550E+03  0.80424566288E+02 0.  0.
        -11    1    3    3    0    0  0.14291177640E+02 -0.14480396268E+02 -0.50079323066E+02  0.54054215684E+02  0.00000000000E+00 0.  1.
         12    1    3    3    0    0 -0.53351152444E+02 -0.25069166287E+02 -0.71267965336E+03  0.71511334548E+03  0.00000000000E+00 0. -1.
         11    1    5    5    0    0  0.21356071324E+02  0.39278818196E+02  0.23837578465E+03  0.24253231135E+03  0.00000000000E+00 0. -1.
        -12    1    5    5    0    0  0.20628344915E+01 -0.32839120032E+02  0.74820068333E+02  0.81735584148E+02  0.00000000000E+00 0.  1.
          5    1    4    4  501    0  0.80028893189E+01  0.49519535831E+02  0.14964278756E+03  0.15788181319E+03  0.41800000000E+01 0.  1.
         -5    1    4    4    0  501  0.76381796696E+01 -0.16409671441E+02 -0.19059515755E+02  0.26614970341E+02  0.41800000000E+01 0.  1.
</event>
<event>
11    1  0.1078607E-008  0.1693713E+03  0.7561462E-02  0.1078580E+00
         22   -1    0    0    0    0  0.00000000000E+00  0.00000000000E+00  0.93440533890E+02  0.93440533890E+02  0.00000000000E+00 0.  1.
         22   -1    0    0    0    0 -0.00000000000E+00 -0.00000000000E+00 -0.84685939563E+03  0.84685939563E+03  0.00000000000E+00 0.  1.
        -24    2    1    2    0    0  0.19624177798E+02 -0.13909261747E+02 -0.56292721436E+03  0.56912286568E+03  0.80219771029E+02 0.  0.
         25    2    1    2    0    0  0.99054522748E+02  0.31502954536E+02 -0.14942580482E+03  0.22085741992E+03  0.12508274928E+03 0.  0.
         24    2    1    2    0    0 -0.11867870055E+03 -0.17593692789E+02 -0.41065842568E+02  0.15031964392E+03  0.80718151203E+02 0.  0.
        -13    1    5    5    0    0 -0.92759911317E+02 -0.17993083005E+02 -0.65281155368E+02  0.11484677370E+03  0.00000000000E+00 0.  1.
         14    1    5    5    0    0 -0.25918789229E+02  0.39939021658E+00  0.24215312799E+02  0.35472870219E+02  0.00000000000E+00 0. -1.
         11    1    3    3    0    0  0.33323722715E+02  0.55110035662E+01 -0.99306126171E+02  0.10489303290E+03  0.00000000000E+00 0. -1.
        -12    1    3    3    0    0 -0.13699544917E+02 -0.19420265313E+02 -0.46362108819E+03  0.46422983278E+03  0.00000000000E+00 0.  1.
          5    1    4    4  501    0 -0.29428136927E+02  0.14115080787E+02 -0.29340667738E+02  0.44086255590E+02  0.41800000000E+01 0. -1.
         -5    1    4    4    0  501  0.12848265968E+03  0.17387873748E+02 -0.12008513708E+03  0.17677116433E+03  0.41800000000E+01 0. -1.
</event>
<event>
11    1  0.1078607E-008  0.1547665E+03  0.7561462E-02  0.1092105E+00
         22   -1    0    0    0    0  0.00000000000E+00  0.00000000000E+00  0.23118251498E+03  0.23118251498E+03  0.00000000000E+00 0.  1.
         22   -1    0    0    0    0 -0.00000000000E+00 -0.00000000000E+00 -0.29730972329E+03  0.29730972329E+03  0.00000000000E+00 0.  1.
        -24    2    1    2    0    0 -0.10573472563E+00  0.30404189226E+02 -0.17742596210E+03  0.19475787417E+03  0.74338628056E+02 0.  0.
         25    2    1    2    0    0 -0.89201210220E+02 -0.42155420141E+02 -0.14555116700E+02  0.15997480000E+03  0.12508457083E+03 0.  0.
         24    2    1    2    0    0  0.89306944945E+02  0.11751230914E+02  0.12585387049E+03  0.17375956410E+03  0.78989667396E+02 0.  0.
        -13    1    5    5    0    0  0.78791396465E+02  0.40819724600E+02  0.97133296285E+02  0.13156447591E+03  0.00000000000E+00 0.  1.
         14    1    5    5    0    0  0.10515548481E+02 -0.29068493686E+02  0.28720574207E+02  0.42195088195E+02  0.00000000000E+00 0. -1.
         13    1    3    3    0    0  0.45378589613E+01  0.31641720904E+01 -0.16389778415E+03  0.16399112110E+03  0.00000000000E+00 0. -1.
        -14    1    3    3    0    0 -0.46435936870E+01  0.27240017136E+02 -0.13528177947E+02  0.30766753070E+02  0.00000000000E+00 0.  1.
          5    1    4    4  501    0  0.31969611088E+02 -0.90042255298E+01 -0.58258922999E+01  0.33978604027E+02  0.41800000000E+01 0. -1.
         -5    1    4    4    0  501 -0.12117082131E+03 -0.33151194611E+02 -0.87292243998E+01  0.12599619597E+03  0.41800000000E+01 0. -1.
</event>
<event>
11    1  0.1078607E-008  0.1435903E+03  0.7561462E-02  0.1103614E+00
         22   -1    0    0    0    0  0.00000000000E+00  0.00000000000E+00  0.19450644252E+03  0.19450644252E+03  0.00000000000E+00 0. -1.
         22   -1    0    0    0    0 -0.00000000000E+00 -0.00000000000E+00 -0.91305736960E+03  0.91305736960E+03  0.00000000000E+00 0.  1.
         24    2    1    2    0    0  0.78339552341E+02  0.16102893818E+02 -0.57092309145E+03  0.57918549188E+03  0.55733912505E+02 0.  0.
         25    2    1    2    0    0 -0.38191039072E+02 -0.13564239679E+02 -0.31363429731E+03  0.34008225448E+03  0.12508766246E+03 0.  0.
        -24    2    1    2    0    0 -0.40148513269E+02 -0.25386541391E+01  0.16600646168E+03  0.18829606576E+03  0.79239606127E+02 0.  0.
        -13    1    3    3    0    0  0.65728730485E+02  0.19395289943E+02 -0.55182361662E+03  0.55606271871E+03  0.00000000000E+00 0.  1.
         14    1    3    3    0    0  0.12610821856E+02 -0.32923961254E+01 -0.19099474830E+02  0.23122773167E+02  0.00000000000E+00 0. -1.
         13    1    5    5    0    0 -0.27101091208E+02 -0.51985989933E+01  0.17163525038E+03  0.17383944820E+03  0.00000000000E+00 0. -1.
        -14    1    5    5    0    0 -0.13047422061E+02  0.26599448542E+01 -0.56287887032E+01  0.14456617562E+02  0.00000000000E+00 0.  1.
          5    1    4    4  501    0 -0.13677891339E+02 -0.38151954486E+02 -0.29966947997E+03  0.30242672826E+03  0.41800000000E+01 0.  1.
         -5    1    4    4    0  501 -0.24513147734E+02  0.24587714807E+02 -0.13964817340E+02  0.37655526216E+02  0.41800000000E+01 0.  1.
</event>
<event>
11    1  0.1078607E-008  0.1416319E+03  0.7561462E-02  0.1105750E+00
         22   -1    0    0    0    0  0.00000000000E+00  0.00000000000E+00  0.76501842191E+03  0.76501842191E+03  0.00000000000E+00 0.  1.
         22   -1    0    0    0    0 -0.00000000000E+00 -0.00000000000E+00 -0.45025854698E+03  0.45025854698E+03  0.00000000000E+00 0.  1.
         24    2    1    2    0    0 -0.28488939635E+02  0.24255579049E+02 -0.40539677380E+03  0.41497788902E+03  0.80375066866E+02 0.  0.
         25    2    1    2    0    0 -0.35917861168E+02 -0.46996158012E+02  0.98506236887E+02  0.16988345779E+03  0.12513264524E+03 0.  0.
        -24    2    1    2    0    0  0.64406800802E+02  0.22740578963E+02  0.62165041184E+03  0.63041562208E+03  0.79430800717E+02 0.  0.
        -11    1    3    3    0    0 -0.18144613532E+02  0.41477440698E+02 -0.37955620546E+03  0.38224667191E+03  0.00000000000E+00 0.  1.
         12    1    3    3    0    0 -0.10344326103E+02 -0.17221861649E+02 -0.25840568339E+02  0.32731217106E+02  0.00000000000E+00 0. -1.
         11    1    5    5    0    0  0.24878937095E+02  0.11935497527E+02  0.48484861293E+02  0.55787089786E+02  0.00000000000E+00 0. -1.
        -12    1    5    5    0    0  0.39527863707E+02  0.10805081436E+02  0.57316555055E+03  0.57462853230E+03  0.00000000000E+00 0.  1.
          5    1    4    4  501    0 -0.58012979469E+02 -0.72055120302E+02  0.36910127317E+02  0.99685886901E+02  0.41800000000E+01 0. -1.
         -5    1    4    4    0  501  0.22095118302E+02  0.25058962291E+02  0.61596109570E+02  0.70197570884E+02  0.41800000000E+01 0. -1.
</event>
<event>
11    1  0.1078607E-008  0.1294962E+03  0.7561462E-02  0.1119890E+00
         22   -1    0    0    0    0  0.00000000000E+00  0.00000000000E+00  0.16355833119E+04  0.16355833119E+04  0.00000000000E+00 0.  1.
         22   -1    0    0    0    0 -0.00000000000E+00 -0.00000000000E+00 -0.11049331772E+03  0.11049331772E+03  0.00000000000E+00 0.  1.
         24    2    1    2    0    0 -0.16708001777E+02 -0.34506521980E+02 -0.65778942250E+02  0.11106405166E+03  0.80860972936E+02 0.  0.
         25    2    1    2    0    0 -0.13151961457E+02  0.49023885295E+02  0.21237955677E+03  0.25165443174E+03  0.12509421033E+03 0.  0.
        -24    2    1    2    0    0  0.29859963235E+02 -0.14517363315E+02  0.13784893797E+04  0.13833581462E+04  0.11110544389E+03 0.  0.
        -11    1    3    3    0    0 -0.23820721491E+02 -0.46359766703E+02 -0.77189812055E+02  0.93139260391E+02  0.00000000000E+00 0.  1.
         12    1    3    3    0    0  0.71127197141E+01  0.11853244722E+02  0.11410869805E+02  0.17924791265E+02  0.00000000000E+00 0. -1.
         13    1    5    5    0    0 -0.58654617423E+01 -0.11096715270E+02  0.15719368493E+02  0.20115647567E+02  0.00000000000E+00 0. -1.
        -14    1    5    5    0    0  0.35725424977E+02 -0.34206480450E+01  0.13627700112E+04  0.13632424987E+04  0.00000000000E+00 0.  1.
          5    1    4    4  501    0  0.31467173058E+02 -0.28365310708E+02  0.45409041166E+02  0.62243290814E+02  0.41800000000E+01 0.  1.
         -5    1    4    4    0  501 -0.44619134515E+02  0.77389196003E+02  0.16697051561E+03  0.18941114092E+03  0.41800000000E+01 0.  1.
</event>
<event>
11    1  0.1078607E-008  0.1724679E+03  0.7561462E-02  0.1075904E+00
         22   -1    0    0    0    0  0.00000000000E+00  0.00000000000E+00  0.43876713037E+04  0.43876713037E+04  0.00000000000E+00 0. -1.
         22   -1    0    0    0    0 -0.00000000000E+00 -0.00000000000E+00 -0.11749026732E+04  0.11749026732E+04  0.00000000000E+00 0. -1.
         24    2    1    2    0    0 -0.36252740384E+02  0.10632811560E+02 -0.11575365643E+04  0.11608186110E+04  0.78623356129E+02 0.  0.
         25    2    1    2    0    0 -0.62662826358E+02 -0.79832382557E+02  0.43624293700E+03  0.46502964084E+03  0.12507928554E+03 0.  0.
        -24    2    1    2    0    0  0.98915566743E+02  0.69199570997E+02  0.39340622578E+04  0.39367257250E+04  0.79941952238E+02 0.  0.
        -13    1    3    3    0    0  0.15656451207E+01  0.27746354682E+02 -0.85454682021E+03  0.85499858443E+03  0.00000000000E+00 0.  1.
         14    1    3    3    0    0 -0.37818385505E+02 -0.17113543122E+02 -0.30298974412E+03  0.30582002662E+03  0.00000000000E+00 0. -1.
         11    1    5    5    0    0  0.71046669870E+02  0.51463650033E+02  0.35922197982E+04  0.35932908615E+04  0.00000000000E+00 0. -1.
        -12    1    5    5    0    0  0.27868896873E+02  0.17735920964E+02  0.34184245957E+03  0.34343486350E+03  0.00000000000E+00 0.  1.
          5    1    4    4  501    0 -0.63337069096E+02 -0.11183008119E+03  0.35785075489E+03  0.38025279297E+03  0.41800000000E+01 0.  1.
         -5    1    4    4    0  501  0.67424273724E+00  0.31997698634E+02  0.78392182103E+02  0.84776847877E+02  0.41800000000E+01 0.  1.
</event>
<event>
11    1  0.1078607E-008  0.2662785E+03  0.7561462E-02  0.1015568E+00
         22   -1    0    0    0    0  0.00000000000E+00  0.00000000000E+00  0.19444735631E+04  0.19444735631E+04  0.00000000000E+00 0.  1.
         22   -1    0    0    0    0 -0.00000000000E+00 -0.00000000000E+00 -0.15890886860E+04  0.15890886860E+04  0.00000000000E+00 0.  1.
         24    2    1    2    0    0 -0.21930630839E+03 -0.93758265677E+02 -0.13713119277E+04  0.13944067712E+04  0.83594086083E+02 0.  0.
         25    2    1    2    0    0  0.22092326337E+03  0.17793169153E+02 -0.12529643481E+03  0.28367289328E+03  0.12508968240E+03 0.  0.
        -24    2    1    2    0    0 -0.16169549828E+01  0.75965096524E+02  0.18519932395E+04  0.18554825846E+04  0.84636588699E+02 0.  0.
        -11    1    3    3    0    0 -0.20509161537E+03 -0.68475916403E+02 -0.10651756277E+04  0.10868995536E+04  0.00000000000E+00 0.  1.
         12    1    3    3    0    0 -0.14214693017E+02 -0.25282349274E+02 -0.30613629995E+03  0.30750721753E+03  0.00000000000E+00 0. -1.
         11    1    5    5    0    0 -0.36425830442E+02  0.64371234217E+02  0.10183726305E+04  0.10210549993E+04  0.00000000000E+00 0. -1.
        -12    1    5    5    0    0  0.34808875459E+02  0.11593862307E+02  0.83362060902E+03  0.83442758538E+03  0.00000000000E+00 0.  1.
          5    1    4    4  501    0  0.10270299735E+02  0.12092951095E+02  0.21334461110E+02  0.26913753988E+02  0.41800000000E+01 0. -1.
         -5    1    4    4    0  501  0.21065296363E+03  0.57002180575E+01 -0.14663089592E+03  0.25675913930E+03  0.41800000000E+01 0. -1.
</event>
<event>
11    1  0.1144590E-008  0.3465348E+03  0.7561462E-02  0.9822180E-01
         22   -1    0    0    0    0  0.00000000000E+00  0.00000000000E+00  0.11410819702E+04  0.11410819702E+04  0.00000000000E+00 0.  1.
         22   -1    0    0    0    0 -0.00000000000E+00 -0.00000000000E+00 -0.42468923414E+03  0.42468923414E+03  0.00000000000E+00 0. -1.
        -24    2    1    2    0    0 -0.10076803808E+03 -0.30618236835E+02 -0.34098689612E+03  0.36558208018E+03  0.79287578484E+02 0.  0.
         25    2    1    2    0    0 -0.11932635699E+02  0.33665337746E+01 -0.75791220816E+01  0.12593050310E+03  0.12508927682E+03 0.  0.
         24    2    1    2    0    0  0.11270067378E+03  0.27251703060E+02  0.10649587543E+04  0.10742586211E+04  0.80314005269E+02 0.  0.
        -13    1    5    5    0    0  0.11050862185E+03 -0.20913641196E+01  0.78164688653E+03  0.78942281733E+03  0.00000000000E+00 0.  1.
         14    1    5    5    0    0  0.21920519285E+01  0.29343067180E+02  0.28331186773E+03  0.28483580372E+03  0.00000000000E+00 0. -1.
         13    1    3    3    0    0 -0.69771821103E+02 -0.91002212566E+01 -0.30646794015E+03  0.31444159932E+03  0.00000000000E+00 0. -1.
        -14    1    3    3    0    0 -0.30996216975E+02 -0.21518015578E+02 -0.34518955969E+02  0.51140480858E+02  0.00000000000E+00 0.  1.
          5    1    4    4  501    0  0.31421783841E+02  0.50543508027E+02  0.70507436603E+01  0.60076285584E+02  0.41800000000E+01 0. -1.
         -5    1    4    4    0  501 -0.43354419540E+02 -0.47176974252E+02 -0.14629865742E+02  0.65854217517E+02  0.41800000000E+01 0. -1.
</event>
<event>
11    1  0.1078607E-008  0.3063211E+03  0.7561462E-02  0.9975510E-01
         22   -1    0    0    0    0  0.00000000000E+00  0.00000000000E+00  0.55666392220E+03  0.55666392220E+03  0.00000000000E+00 0.  1.
         22   -1    0    0    0    0 -0.00000000000E+00 -0.00000000000E+00 -0.52790792342E+03  0.52790792342E+03  0.00000000000E+00 0. -1.
         24    2    1    2    0    0 -0.19338658274E+02 -0.18296554558E+02 -0.33081485331E+03  0.34227612387E+03  0.83700240075E+02 0.  0.
         25    2    1    2    0    0 -0.57850190099E+02  0.28322954050E+03  0.48617806521E+02  0.31871382179E+03  0.12509673050E+03 0.  0.
        -24    2    1    2    0    0  0.77188848373E+02 -0.26493298594E+03  0.31095304557E+03  0.42358189997E+03  0.81130907065E+02 0.  0.
        -13    1    3    3    0    0 -0.20762061689E+02 -0.14418042486E+02 -0.22224623168E+02  0.33658238659E+02  0.00000000000E+00 0.  1.
         14    1    3    3    0    0  0.14234034143E+01 -0.38785120724E+01 -0.30859023014E+03  0.30861788521E+03  0.00000000000E+00 0. -1.
         13    1    5    5    0    0 -0.11715429138E+02 -0.91664144445E+02  0.88914828523E+02  0.12823967166E+03  0.00000000000E+00 0. -1.
        -14    1    5    5    0    0  0.88904277511E+02 -0.17326884150E+03  0.22203821704E+03  0.29534222831E+03  0.00000000000E+00 0.  1.
          5    1    4    4  501    0  0.38540173310E+02  0.61709912728E+02  0.38102323158E+01  0.72975671000E+02  0.41800000000E+01 0.  1.
         -5    1    4    4    0  501 -0.96390363409E+02  0.22151962777E+03  0.44807574205E+02  0.24573815079E+03  0.41800000000E+01 0.  1.
</event>
<event>
11    1  0.1078607E-008  0.2581853E+03  0.7561462E-02  0.1019627E+00
         22   -1    0    0    0    0  0.00000000000E+00  0.00000000000E+00  0.59008176548E+03  0.59008176548E+03  0.00000000000E+00 0.  1.
         22   -1    0    0    0    0 -0.00000000000E+00 -0.00000000000E+00 -0.56756412224E+03  0.56756412224E+03  0.00000000000E+00 0. -1.
         24    2    1    2    0    0  0.25035659438E+02  0.21491922626E+02 -0.19987759748E+03  0.21875883540E+03  0.82557174787E+02 0.  0.
         25    2    1    2    0    0 -0.15694319399E+03 -0.20181227840E+03 -0.26983356971E+03  0.39219464162E+03  0.12508844758E+03 0.  0.
        -24    2    1    2    0    0  0.13190753455E+03  0.18032035577E+03  0.49222881044E+03  0.54669241070E+03  0.81660037460E+02 0.  0.
        -11    1    3    3    0    0  0.19897509964E+02 -0.26877291478E+02 -0.42757138763E+02  0.54281420534E+02  0.00000000000E+00 0.  1.
         12    1    3    3    0    0  0.51381494737E+01  0.48369214104E+02 -0.15712045872E+03  0.16447741487E+03  0.00000000000E+00 0. -1.
         11    1    5    5    0    0  0.10565523404E+03  0.75763105755E+02  0.27510718698E+03  0.30428118739E+03  0.00000000000E+00 0. -1.
        -12    1    5    5    0    0  0.26252300513E+02  0.10455725002E+03  0.21712162346E+03  0.24241122331E+03  0.00000000000E+00 0.  1.
          5    1    4    4  501    0 -0.15001182980E+03 -0.10783498059E+03 -0.14061415686E+03  0.23221056313E+03  0.41800000000E+01 0. -1.
         -5    1    4    4    0  501 -0.69313641926E+01 -0.93977297814E+02 -0.12921941285E+03  0.15998407849E+03  0.41800000000E+01 0. -1.
</event>
<event>
11    1  0.1078607E-008  0.1420230E+03  0.7561462E-02  0.1105320E+00
         22   -1    0    0    0    0  0.00000000000E+00  0.00000000000E+00  0.81263500934E+03  0.81263500934E+03  0.00000000000E+00 0.  1.
         22   -1    0    0    0    0 -0.00000000000E+00 -0.00000000000E+00 -0.12618404051E+04  0.12618404051E+04  0.00000000000E+00 0.  1.
        -24    2    1    2    0    0 -0.68571065720E+01  0.60195153820E+02 -0.12096513168E+04  0.12138184538E+04  0.80177640300E+02 0.  0.
         25    2    1    2    0    0  0.36055563496E+02  0.49600766632E+01  0.46137531675E+02  0.13822269159E+03  0.12510889106E+03 0.  0.
         24    2    1    2    0    0 -0.29198456924E+02 -0.65155230483E+02  0.71430838940E+03  0.72243426907E+03  0.81098976640E+02 0.  0.
        -13    1    5    5    0    0 -0.34215661622E+02 -0.67452205265E+02  0.71267839522E+03  0.71668054704E+03  0.00000000000E+00 0.  1.
         14    1    5    5    0    0  0.50172046988E+01  0.22969747818E+01  0.16299941804E+01  0.57537220272E+01  0.00000000000E+00 0. -1.
         13    1    3    3    0    0  0.33737067931E+02  0.19070284163E+02 -0.66031253996E+03  0.66144880068E+03  0.00000000000E+00 0. -1.
        -14    1    3    3    0    0 -0.40594174503E+02  0.41124869657E+02 -0.54933877685E+03  0.55236965309E+03  0.00000000000E+00 0.  1.
          5    1    4    4  501    0 -0.36405728497E+02  0.34272859104E+02  0.68521426402E+01  0.50640203369E+02  0.41800000000E+01 0.  1.
         -5    1    4    4    0  501  0.72461291992E+02 -0.29312782441E+02  0.39285389034E+02  0.87582488222E+02  0.41800000000E+01 0.  1.
</event>
<event>
11    1  0.1078607E-008  0.1747838E+03  0.7561462E-02  0.1073942E+00
         22   -1    0    0    0    0  0.00000000000E+00  0.00000000000E+00  0.12810102703E+04  0.12810102703E+04  0.00000000000E+00 0.  1.
         22   -1    0    0    0    0 -0.00000000000E+00 -0.00000000000E+00 -0.99749309718E+03  0.99749309718E+03  0.00000000000E+00 0. -1.
         24    2    1    2    0    0  0.11751429212E+03 -0.15335389510E+02 -0.67985469990E+03  0.69473839452E+03  0.80088955687E+02 0.  0.
         25    2    1    2    0    0 -0.13787216933E+03 -0.15771872953E+02 -0.28032783441E+03  0.33687930084E+03  0.12508589663E+03 0.  0.
        -24    2    1    2    0    0  0.20357877209E+02  0.31107262463E+02  0.12436997075E+04  0.12468856722E+04  0.80949442051E+02 0.  0.
        -13    1    3    3    0    0 -0.11344140773E+02 -0.78822236391E+01 -0.56950694029E+02  0.58602052266E+02  0.00000000000E+00 0.  1.
         14    1    3    3    0    0  0.12885843289E+03 -0.74531658712E+01 -0.62290400587E+03  0.63613634225E+03  0.00000000000E+00 0. -1.
         13    1    5    5    0    0 -0.66284082376E+01 -0.16084189900E+02  0.75004273361E+03  0.75024445296E+03  0.00000000000E+00 0. -1.
        -14    1    5    5    0    0  0.26986285447E+02  0.47191452363E+02  0.49365697384E+03  0.49664121919E+03  0.00000000000E+00 0.  1.
          5    1    4    4  501    0 -0.13590981853E+03 -0.26195651741E+02 -0.29036230124E+03  0.32169151267E+03  0.41800000000E+01 0. -1.
         -5    1    4    4    0  501 -0.19623507966E+01  0.10423778788E+02  0.10034466829E+02  0.15187788167E+02  0.41800000000E+01 0. -1.
</event>
<event>
11    1  0.1078607E-008  0.1314433E+03  0.7561462E-02  0.1117508E+00
         22   -1    0    0    0    0  0.00000000000E+00  0.00000000000E+00  0.64582041622E+03  0.64582041622E+03  0.00000000000E+00 0. -1.
         22   -1    0    0    0    0 -0.00000000000E+00 -0.00000000000E+00 -0.90334912842E+03  0.90334912842E+03  0.00000000000E+00 0.  1.
         24    2    1    2    0    0  0.41484861535E+02 -0.23103391093E+01 -0.80208526892E+03  0.80725608248E+03  0.81211284227E+02 0.  0.
         25    2    1    2    0    0 -0.22944051024E+02 -0.12910558884E+02 -0.53195426093E+02  0.13843413331E+03  0.12506455893E+03 0.  0.
        -24    2    1    2    0    0 -0.18540810510E+02  0.15220897994E+02  0.59775198281E+03  0.60347932886E+03  0.79400440924E+02 0.  0.
        -11    1    3    3    0    0 -0.10607916323E+02  0.18092421225E+01 -0.53492937745E+03  0.53503760625E+03  0.00000000000E+00 0.  1.
         12    1    3    3    0    0  0.52092777858E+02 -0.41195812318E+01 -0.26715589147E+03  0.27221847623E+03  0.00000000000E+00 0. -1.
         13    1    5    5    0    0 -0.48465725827E+02 -0.84977372996E+00  0.38354950644E+03  0.38660040427E+03  0.00000000000E+00 0. -1.
        -14    1    5    5    0    0  0.29924915317E+02  0.16070671724E+02  0.21420247637E+03  0.21687892458E+03  0.00000000000E+00 0.  1.
          5    1    4    4  501    0 -0.23302205320E+01  0.20855453579E+02  0.35373320812E+02  0.41341554120E+02  0.41800000000E+01 0.  1.
         -5    1    4    4    0  501 -0.20613830492E+02 -0.33766012464E+02 -0.88568746905E+02  0.97092579189E+02  0.41800000000E+01 0.  1.
</event>
<event>
11    1  0.1078607E-008  0.1498887E+03  0.7561462E-02  0.1096993E+00
         22   -1    0    0    0    0  0.00000000000E+00  0.00000000000E+00  0.15243591748E+04  0.15243591748E+04  0.00000000000E+00 0. -1.
         22   -1    0    0    0    0 -0.00000000000E+00 -0.00000000000E+00 -0.63963451079E+02  0.63963451079E+02  0.00000000000E+00 0. -1.
         24    2    1    2    0    0 -0.78489040990E+02 -0.16750336271E+02  0.18143306786E+02  0.11568358487E+03  0.81316719716E+02 0.  0.
         25    2    1    2    0    0  0.96861255191E+02  0.20286052069E+02  0.45937304366E+03  0.48627680274E+03  0.12509160237E+03 0.  0.
        -24    2    1    2    0    0 -0.18372214201E+02 -0.35357157974E+01  0.98287937328E+03  0.98636223827E+03  0.80675666276E+02 0.  0.
        -11    1    3    3    0    0 -0.86373066937E+02  0.28311068562E+01  0.29992739441E+02  0.91476151413E+02  0.00000000000E+00 0.  1.
         12    1    3    3    0    0  0.78840259472E+01 -0.19581443128E+02 -0.11849432655E+02  0.24207433452E+02  0.00000000000E+00 0. -1.
         13    1    5    5    0    0 -0.43830151510E+02  0.12581233173E+02  0.37929344190E+03  0.38202471736E+03  0.00000000000E+00 0. -1.
        -14    1    5    5    0    0  0.25457937310E+02 -0.16116948970E+02  0.60358593138E+03  0.60433752091E+03  0.00000000000E+00 0.  1.
          5    1    4    4  501    0  0.94936234679E+02 -0.22182794685E+02  0.19057654734E+03  0.21410711766E+03  0.41800000000E+01 0.  1.
         -5    1    4    4    0  501  0.19250205118E+01  0.42468846754E+02  0.26879649631E+03  0.27216968509E+03  0.41800000000E+01 0.  1.
</event>
<event>
11    1  0.1078607E-008  0.1482292E+03  0.7561462E-02  0.1098702E+00
         22   -1    0    0    0    0  0.00000000000E+00  0.00000000000E+00  0.66460472363E+02  0.66460472363E+02  0.00000000000E+00 0. -1.
         22   -1    0    0    0    0 -0.00000000000E+00 -0.00000000000E+00 -0.44408083495E+04  0.44408083495E+04  0.00000000000E+00 0.  1.
        -24    2    1    2    0    0 -0.42311767213E+02 -0.19655793228E+02 -0.31256252897E+04  0.31270562233E+04  0.82283269476E+02 0.  0.
         25    2    1    2    0    0 -0.83189412660E+01  0.81555154107E+02 -0.12566779096E+04  0.12655466276E+04  0.12509376595E+03 0.  0.
         24    2    1    2    0    0  0.50630708479E+02 -0.61899360879E+02  0.79553220976E+01  0.11466597096E+03  0.81792409362E+02 0.  0.
        -13    1    5    5    0    0  0.75071125739E+01 -0.34410607133E+00 -0.29676564854E+02  0.30613292044E+02  0.00000000000E+00 0.  1.
         14    1    5    5    0    0  0.43123595906E+02 -0.61555254808E+02  0.37631886952E+02  0.84052678921E+02  0.00000000000E+00 0. -1.
         13    1    3    3    0    0  0.42257774750E+01  0.10798678559E+02 -0.72266898374E+02  0.73191346855E+02  0.00000000000E+00 0. -1.
        -14    1    3    3    0    0 -0.46537544688E+02 -0.30454471787E+02 -0.30533583913E+04  0.30538648764E+04  0.00000000000E+00 0.  1.
          5    1    4    4  501    0  0.55112904323E+02  0.44840010375E+02 -0.45734910472E+03  0.46285390215E+03  0.41800000000E+01 0. -1.
         -5    1    4    4    0  501 -0.63431845589E+02  0.36715143732E+02 -0.79932880486E+03  0.80269272546E+03  0.41800000000E+01 0. -1.
</event>
<event>
11    1  0.1078607E-008  0.1405504E+03  0.7561462E-02  0.1106945E+00
         22   -1    0    0    0    0  0.00000000000E+00  0.00000000000E+00  0.12283248287E+04  0.12283248287E+04  0.00000000000E+00 0. -1.
         22   -1    0    0    0    0 -0.00000000000E+00 -0.00000000000E+00 -0.12490831413E+03  0.12490831413E+03  0.00000000000E+00 0. -1.
         24    2    1    2    0    0 -0.40808048815E+02  0.42051188956E+02 -0.36101995098E+02  0.10689471131E+03  0.81789522043E+02 0.  0.
         25    2    1    2    0    0  0.59044631044E+02 -0.54853780341E+02  0.55009112716E+02  0.15865966550E+03  0.12510667968E+03 0.  0.
        -24    2    1    2    0    0 -0.18236582229E+02  0.12802591385E+02  0.10845093970E+04  0.10876787660E+04  0.79924881533E+02 0.  0.
        -13    1    3    3    0    0 -0.96913676170E+01  0.11510461119E+02  0.26577987336E+02  0.30541819400E+02  0.00000000000E+00 0.  1.
         14    1    3    3    0    0 -0.31116681198E+02  0.30540727837E+02 -0.62679982434E+02  0.76352891913E+02  0.00000000000E+00 0. -1.
         11    1    5    5    0    0 -0.83041727942E+01  0.23350931062E+02  0.10494624024E+04  0.10497549997E+04  0.00000000000E+00 0. -1.
        -12    1    5    5    0    0 -0.99324094346E+01 -0.10548339677E+02  0.35046994529E+02  0.37923766329E+02  0.00000000000E+00 0.  1.
          5    1    4    4  501    0  0.50830830810E+02  0.31809186197E+02  0.33816639718E+02  0.68968363828E+02  0.41800000000E+01 0.  1.
         -5    1    4    4    0  501  0.82138002343E+01 -0.86662966538E+02  0.21192472998E+02  0.89691301670E+02  0.41800000000E+01 0.  1.
</event>
<event>
11    1  0.1078607E-008  0.1721318E+03  0.7561462E-02  0.1076191E+00
         22   -1    0    0    0    0  0.00000000000E+00  0.00000000000E+00  0.15355932831E+04  0.15355932831E+04  0.00000000000E+00 0.  1.
         22   -1    0    0    0    0 -0.00000000000E+00 -0.00000000000E+00 -0.12788740323E+04  0.12788740323E+04  0.00000000000E+00 0. -1.
         24    2    1    2    0    0  0.71731767841E+02  0.94364387777E+02 -0.12553838380E+04  0.12634683448E+04  0.79458123551E+02 0.  0.
         25    2    1    2    0    0 -0.13326584204E+03  0.63087706617E+01  0.57935730556E+03  0.60753759004E+03  0.12508977002E+03 0.  0.
        -24    2    1    2    0    0  0.61534074198E+02 -0.10067315844E+03  0.93274578321E+03  0.94346138052E+03  0.78633029481E+02 0.  0.
        -13    1    3    3    0    0  0.44843285759E+02  0.55941310736E+02 -0.37233178921E+03  0.37917187631E+03  0.00000000000E+00 0.  1.
         14    1    3    3    0    0  0.26888482082E+02  0.38423077042E+02 -0.88305204875E+03  0.88429646845E+03  0.00000000000E+00 0. -1.
         11    1    5    5    0    0  0.56284248263E+01 -0.45946976787E+02  0.15429309519E+03  0.16108743920E+03  0.00000000000E+00 0. -1.
        -12    1    5    5    0    0  0.55905649372E+02 -0.54726181652E+02  0.77845268802E+03  0.78237394133E+03  0.00000000000E+00 0.  1.
          5    1    4    4  501    0 -0.88899078704E+02 -0.50827716950E+02  0.42249178467E+03  0.43474507877E+03  0.41800000000E+01 0.  1.
         -5    1    4    4    0  501 -0.44366763335E+02  0.57136487611E+02  0.15686552089E+03  0.17279251127E+03  0.41800000000E+01 0.  1.
</event>
<event>
11    1  0.1078607E-008  0.1991898E+03  0.7561462E-02  0.1055098E+00
         22   -1    0    0    0    0  0.00000000000E+00  0.00000000000E+00  0.56616564863E+03  0.56616564863E+03  0.00000000000E+00 0. -1.
         22   -1    0    0    0    0 -0.00000000000E+00 -0.00000000000E+00 -0.13002941076E+03  0.13002941076E+03  0.00000000000E+00 0.  1.
         24    2    1    2    0    0  0.24076037330E+02  0.47621003284E+02 -0.55264301824E+01  0.10154708954E+03  0.86219803034E+02 0.  0.
         25    2    1    2    0    0 -0.11040802735E+03  0.90363938406E+02  0.11577823834E+03  0.22228493656E+03  0.12510163341E+03 0.  0.
        -24    2    1    2    0    0  0.86331990022E+02 -0.13798494169E+03  0.32588442972E+03  0.37236303329E+03  0.77204341814E+02 0.  0.
        -13    1    3    3    0    0  0.46741303058E+02  0.47687636591E+02  0.17713902873E+02  0.69084314068E+02  0.00000000000E+00 0.  1.
         14    1    3    3    0    0 -0.22665265728E+02 -0.66633306887E-01 -0.23240333056E+02  0.32462775468E+02  0.00000000000E+00 0. -1.
         11    1    5    5    0    0  0.73148594040E+02 -0.10213540772E+03  0.30256772959E+03  0.32761194928E+03  0.00000000000E+00 0. -1.
        -12    1    5    5    0    0  0.13183395982E+02 -0.35849533972E+02  0.23316700129E+02  0.44751084016E+02  0.00000000000E+00 0.  1.
          5    1    4    4  501    0  0.15592373024E+02  0.48232217454E+02  0.58574325340E+02  0.77575079027E+02  0.41800000000E+01 0.  1.
         -5    1    4    4    0  501 -0.12600040038E+03  0.42131720952E+02  0.57203912996E+02  0.14470985753E+03  0.41800000000E+01 0.  1.
</event>
<event>
11    1  0.1078607E-008  0.1914580E+03  0.7561462E-02  0.1060734E+00
         22   -1    0    0    0    0  0.00000000000E+00  0.00000000000E+00  0.13658167286E+04  0.13658167286E+04  0.00000000000E+00 0.  1.
         22   -1    0    0    0    0 -0.00000000000E+00 -0.00000000000E+00 -0.41679064605E+02  0.41679064605E+02  0.00000000000E+00 0. -1.
         24    2    1    2    0    0  0.14687242380E+03  0.53383412226E+02  0.38303514387E+03  0.42188303037E+03  0.82753080336E+02 0.  0.
         25    2    1    2    0    0 -0.12538070009E+03 -0.43013897811E+02  0.42156391585E+03  0.45927630451E+03  0.12509225944E+03 0.  0.
        -24    2    1    2    0    0 -0.21491723705E+02 -0.10369514415E+02  0.51953860429E+03  0.52633645834E+03  0.80872028622E+02 0.  0.
        -13    1    3    3    0    0  0.97384956933E+02  0.61761875962E+02  0.32658134341E+03  0.34634337445E+03  0.00000000000E+00 0.  1.
         14    1    3    3    0    0  0.49487466865E+02 -0.83784637358E+01  0.56453800456E+02  0.75539655925E+02  0.00000000000E+00 0. -1.
         11    1    5    5    0    0 -0.82863067643E+01  0.92829591547E+01  0.48062260299E+03  0.48078365479E+03  0.00000000000E+00 0. -1.
        -12    1    5    5    0    0 -0.13205416941E+02 -0.19652473570E+02  0.38916001307E+02  0.45552803555E+02  0.00000000000E+00 0.  1.
          5    1    4    4  501    0 -0.11552007573E+03 -0.63262136565E+01  0.17538438169E+03  0.21014771618E+03  0.41800000000E+01 0.  1.
         -5    1    4    4    0  501 -0.98606243675E+01 -0.36687684155E+02  0.24617953417E+03  0.24912858833E+03  0.41800000000E+01 0.  1.
</event>
<event>
11    1  0.1078607E-008  0.1758900E+03  0.7561462E-02  0.1073017E+00
         22   -1    0    0    0    0  0.00000000000E+00  0.00000000000E+00  0.65224122999E+03  0.65224122999E+03  0.00000000000E+00 0.  1.
         22   -1    0    0    0    0 -0.00000000000E+00 -0.00000000000E+00 -0.31181571909E+03  0.31181571909E+03  0.00000000000E+00 0. -1.
         24    2    1    2    0    0  0.57016209718E+02  0.48415444274E+00 -0.22767937578E+03  0.24790562556E+03  0.79801118123E+02 0.  0.
         25    2    1    2    0    0  0.24442460107E+02 -0.99922522983E+02  0.39590408661E+02  0.16672380814E+03  0.12508990082E+03 0.  0.
        -24    2    1    2    0    0 -0.81458669825E+02  0.99438368540E+02  0.52851447802E+03  0.54942751538E+03  0.77585676212E+02 0.  0.
        -11    1    3    3    0    0  0.13616808427E+02 -0.35642379577E+02 -0.61295296196E+02  0.72200484966E+02  0.00000000000E+00 0.  1.
         12    1    3    3    0    0  0.43399401291E+02  0.36126534020E+02 -0.16638407958E+03  0.17570514059E+03  0.00000000000E+00 0. -1.
         11    1    5    5    0    0 -0.31346617405E+02  0.61347507232E+02  0.14209525811E+03  0.15791513368E+03  0.00000000000E+00 0. -1.
        -12    1    5    5    0    0 -0.50112052420E+02  0.38090861308E+02  0.38641921991E+03  0.39151238171E+03  0.00000000000E+00 0.  1.
          5    1    4    4  501    0  0.53000602223E+02 -0.84533579703E+02  0.70087705114E+02  0.12200306857E+03  0.41800000000E+01 0.  1.
         -5    1    4    4    0  501 -0.28558142116E+02 -0.15388943280E+02 -0.30497296453E+02  0.44720739566E+02  0.41800000000E+01 0.  1.
</event>
<event>
11    1  0.1078607E-008  0.1802095E+03  0.7561462E-02  0.1069473E+00
         22   -1    0    0    0    0  0.00000000000E+00  0.00000000000E+00  0.22142965243E+04  0.22142965243E+04  0.00000000000E+00 0.  1.
         22   -1    0    0    0    0 -0.00000000000E+00 -0.00000000000E+00 -0.10437419081E+03  0.10437419081E+03  0.00000000000E+00 0. -1.
        -24    2    1    2    0    0  0.58640712361E+02 -0.11366394790E+03 -0.53525210530E+01  0.15133204099E+03  0.80712520397E+02 0.  0.
         25    2    1    2    0    0 -0.91907796984E+02  0.10782944859E+03  0.33230417251E+03  0.38229292993E+03  0.12509031968E+03 0.  0.
         24    2    1    2    0    0  0.33267084623E+02  0.58344993116E+01  0.17829706820E+04  0.17850457442E+04  0.79139848331E+02 0.  0.
        -11    1    5    5    0    0  0.58530063449E+02  0.56573610816E+01  0.14062546015E+04  0.14074834913E+04  0.00000000000E+00 0.  1.
         12    1    5    5    0    0 -0.25262978826E+02  0.17713823002E+00  0.37671608051E+03  0.37756225287E+03  0.00000000000E+00 0. -1.
         13    1    3    3    0    0  0.52244527426E+02 -0.12599869647E+03  0.11420431272E+00  0.13640078886E+03  0.00000000000E+00 0. -1.
        -14    1    3    3    0    0  0.63961849345E+01  0.12334748568E+02 -0.54667253657E+01  0.14931252130E+02  0.00000000000E+00 0.  1.
          5    1    4    4  501    0 -0.66417690285E+02  0.12637812325E+03  0.31550303681E+03  0.34632698170E+03  0.41800000000E+01 0.  1.
         -5    1    4    4    0  501 -0.25490106699E+02 -0.18548674657E+02  0.16801135697E+02  0.35965948225E+02  0.41800000000E+01 0.  1.
</event>
<event>
11    1  0.1078607E-008  0.2082462E+03  0.7561462E-02  0.1048841E+00
         22   -1    0    0    0    0  0.00000000000E+00  0.00000000000E+00  0.87579167633E+03  0.87579167633E+03  0.00000000000E+00 0.  1.
         22   -1    0    0    0    0 -0.00000000000E+00 -0.00000000000E+00 -0.81200414029E+03  0.81200414029E+03  0.00000000000E+00 0. -1.
        -24    2    1    2    0    0  0.53607404756E+02  0.11293475816E+02 -0.73847927862E+03  0.74469867398E+03  0.78887094150E+02 0.  0.
         25    2    1    2    0    0  0.69153152378E+01 -0.16778916972E+03  0.13219368898E+03  0.24763644014E+03  0.12509039938E+03 0.  0.
         24    2    1    2    0    0 -0.60522719993E+02  0.15649569391E+03  0.67007312568E+03  0.69546070250E+03  0.80707453898E+02 0.  0.
        -13    1    5    5    0    0 -0.62353098136E+02  0.14330562349E+03  0.66129518583E+03  0.67951139312E+03  0.00000000000E+00 0.  1.
         14    1    5    5    0    0  0.18303781428E+01  0.13190070421E+02  0.87779398516E+01  0.15949309386E+02  0.00000000000E+00 0. -1.
         11    1    3    3    0    0  0.10580613516E+02 -0.29460122350E+02 -0.38646088186E+03  0.38772652915E+03  0.00000000000E+00 0. -1.
        -12    1    3    3    0    0  0.43026791240E+02  0.40753598167E+02 -0.35201839676E+03  0.35697214483E+03  0.00000000000E+00 0.  1.
          5    1    4    4  501    0  0.74193204180E+00  0.19095649261E+02  0.26069034635E+02  0.32592349572E+02  0.41800000000E+01 0.  1.
         -5    1    4    4    0  501  0.61733831960E+01 -0.18688481898E+03  0.10612465435E+03  0.21504409056E+03  0.41800000000E+01 0.  1.
</event>
<event>
11    1  0.1078607E-008  0.1339472E+03  0.7561462E-02  0.1114512E+00
         22   -1    0    0    0    0  0.00000000000E+00  0.00000000000E+00  0.30520214228E+04  0.30520214228E+04  0.00000000000E+00 0.  1.
         22   -1    0    0    0    0 -0.00000000000E+00 -0.00000000000E+00 -0.87063766870E+03  0.87063766870E+03  0.00000000000E+00 0.  1.
        -24    2    1    2    0    0 -0.12656958544E+01  0.36009915554E+02 -0.85530967068E+03  0.85988491599E+03  0.80926633315E+02 0.  0.
         25    2    1    2    0    0 -0.55438747644E+01  0.13756392939E+02  0.31309610413E+03  0.33748495977E+03  0.12508778820E+03 0.  0.
         24    2    1    2    0    0  0.68095706189E+01 -0.49766308493E+02  0.27235973206E+04  0.27252892157E+04  0.81828410065E+02 0.  0.
        -11    1    5    5    0    0 -0.23470405301E+01 -0.66688446052E+02  0.24922475576E+04  0.24931407393E+04  0.00000000000E+00 0.  1.
         12    1    5    5    0    0  0.91566111490E+01  0.16922137559E+02  0.23134976300E+03  0.23214847642E+03  0.00000000000E+00 0. -1.
         13    1    3    3    0    0 -0.40278536948E+02  0.26393386121E+02 -0.43393397235E+03  0.43659782836E+03  0.00000000000E+00 0. -1.
        -14    1    3    3    0    0  0.39012841094E+02  0.96165294328E+01 -0.42137569833E+03  0.42328708763E+03  0.00000000000E+00 0.  1.
          5    1    4    4  501    0  0.27673894040E+02  0.60162339351E+02  0.13506744069E+03  0.15048600408E+03  0.41800000000E+01 0.  1.
         -5    1    4    4    0  501 -0.33217768804E+02 -0.46405946412E+02  0.17802866344E+03  0.18699895570E+03  0.41800000000E+01 0.  1.
</event>
<event>
11    1  0.1078607E-008  0.1445032E+03  0.7561462E-02  0.1102631E+00
         22   -1    0    0    0    0  0.00000000000E+00  0.00000000000E+00  0.22090900919E+03  0.22090900919E+03  0.00000000000E+00 0.  1.
         22   -1    0    0    0    0 -0.00000000000E+00 -0.00000000000E+00 -0.23067493875E+04  0.23067493875E+04  0.00000000000E+00 0. -1.
         24    2    1    2    0    0 -0.63667470554E+02  0.33490756036E+02 -0.20946588277E+04  0.20974733713E+04  0.81386493321E+02 0.  0.
         25    2    1    2    0    0  0.98890917130E+02  0.14483749220E+02 -0.16428181924E+03  0.22940128075E+03  0.12508892435E+03 0.  0.
        -24    2    1    2    0    0 -0.35223446576E+02 -0.47974505256E+02  0.17310026861E+03  0.20078374465E+03  0.82511603910E+02 0.  0.
        -11    1    3    3    0    0 -0.12245179160E+02 -0.24794621886E+02 -0.35324208975E+03  0.35432286358E+03  0.00000000000E+00 0.  1.
         12    1    3    3    0    0 -0.51422291393E+02  0.58285377922E+02 -0.17414167380E+04  0.17431505077E+04  0.00000000000E+00 0. -1.
         11    1    5    5    0    0  0.21268700482E+02 -0.15325307644E+02  0.16098185851E+02  0.30763196555E+02  0.00000000000E+00 0. -1.
        -12    1    5    5    0    0 -0.56492147058E+02 -0.32649197612E+02  0.15700208276E+03  0.17002054810E+03  0.00000000000E+00 0.  1.
          5    1    4    4  501    0  0.35610447287E+02  0.22682455890E+02  0.10144169604E+02  0.43623094092E+02  0.41800000000E+01 0.  1.
         -5    1    4    4    0  501  0.63280469843E+02 -0.81987066701E+01 -0.17442598884E+03  0.18577818666E+03  0.41800000000E+01 0.  1.
</event>
<event>
11    1  0.1078607E-008  0.1953862E+03  0.7561462E-02  0.1057835E+00
         22   -1    0    0    0    0  0.00000000000E+00  0.00000000000E+00  0.27761321367E+03  0.27761321367E+03  0.00000000000E+00 0.  1.
         22   -1    0    0    0    0 -0.00000000000E+00 -0.00000000000E+00 -0.97587653673E+03  0.97587653673E+03  0.00000000000E+00 0. -1.
         24    2    1    2    0    0 -0.68210928803E+02  0.13954167672E+03 -0.89666390823E+03  0.91362302286E+03  0.81094101114E+02 0.  0.
         25    2    1    2    0    0  0.66158773086E+02 -0.53194738045E+02  0.70101099315E+02  0.16663811191E+03  0.12508969904E+03 0.  0.
        -24    2    1    2    0    0  0.20521557167E+01 -0.86346938672E+02  0.12829948584E+03  0.17322861563E+03  0.78021728013E+02 0.  0.
        -13    1    3    3    0    0  0.15126717199E+02  0.51693387072E+02 -0.25330935281E+03  0.25897229980E+03  0.00000000000E+00 0.  1.
         14    1    3    3    0    0 -0.83337646002E+02  0.87848289645E+02 -0.64335455541E+03  0.65465072306E+03  0.00000000000E+00 0. -1.
         13    1    5    5    0    0  0.35670289652E+01 -0.64910608791E+02  0.28222665246E+02  0.70870513352E+02  0.00000000000E+00 0. -1.
        -14    1    5    5    0    0 -0.15148732486E+01 -0.21436329882E+02  0.10007682060E+03  0.10235810227E+03  0.00000000000E+00 0.  1.
          5    1    4    4  501    0  0.57834587068E+02 -0.91628208563E+02  0.65852388531E+02  0.12686440612E+03  0.41800000000E+01 0. -1.
         -5    1    4    4    0  501  0.83241860180E+01  0.38433470518E+02  0.42487107848E+01  0.39773705790E+02  0.41800000000E+01 0. -1.
</event>
<event>
11    1  0.1078607E-008  0.1803222E+03  0.7561462E-02  0.1069383E+00
         22   -1    0    0    0    0  0.00000000000E+00  0.00000000000E+00  0.82291710933E+03  0.82291710933E+03  0.00000000000E+00 0. -1.
         22   -1    0    0    0    0 -0.00000000000E+00 -0.00000000000E+00 -0.92634601311E+03  0.92634601311E+03  0.00000000000E+00 0. -1.
        -24    2    1    2    0    0  0.81629200171E+02  0.10276998983E+03 -0.83260528895E+03  0.84684207703E+03  0.81761476943E+02 0.  0.
         25    2    1    2    0    0 -0.78007778962E+02 -0.83016975341E+02  0.41713023860E-01  0.16919403681E+03  0.12509831565E+03 0.  0.
         24    2    1    2    0    0 -0.36214212088E+01 -0.19753014490E+02  0.72913467215E+03  0.73322700860E+03  0.74707293786E+02 0.  0.
        -13    1    5    5    0    0 -0.16405140762E+02  0.25394873687E+02  0.26016369349E+03  0.26191444341E+03  0.00000000000E+00 0.  1.
         14    1    5    5    0    0  0.12783719553E+02 -0.45147888176E+02  0.46897097865E+03  0.47131256520E+03  0.00000000000E+00 0. -1.
         11    1    3    3    0    0  0.52129904867E+02  0.10204028530E+03 -0.75802089252E+03  0.76663251972E+03  0.00000000000E+00 0. -1.
        -12    1    3    3    0    0  0.29499295304E+02  0.72970453260E+00 -0.74584396430E+02  0.80209557304E+02  0.00000000000E+00 0.  1.
          5    1    4    4  501    0 -0.55598696937E+01 -0.61943508672E+02  0.48885827286E+02  0.79216203690E+02  0.41800000000E+01 0. -1.
         -5    1    4    4    0  501 -0.72447909269E+02 -0.21073466670E+02 -0.48844114262E+02  0.89977833120E+02  0.41800000000E+01 0. -1.
</event>
<event>
11    1  0.1078607E-008  0.1273318E+03  0.7561462E-02  0.1122591E+00
         22   -1    0    0    0    0  0.00000000000E+00  0.00000000000E+00  0.26599279104E+03  0.26599279104E+03  0.00000000000E+00 0.  1.
         22   -1    0    0    0    0 -0.00000000000E+00 -0.00000000000E+00 -0.36799161302E+03  0.36799161302E+03  0.00000000000E+00 0. -1.
         24    2    1    2    0    0  0.33598208292E+02 -0.24324363342E+01 -0.29921286399E+03  0.31030092029E+03  0.74990444760E+02 0.  0.
         25    2    1    2    0    0 -0.54328083750E+01 -0.36587840290E+01  0.19550295658E+02  0.12678419613E+03  0.12509642768E+03 0.  0.
        -24    2    1    2    0    0 -0.28165399917E+02  0.60912203631E+01  0.17766374636E+03  0.19689928765E+03  0.79840653732E+02 0.  0.
        -13    1    3    3    0    0 -0.22127878219E+02 -0.12716652725E+02 -0.96125782351E+02  0.99456132458E+02  0.00000000000E+00 0.  1.
         14    1    3    3    0    0  0.55726086512E+02  0.10284216391E+02 -0.20308708164E+03  0.21084478783E+03  0.00000000000E+00 0. -1.
         13    1    5    5    0    0 -0.28338943006E+01  0.33556865631E+02  0.31770369336E+02  0.46297414135E+02  0.00000000000E+00 0. -1.
        -14    1    5    5    0    0 -0.25331505617E+02 -0.27465645267E+02  0.14589337702E+03  0.15060187351E+03  0.00000000000E+00 0.  1.
          5    1    4    4  501    0  0.51029113289E+01  0.40568489453E+02 -0.36168166319E+02  0.54748978944E+02  0.41800000000E+01 0. -1.
         -5    1    4    4    0  501 -0.10535719704E+02 -0.44227273482E+02  0.55718461977E+02  0.72035217182E+02  0.41800000000E+01 0. -1.
</event>
<event>
11    1  0.1078607E-008  0.1360431E+03  0.7561462E-02  0.1112059E+00
         22   -1    0    0    0    0  0.00000000000E+00  0.00000000000E+00  0.29627190659E+03  0.29627190659E+03  0.00000000000E+00 0. -1.
         22   -1    0    0    0    0 -0.00000000000E+00 -0.00000000000E+00 -0.20345909164E+04  0.20345909164E+04  0.00000000000E+00 0. -1.
         24    2    1    2    0    0  0.23161990193E+01 -0.10945075095E+03 -0.19112348312E+04  0.19160680460E+04  0.80705297466E+02 0.  0.
         25    2    1    2    0    0  0.18442824854E+02  0.11701575017E+01 -0.63665405634E+02  0.14157183360E+03  0.12509113932E+03 0.  0.
        -24    2    1    2    0    0 -0.20759023874E+02  0.10828059345E+03  0.23658122708E+03  0.27322294340E+03  0.80774227361E+02 0.  0.
        -13    1    3    3    0    0  0.22064849344E+02 -0.54868646530E+00 -0.18982929752E+03  0.19110813910E+03  0.00000000000E+00 0.  1.
         14    1    3    3    0    0 -0.19748650325E+02 -0.10890206448E+03 -0.17214055337E+04  0.17249599069E+04  0.00000000000E+00 0. -1.
         13    1    5    5    0    0 -0.44932065464E+02  0.58670195364E+02  0.17805488244E+03  0.19278128408E+03  0.00000000000E+00 0. -1.
        -14    1    5    5    0    0  0.24173041590E+02  0.49610398084E+02  0.58526344640E+02  0.80441659323E+02  0.00000000000E+00 0.  1.
          5    1    4    4  501    0 -0.20894486673E+01 -0.67232571296E+00 -0.99719121875E+02  0.99830824323E+02  0.41800000000E+01 0. -1.
         -5    1    4    4    0  501  0.20532273522E+02  0.18424832147E+01  0.36053716240E+02  0.41741009273E+02  0.41800000000E+01 0. -1.
</event>
<event>
11    1  0.1078607E-008  0.2028817E+03  0.7561462E-02  0.1052504E+00
         22   -1    0    0    0    0  0.00000000000E+00  0.00000000000E+00  0.31654405851E+03  0.31654405851E+03  0.00000000000E+00 0. -1.
         22   -1    0    0    0    0 -0.00000000000E+00 -0.00000000000E+00 -0.14774061400E+04  0.14774061400E+04  0.00000000000E+00 0. -1.
         24    2    1    2    0    0  0.15272141811E+03  0.48944529408E+02 -0.12451576390E+04  0.12579466808E+04  0.79327845798E+02 0.  0.
         25    2    1    2    0    0 -0.16282417026E+03  0.41531990100E+01 -0.16723887482E+03  0.26484870239E+03  0.12508810665E+03 0.  0.
        -24    2    1    2    0    0  0.10102752153E+02 -0.53097728418E+02  0.25153443233E+03  0.27115481538E+03  0.85638361104E+02 0.  0.
        -13    1    3    3    0    0  0.95325839934E+02  0.25834323723E+02 -0.46680697123E+03  0.47714062543E+03  0.00000000000E+00 0.  1.
         14    1    3    3    0    0  0.57395578174E+02  0.23110205686E+02 -0.77835066779E+03  0.78080605534E+03  0.00000000000E+00 0. -1.
         11    1    5    5    0    0  0.34111531505E+02 -0.60019370358E+02  0.22190750526E+03  0.23239806861E+03  0.00000000000E+00 0. -1.
        -12    1    5    5    0    0 -0.24008779352E+02  0.69216419399E+01  0.29626927063E+02  0.38756746772E+02  0.00000000000E+00 0.  1.
          5    1    4    4  501    0 -0.11610155767E+03  0.32554970862E+02 -0.17167600531E+03  0.20983212580E+03  0.41800000000E+01 0.  1.
         -5    1    4    4    0  501 -0.46722612596E+02 -0.28401771852E+02  0.44371304948E+01  0.55016576585E+02  0.41800000000E+01 0.  1.
</event>
<event>
11    1  0.1078607E-008  0.1574925E+03  0.7561462E-02  0.1089460E+00
         22   -1    0    0    0    0  0.00000000000E+00  0.00000000000E+00  0.34971942916E+03  0.34971942916E+03  0.00000000000E+00 0. -1.
         22   -1    0    0    0    0 -0.00000000000E+00 -0.00000000000E+00 -0.30062916987E+03  0.30062916987E+03  0.00000000000E+00 0.  1.
         24    2    1    2    0    0  0.48282848229E+02  0.62380843745E+02 -0.17291382306E+03  0.20626720117E+03  0.80152136417E+02 0.  0.
         25    2    1    2    0    0 -0.13350110599E+03 -0.79633465232E+02  0.91523904893E+01  0.19973603623E+03  0.12508670525E+03 0.  0.
        -24    2    1    2    0    0  0.85218257764E+02  0.17252621487E+02  0.21285169186E+03  0.24434536163E+03  0.82698298765E+02 0.  0.
        -11    1    3    3    0    0  0.48456253264E+02  0.12149755364E+01 -0.54133303673E+02  0.72662914974E+02  0.00000000000E+00 0.  1.
         12    1    3    3    0    0 -0.17340503568E+00  0.61165868208E+02 -0.11878051939E+03  0.13360428619E+03  0.00000000000E+00 0. -1.
         11    1    5    5    0    0  0.39323354752E+02 -0.72311765686E+01  0.17628266866E+03  0.18076004928E+03  0.00000000000E+00 0. -1.
        -12    1    5    5    0    0  0.45894903012E+02  0.24483798056E+02  0.36569023199E+02  0.63585312357E+02  0.00000000000E+00 0.  1.
          5    1    4    4  501    0 -0.10469632486E+03 -0.95227663055E+02 -0.33791789966E+02  0.14556436968E+03  0.41800000000E+01 0.  1.
         -5    1    4    4    0  501 -0.28804781129E+02  0.15594197823E+02  0.42944180455E+02  0.54171666548E+02  0.41800000000E+01 0.  1.
</event>
<event>
11    1  0.1078607E-008  0.2231854E+03  0.7561462E-02  0.1039240E+00
         22   -1    0    0    0    0  0.00000000000E+00  0.00000000000E+00  0.55892145579E+03  0.55892145579E+03  0.00000000000E+00 0. -1.
         22   -1    0    0    0    0 -0.00000000000E+00 -0.00000000000E+00 -0.57079334822E+03  0.57079334822E+03  0.00000000000E+00 0.  1.
        -24    2    1    2    0    0 -0.28889257321E+02  0.61209425452E+01 -0.30232815875E+03  0.31389431220E+03  0.79090255616E+02 0.  0.
         25    2    1    2    0    0  0.19267209782E+03  0.75672766230E+02 -0.18243601890E+03  0.30295144643E+03  0.12509105914E+03 0.  0.
         24    2    1    2    0    0 -0.16378284050E+03 -0.81793708775E+02  0.47289228522E+03  0.51286904537E+03  0.76762716521E+02 0.  0.
        -13    1    5    5    0    0 -0.36755697437E+02  0.37508469760E+01  0.44001202134E+02  0.57455686719E+02  0.00000000000E+00 0.  1.
         14    1    5    5    0    0 -0.12702714307E+03 -0.85544555751E+02  0.42889108308E+03  0.45541335865E+03  0.00000000000E+00 0. -1.
         13    1    3    3    0    0 -0.20231625080E+02 -0.20290280200E+02 -0.35492560504E+02  0.45615084951E+02  0.00000000000E+00 0. -1.
        -14    1    3    3    0    0 -0.86576322409E+01  0.26411222746E+02 -0.26683559824E+03  0.26827922725E+03  0.00000000000E+00 0.  1.
          5    1    4    4  501    0  0.45952620348E+02  0.41789930862E+02  0.50352814644E+01  0.62456929942E+02  0.41800000000E+01 0.  1.
         -5    1    4    4    0  501  0.14671947748E+03  0.33882835368E+02 -0.18747130036E+03  0.24049451649E+03  0.41800000000E+01 0.  1.
</event>
<event>
11    1  0.1078607E-008  0.1797337E+03  0.7561462E-02  0.1069858E+00
         22   -1    0    0    0    0  0.00000000000E+00  0.00000000000E+00  0.70590648412E+03  0.70590648412E+03  0.00000000000E+00 0. -1.
         22   -1    0    0    0    0 -0.00000000000E+00 -0.00000000000E+00 -0.30444201811E+03  0.30444201811E+03  0.00000000000E+00 0. -1.
         24    2    1    2    0    0  0.12002601843E+02  0.97050240104E+02 -0.24187337878E+03  0.27165750039E+03  0.75711654304E+02 0.  0.
         25    2    1    2    0    0 -0.78011315102E+02 -0.17647770790E+03  0.36354708274E+03  0.43016676506E+03  0.12508724044E+03 0.  0.
        -24    2    1    2    0    0  0.66008713258E+02  0.79427467800E+02  0.27979076205E+03  0.30852423679E+03  0.78983930587E+02 0.  0.
        -11    1    3    3    0    0 -0.25911829169E+02  0.86954041779E+01 -0.60089409599E+02  0.66013408416E+02  0.00000000000E+00 0.  1.
         12    1    3    3    0    0  0.37914431012E+02  0.88354835926E+02 -0.18178396918E+03  0.20564409197E+03  0.00000000000E+00 0. -1.
         13    1    5    5    0    0  0.79470842539E+02  0.74931757787E+02  0.20385125685E+03  0.23126979495E+03  0.00000000000E+00 0. -1.
        -14    1    5    5    0    0 -0.13462129280E+02  0.44957100133E+01  0.75939505201E+02  0.77254441836E+02  0.00000000000E+00 0.  1.
          5    1    4    4  501    0 -0.10119177462E+03 -0.12861606791E+03  0.20180384657E+03  0.25985406109E+03  0.41800000000E+01 0.  1.
         -5    1    4    4    0  501  0.23180459517E+02 -0.47861639995E+02  0.16174323617E+03  0.17031270397E+03  0.41800000000E+01 0.  1.
</event>
<event>
11    1  0.1078607E-008  0.1470213E+03  0.7561462E-02  0.1099962E+00
         22   -1    0    0    0    0  0.00000000000E+00  0.00000000000E+00  0.17472800253E+03  0.17472800253E+03  0.00000000000E+00 0. -1.
         22   -1    0    0    0    0 -0.00000000000E+00 -0.00000000000E+00 -0.57757839570E+03  0.57757839570E+03  0.00000000000E+00 0. -1.
        -24    2    1    2    0    0  0.35000535558E+01 -0.12726977200E+02 -0.29597405750E+03  0.30627376884E+03  0.77645041345E+02 0.  0.
         25    2    1    2    0    0  0.59330354225E+01 -0.64941593964E+02 -0.23600784929E+03  0.27495488991E+03  0.12509146663E+03 0.  0.
         24    2    1    2    0    0 -0.94330889784E+01  0.77668571165E+02  0.12913151362E+03  0.17107773948E+03  0.80444111177E+02 0.  0.
        -13    1    5    5    0    0  0.48488523937E+01 -0.12727657398E+02  0.44097053427E+02  0.46152516219E+02  0.00000000000E+00 0.  1.
         14    1    5    5    0    0 -0.14281941372E+02  0.90396228563E+02  0.85034460190E+02  0.12492522326E+03  0.00000000000E+00 0. -1.
         13    1    3    3    0    0  0.17894905166E+02 -0.31318937228E+02 -0.26470082760E+03  0.26714720959E+03  0.00000000000E+00 0. -1.
        -14    1    3    3    0    0 -0.14394851610E+02  0.18591960028E+02 -0.31273229894E+02  0.39126559247E+02  0.00000000000E+00 0.  1.
          5    1    4    4  501    0  0.42143543053E+02 -0.43987780678E+02 -0.36658959186E+02  0.71220465869E+02  0.41800000000E+01 0.  1.
         -5    1    4    4    0  501 -0.36210507631E+02 -0.20953813286E+02 -0.19934889010E+03  0.20373442404E+03  0.41800000000E+01 0.  1.
</event>
<event>
11    1  0.1078607E-008  0.5816917E+03  0.7561462E-02  0.9227485E-01
         22   -1    0    0    0    0  0.00000000000E+00  0.00000000000E+00  0.31386390911E+04  0.31386390911E+04  0.00000000000E+00 0.  1.
         22   -1    0    0    0    0 -0.00000000000E+00 -0.00000000000E+00 -0.47067824378E+03  0.47067824378E+03  0.00000000000E+00 0.  1.
        -24    2    1    2    0    0  0.55208069443E+03 -0.11332463217E+03 -0.21988741520E+03  0.61056865691E+03  0.82510872117E+02 0.  0.
         25    2    1    2    0    0 -0.57925624527E+03  0.24451000140E+03  0.21104959286E+04  0.22057115757E+04  0.12509017478E+03 0.  0.
         24    2    1    2    0    0  0.27175550842E+02 -0.13118536922E+03  0.77735233395E+03  0.79303710236E+03  0.81750125055E+02 0.  0.
        -11    1    5    5    0    0 -0.11775185322E+02 -0.71936884327E+01  0.23208723526E+03  0.23249707291E+03  0.00000000000E+00 0.  1.
         12    1    5    5    0    0  0.38950736163E+02 -0.12399168079E+03  0.54526509870E+03  0.56054002944E+03  0.00000000000E+00 0. -1.
         11    1    3    3    0    0  0.21802345147E+03 -0.15012668042E+02 -0.55407371473E+02  0.22545416919E+03  0.00000000000E+00 0. -1.
        -12    1    3    3    0    0  0.33405724296E+03 -0.98311964129E+02 -0.16448004373E+03  0.38511448772E+03  0.00000000000E+00 0.  1.
          5    1    4    4  501    0 -0.94147250367E+02  0.26399760827E+02  0.50510293007E+03  0.51449693341E+03  0.41800000000E+01 0.  1.
         -5    1    4    4    0  501 -0.48510899491E+03  0.21811024057E+03  0.16053929985E+04  0.16912146422E+04  0.41800000000E+01 0.  1.
</event>
<event>
11    1  0.1078607E-008  0.1473180E+03  0.7561462E-02  0.1099651E+00
         22   -1    0    0    0    0  0.00000000000E+00  0.00000000000E+00  0.27161199969E+03  0.27161199969E+03  0.00000000000E+00 0.  1.
         22   -1    0    0    0    0 -0.00000000000E+00 -0.00000000000E+00 -0.46870006394E+03  0.46870006394E+03  0.00000000000E+00 0.  1.
        -24    2    1    2    0    0  0.12680136899E+02 -0.78024027843E+02 -0.30295082731E+03  0.32367798463E+03  0.82095670869E+02 0.  0.
         25    2    1    2    0    0 -0.74026368720E+02  0.24246692992E+02 -0.10181501174E+03  0.17910955378E+03  0.12508449246E+03 0.  0.
         24    2    1    2    0    0  0.61346231821E+02  0.53777334851E+02  0.20767777480E+03  0.23752452521E+03  0.81440039484E+02 0.  0.
        -13    1    5    5    0    0  0.55487052887E+02 -0.19274024339E+00  0.14110778047E+03  0.15162538012E+03  0.00000000000E+00 0.  1.
         14    1    5    5    0    0  0.58591789341E+01  0.53970075095E+02  0.66569994329E+02  0.85899145097E+02  0.00000000000E+00 0. -1.
         11    1    3    3    0    0  0.35209798656E+02 -0.17882857564E+02 -0.56073702711E+02  0.68584157440E+02  0.00000000000E+00 0. -1.
        -12    1    3    3    0    0 -0.22529661757E+02 -0.60141170279E+02 -0.24687712460E+03  0.25509382719E+03  0.00000000000E+00 0.  1.
          5    1    4    4  501    0 -0.96590136081E+02 -0.18371528364E+02 -0.75340602493E+02  0.12393888101E+03  0.41800000000E+01 0. -1.
         -5    1    4    4    0  501  0.22563767361E+02  0.42618221356E+02 -0.26474409243E+02  0.55170672769E+02  0.41800000000E+01 0. -1.
</event>
<event>
11    1  0.1078607E-008  0.1583460E+03  0.7561462E-02  0.1088643E+00
         22   -1    0    0    0    0  0.00000000000E+00  0.00000000000E+00  0.73644672966E+03  0.73644672966E+03  0.00000000000E+00 0. -1.
         22   -1    0    0    0    0 -0.00000000000E+00 -0.00000000000E+00 -0.84624997180E+03  0.84624997180E+03  0.00000000000E+00 0.  1.
         24    2    1    2    0    0  0.75920380304E+02 -0.50246476574E+02 -0.56172396473E+03  0.57463632969E+03  0.79902980496E+02 0.  0.
         25    2    1    2    0    0 -0.64167542229E+02 -0.47336324884E+02 -0.25217483805E+03  0.29257010852E+03  0.12508764259E+03 0.  0.
        -24    2    1    2    0    0 -0.11752838075E+02  0.97582801458E+02  0.70409556063E+03  0.71549026326E+03  0.80716949684E+02 0.  0.
        -13    1    3    3    0    0  0.91882795852E+02 -0.39011541029E+02 -0.50115500441E+03  0.51099969369E+03  0.00000000000E+00 0.  1.
         14    1    3    3    0    0 -0.15962415548E+02 -0.11234935545E+02 -0.60568960318E+02  0.63636635996E+02  0.00000000000E+00 0. -1.
         11    1    5    5    0    0  0.32332923730E+02  0.28918136763E+02  0.31137250245E+03  0.31437956656E+03  0.00000000000E+00 0. -1.
        -12    1    5    5    0    0 -0.44085761805E+02  0.68664664695E+02  0.39272305818E+03  0.40111069669E+03  0.00000000000E+00 0.  1.
          5    1    4    4  501    0 -0.77492338274E+02  0.18398302126E+01 -0.21713389273E+03  0.23059281697E+03  0.41800000000E+01 0.  1.
         -5    1    4    4    0  501  0.13324796045E+02 -0.49176155097E+02 -0.35040945319E+02  0.61977291555E+02  0.41800000000E+01 0.  1.
</event>
<event>
11    1  0.1078607E-008  0.1332960E+03  0.7561462E-02  0.1115284E+00
         22   -1    0    0    0    0  0.00000000000E+00  0.00000000000E+00  0.21304389136E+03  0.21304389136E+03  0.00000000000E+00 0. -1.
         22   -1    0    0    0    0 -0.00000000000E+00 -0.00000000000E+00 -0.19801281589E+04  0.19801281589E+04  0.00000000000E+00 0. -1.
         24    2    1    2    0    0  0.38635831591E+02 -0.29650545577E+02 -0.15478779114E+04  0.15514079184E+04  0.92566831651E+02 0.  0.
         25    2    1    2    0    0 -0.46487366596E+02 -0.15522682020E+02 -0.40956131177E+03  0.43103258850E+03  0.12508635151E+03 0.  0.
        -24    2    1    2    0    0  0.78515350047E+01  0.45173227597E+02  0.19035495563E+03  0.21073154337E+03  0.77913459346E+02 0.  0.
        -13    1    3    3    0    0 -0.49159526667E+00 -0.56305992303E+02 -0.94329636678E+03  0.94497547165E+03  0.00000000000E+00 0.  1.
         14    1    3    3    0    0  0.39127426858E+02  0.26655446726E+02 -0.60458154462E+03  0.60643244675E+03  0.00000000000E+00 0. -1.
         13    1    5    5    0    0  0.16906178952E+01  0.49489973427E+02  0.19546330359E+03  0.20163833640E+03  0.00000000000E+00 0. -1.
        -14    1    5    5    0    0  0.61609171095E+01 -0.43167458295E+01 -0.51083479570E+01  0.90932069720E+01  0.00000000000E+00 0.  1.
          5    1    4    4  501    0  0.10156718283E+02 -0.41134306083E+02 -0.48080264853E+02  0.64221291887E+02  0.41800000000E+01 0. -1.
         -5    1    4    4    0  501 -0.56644084879E+02  0.25611624063E+02 -0.36148104692E+03  0.36681129661E+03  0.41800000000E+01 0. -1.
</event>
<event>
11    1  0.1078607E-008  0.2497027E+03  0.7561462E-02  0.1024058E+00
         22   -1    0    0    0    0  0.00000000000E+00  0.00000000000E+00  0.16089823970E+04  0.16089823970E+04  0.00000000000E+00 0. -1.
         22   -1    0    0    0    0 -0.00000000000E+00 -0.00000000000E+00 -0.40414836557E+03  0.40414836557E+03  0.00000000000E+00 0.  1.
         24    2    1    2    0    0 -0.54537379845E+02 -0.85917805089E+02 -0.12947316287E+03  0.18312194871E+03  0.80088408425E+02 0.  0.
         25    2    1    2    0    0 -0.42879061726E+02  0.27671996605E+03 -0.14055358494E+03  0.33736563372E+03  0.12509079514E+03 0.  0.
        -24    2    1    2    0    0  0.97416441571E+02 -0.19080216096E+03  0.14748607793E+04  0.14926431802E+04  0.82909091112E+02 0.  0.
        -11    1    3    3    0    0  0.15705888011E+02 -0.42806195305E+02 -0.59800149772E+02  0.75200420128E+02  0.00000000000E+00 0.  1.
         12    1    3    3    0    0 -0.70243267856E+02 -0.43111609783E+02 -0.69673013101E+02  0.10792152858E+03  0.00000000000E+00 0. -1.
         11    1    5    5    0    0  0.80406238678E+02 -0.10997820479E+03  0.68073521040E+03  0.69423396303E+03  0.00000000000E+00 0. -1.
        -12    1    5    5    0    0  0.17010202893E+02 -0.80823956171E+02  0.79412556886E+03  0.79840921714E+03  0.00000000000E+00 0.  1.
          5    1    4    4  501    0 -0.13037462214E+02  0.26926942358E+03 -0.10294555947E+03  0.28860224966E+03  0.41800000000E+01 0. -1.
         -5    1    4    4    0  501 -0.29841599513E+02  0.74505424668E+01 -0.37608025468E+02  0.48763384051E+02  0.41800000000E+01 0. -1.
</event>
<event>
11    1  0.1078607E-008  0.2144981E+03  0.7561462E-02  0.1044720E+00
         22   -1    0    0    0    0  0.00000000000E+00  0.00000000000E+00  0.25193791450E+03  0.25193791450E+03  0.00000000000E+00 0.  1.
         22   -1    0    0    0    0 -0.00000000000E+00 -0.00000000000E+00 -0.21695934159E+04  0.21695934159E+04  0.00000000000E+00 0.  1.
         24    2    1    2    0    0  0.52507486269E+02  0.89757438389E+01 -0.16417332048E+04  0.16446174567E+04  0.81492718784E+02 0.  0.
         25    2    1    2    0    0 -0.21317446386E+03  0.48489964035E+02 -0.45292165367E+03  0.51824711106E+03  0.12508962827E+03 0.  0.
        -24    2    1    2    0    0  0.16066697760E+03 -0.57465707874E+02  0.17699935706E+03  0.25866676261E+03  0.80396121853E+02 0.  0.
        -11    1    3    3    0    0  0.17430127601E+01  0.28647745409E+02 -0.10481214376E+04  0.10485143201E+04  0.00000000000E+00 0.  1.
         12    1    3    3    0    0  0.50764473509E+02 -0.19672001570E+02 -0.59361176719E+03  0.59610313668E+03  0.00000000000E+00 0. -1.
         13    1    5    5    0    0  0.17458723238E+02 -0.26798178792E+02  0.43677676216E+01  0.32280439862E+02  0.00000000000E+00 0. -1.
        -14    1    5    5    0    0  0.14320825436E+03 -0.30667529082E+02  0.17263158944E+03  0.22638632275E+03  0.00000000000E+00 0.  1.
          5    1    4    4  501    0 -0.12851529878E+03  0.28503140355E+02 -0.13495757862E+03  0.18857261588E+03  0.41800000000E+01 0. -1.
         -5    1    4    4    0  501 -0.84659165085E+02  0.19986823680E+02 -0.31796407504E+03  0.32967449518E+03  0.41800000000E+01 0. -1.
</event>
<event>
11    1  0.1078607E-008  0.1636185E+03  0.7561462E-02  0.1083722E+00
         22   -1    0    0    0    0  0.00000000000E+00  0.00000000000E+00  0.19879760894E+03  0.19879760894E+03  0.00000000000E+00 0.  1.
         22   -1    0    0    0    0 -0.00000000000E+00 -0.00000000000E+00 -0.13712135673E+04  0.13712135673E+04  0.00000000000E+00 0. -1.
        -24    2    1    2    0    0 -0.19069331644E+02 -0.10487655175E+03 -0.12692127655E+04  0.12762241239E+04  0.80524776743E+02 0.  0.
         25    2    1    2    0    0 -0.58535878770E+02  0.83914543829E+02  0.36851263822E+02  0.16575057960E+03  0.12508852555E+03 0.  0.
         24    2    1    2    0    0  0.77605210414E+02  0.20962007926E+02  0.59945543390E+02  0.12803647273E+03  0.79610901992E+02 0.  0.
        -13    1    5    5    0    0  0.89742915661E+02  0.88149133297E+01  0.32878284278E+02  0.95981639835E+02  0.00000000000E+00 0.  1.
         14    1    5    5    0    0 -0.12137705247E+02  0.12147094596E+02  0.27067259112E+02  0.32054832890E+02  0.00000000000E+00 0. -1.
         13    1    3    3    0    0 -0.49581113195E+02 -0.66045896461E+02 -0.69435142256E+03  0.69924548282E+03  0.00000000000E+00 0. -1.
        -14    1    3    3    0    0  0.30511781550E+02 -0.38830655294E+02 -0.57486134296E+03  0.57697864106E+03  0.00000000000E+00 0.  1.
          5    1    4    4  501    0 -0.90681999268E+02  0.88866568429E+02  0.19104960406E+02  0.12846386219E+03  0.41800000000E+01 0. -1.
         -5    1    4    4    0  501  0.32146120499E+02 -0.49520245997E+01  0.17746303416E+02  0.37286717416E+02  0.41800000000E+01 0. -1.
</event>
<event>
11    1  0.1078607E-008  0.1773240E+03  0.7561462E-02  0.1071828E+00
         22   -1    0    0    0    0  0.00000000000E+00  0.00000000000E+00  0.94559335374E+03  0.94559335374E+03  0.00000000000E+00 0. -1.
         22   -1    0    0    0    0 -0.00000000000E+00 -0.00000000000E+00 -0.42171644680E+03  0.42171644680E+03  0.00000000000E+00 0.  1.
         24    2    1    2    0    0 -0.10683376979E+03  0.47901541824E+02 -0.28951800958E+03  0.32358794122E+03  0.84737628933E+02 0.  0.
         25    2    1    2    0    0  0.15600157221E+03 -0.94639950484E+02 -0.10029395098E+01  0.22122376546E+03  0.12508292353E+03 0.  0.
        -24    2    1    2    0    0 -0.49167802415E+02  0.46738408659E+02  0.81439785602E+03  0.82249809386E+03  0.93044585365E+02 0.  0.
        -11    1    3    3    0    0 -0.11905668353E+03  0.30549454840E+02 -0.23789499264E+03  0.26777190033E+03  0.00000000000E+00 0.  1.
         12    1    3    3    0    0  0.12222913737E+02  0.17352086984E+02 -0.51623016937E+02  0.55816040889E+02  0.00000000000E+00 0. -1.
         11    1    5    5    0    0 -0.63933279119E+02 -0.17980324779E+01  0.41740060158E+03  0.42227237572E+03  0.00000000000E+00 0. -1.
        -12    1    5    5    0    0  0.14765476704E+02  0.48536441137E+02  0.39699725444E+03  0.40022571813E+03  0.00000000000E+00 0.  1.
          5    1    4    4  501    0  0.86265064156E+02  0.16166345952E+02 -0.16222820775E+02  0.89351353370E+02  0.41800000000E+01 0.  1.
         -5    1    4    4    0  501  0.69736508051E+02 -0.11080629644E+03  0.15219881265E+02  0.13187241209E+03  0.41800000000E+01 0.  1.
</event>
<event>
11    1  0.1078607E-008  0.1463119E+03  0.7561462E-02  0.1100708E+00
         22   -1    0    0    0    0  0.00000000000E+00  0.00000000000E+00  0.91312232289E+03  0.91312232289E+03  0.00000000000E+00 0.  1.
         22   -1    0    0    0    0 -0.00000000000E+00 -0.00000000000E+00 -0.13248785744E+03  0.13248785744E+03  0.00000000000E+00 0. -1.
         24    2    1    2    0    0  0.74380540872E+02 -0.46822668454E+02 -0.27956352346E+02  0.12268138104E+03  0.80897073343E+02 0.  0.
         25    2    1    2    0    0 -0.51715656403E+02  0.19232078353E+02  0.30369738058E+02  0.14004977818E+03  0.12508891807E+03 0.  0.
        -24    2    1    2    0    0 -0.22664884470E+02  0.27590590100E+02  0.77822107974E+03  0.78287902111E+03  0.77437556041E+02 0.  0.
        -13    1    3    3    0    0  0.28585873164E+02 -0.42106381384E+02 -0.50258999513E+02  0.71526684041E+02  0.00000000000E+00 0.  1.
         14    1    3    3    0    0  0.45794667708E+02 -0.47162870698E+01  0.22302647168E+02  0.51154696998E+02  0.00000000000E+00 0. -1.
         11    1    5    5    0    0  0.27534175580E+01 -0.12229668093E+02  0.23104979726E+02  0.26286615948E+02  0.00000000000E+00 0. -1.
        -12    1    5    5    0    0 -0.25418302028E+02  0.39820258193E+02  0.75511610002E+03  0.75659240516E+03  0.00000000000E+00 0.  1.
          5    1    4    4  501    0  0.11994333192E+02 -0.44052074232E+02  0.24267813612E+01  0.45910902198E+02  0.41800000000E+01 0.  1.
         -5    1    4    4    0  501 -0.63709989595E+02  0.63284152585E+02  0.27942956697E+02  0.94138875984E+02  0.41800000000E+01 0.  1.
</event>
<event>
11    1  0.1078607E-008  0.1410676E+03  0.7561462E-02  0.1106372E+00
         22   -1    0    0    0    0  0.00000000000E+00  0.00000000000E+00  0.85914102222E+03  0.85914102222E+03  0.00000000000E+00 0.  1.
         22   -1    0    0    0    0 -0.00000000000E+00 -0.00000000000E+00 -0.18855931159E+04  0.18855931159E+04  0.00000000000E+00 0.  1.
        -24    2    1    2    0    0 -0.30344595637E+02  0.44953031536E+02 -0.17546246748E+04  0.17572712548E+04  0.79705357118E+02 0.  0.
         25    2    1    2    0    0 -0.31988858915E+02 -0.65317003317E+02 -0.84965778893E+02  0.16779739612E+03  0.12508870671E+03 0.  0.
         24    2    1    2    0    0  0.62333454552E+02  0.20363971781E+02  0.81313836001E+03  0.81966548721E+03  0.79733101628E+02 0.  0.
        -13    1    5    5    0    0 -0.52611627131E+01 -0.69582588340E+01  0.40319397986E+03  0.40328833679E+03  0.00000000000E+00 0.  1.
         14    1    5    5    0    0  0.67594617265E+02  0.27322230615E+02  0.40994438015E+03  0.41637715041E+03  0.00000000000E+00 0. -1.
         13    1    3    3    0    0  0.55670591334E+01 -0.17491740755E+02 -0.67312997110E+03  0.67338021290E+03  0.00000000000E+00 0. -1.
        -14    1    3    3    0    0 -0.35911654770E+02  0.62444772291E+02 -0.10814947037E+04  0.10838910419E+04  0.00000000000E+00 0.  1.
          5    1    4    4  501    0 -0.35471327129E+02  0.21489433348E+02 -0.67118048535E+02  0.79008326353E+02  0.41800000000E+01 0. -1.
         -5    1    4    4    0  501  0.34824682136E+01 -0.86806436665E+02 -0.17847730358E+02  0.88789069768E+02  0.41800000000E+01 0. -1.
</event>
<event>
11    1  0.1078607E-008  0.1500528E+03  0.7561462E-02  0.1096825E+00
         22   -1    0    0    0    0  0.00000000000E+00  0.00000000000E+00  0.23380936848E+03  0.23380936848E+03  0.00000000000E+00 0. -1.
         22   -1    0    0    0    0 -0.00000000000E+00 -0.00000000000E+00 -0.35287876022E+04  0.35287876022E+04  0.00000000000E+00 0.  1.
         24    2    1    2    0    0  0.90681453756E+02  0.47686849590E+01 -0.28822477435E+04  0.28848825676E+04  0.83363704889E+02 0.  0.
         25    2    1    2    0    0 -0.40586642379E+02 -0.13941714009E+02 -0.62734468450E+03  0.64113172490E+03  0.12508752366E+03 0.  0.
        -24    2    1    2    0    0 -0.50094811377E+02  0.91730290499E+01  0.21461419428E+03  0.23658267822E+03  0.85548095604E+02 0.  0.
        -11    1    3    3    0    0  0.30972523650E+02  0.68160631627E+01 -0.21397786070E+04  0.21400136082E+04  0.00000000000E+00 0.  1.
         12    1    3    3    0    0  0.59708930106E+02 -0.20473782037E+01 -0.74246913647E+03  0.74486895942E+03  0.00000000000E+00 0. -1.
         13    1    5    5    0    0  0.71057391197E+01 -0.18335829333E+02  0.12632390311E+03  0.12784530755E+03  0.00000000000E+00 0. -1.
        -14    1    5    5    0    0 -0.57200550496E+02  0.27508858383E+02  0.88290291170E+02  0.10873737068E+03  0.00000000000E+00 0.  1.
          5    1    4    4  501    0 -0.32209987159E+02  0.95377267532E+01 -0.36630660635E+02  0.49877141086E+02  0.41800000000E+01 0. -1.
         -5    1    4    4    0  501 -0.83766552206E+01 -0.23479440762E+02 -0.59071402386E+03  0.59125458381E+03  0.41800000000E+01 0. -1.
</event>
<event>
11    1  0.1078607E-008  0.1406803E+03  0.7561462E-02  0.1106801E+00
         22   -1    0    0    0    0  0.00000000000E+00  0.00000000000E+00  0.73565078482E+03  0.73565078482E+03  0.00000000000E+00 0.  1.
         22   -1    0    0    0    0 -0.00000000000E+00 -0.00000000000E+00 -0.59457128757E+03  0.59457128757E+03  0.00000000000E+00 0.  1.
         24    2    1    2    0    0  0.62874493893E+02 -0.15196014117E+02 -0.44328846476E+03  0.45499891891E+03  0.79594173101E+02 0.  0.
         25    2    1    2    0    0 -0.45188112381E+02  0.65759620741E+02 -0.10336462754E+03  0.18082624476E+03  0.12509033275E+03 0.  0.
        -24    2    1    2    0    0 -0.17686381512E+02 -0.50563606624E+02  0.68773258955E+03  0.69439690871E+03  0.79633320241E+02 0.  0.
        -13    1    3    3    0    0  0.40657999165E+02 -0.24906684878E+02 -0.41504919778E+03  0.41777895163E+03  0.00000000000E+00 0.  1.
         14    1    3    3    0    0  0.22216494729E+02  0.97106707615E+01 -0.28239266982E+02  0.37219967281E+02  0.00000000000E+00 0. -1.
         13    1    5    5    0    0 -0.24582362341E+02  0.93651871788E+01  0.37357507247E+03  0.37450011221E+03  0.00000000000E+00 0. -1.
        -14    1    5    5    0    0  0.68959808291E+01 -0.59928793803E+02  0.31415751708E+03  0.31989679650E+03  0.00000000000E+00 0.  1.
          5    1    4    4  501    0 -0.48285503620E+02  0.57739973583E+02 -0.13124407186E+03  0.15135347108E+03  0.41800000000E+01 0. -1.
         -5    1    4    4    0  501  0.30973912390E+01  0.80196471579E+01  0.27879444320E+02  0.29472773684E+02  0.41800000000E+01 0. -1.
</event>
<event>
11    1  0.1078607E-008  0.1290608E+03  0.7561462E-02  0.1120428E+00
         22   -1    0    0    0    0  0.00000000000E+00  0.00000000000E+00  0.14796676330E+03  0.14796676330E+03  0.00000000000E+00 0.  1.
         22   -1    0    0    0    0 -0.00000000000E+00 -0.00000000000E+00 -0.13012231041E+04  0.13012231041E+04  0.00000000000E+00 0.  1.
        -24    2    1    2    0    0  0.76239435027E+01 -0.37003501484E+02 -0.10736028949E+04  0.10771689483E+04  0.79008755755E+02 0.  0.
         25    2    1    2    0    0  0.76427312346E+01  0.63107547404E+01 -0.19156608661E+03  0.22900450081E+03  0.12508900386E+03 0.  0.
         24    2    1    2    0    0 -0.15266674737E+02  0.30692746743E+02  0.11191264076E+03  0.14301641830E+03  0.82183579141E+02 0.  0.
        -13    1    5    5    0    0  0.24695553419E+02  0.36368509648E+02  0.35137852517E+02  0.56277948898E+02  0.00000000000E+00 0.  1.
         14    1    5    5    0    0 -0.39962228156E+02 -0.56757629047E+01  0.76774788247E+02  0.86738469401E+02  0.00000000000E+00 0. -1.
         11    1    3    3    0    0  0.27938807623E+02  0.10216428574E+02 -0.21760599781E+03  0.21962996759E+03  0.00000000000E+00 0. -1.
        -12    1    3    3    0    0 -0.20314864120E+02 -0.47219930057E+02 -0.85599689712E+03  0.85753898068E+03  0.00000000000E+00 0.  1.
          5    1    4    4  501    0  0.51123156914E+02 -0.25738199866E+02 -0.15035330580E+03  0.16093359211E+03  0.41800000000E+01 0. -1.
         -5    1    4    4    0  501 -0.43480425679E+02  0.32048954606E+02 -0.41212780806E+02  0.68070908694E+02  0.41800000000E+01 0. -1.
</event>
<event>
11    1  0.1078607E-008  0.1264849E+03  0.7561462E-02  0.1123665E+00
         22   -1    0    0    0    0  0.00000000000E+00  0.00000000000E+00  0.58945670098E+03  0.58945670098E+03  0.00000000000E+00 0.  1.
         22   -1    0    0    0    0 -0.00000000000E+00 -0.00000000000E+00 -0.66316046072E+03  0.66316046072E+03  0.00000000000E+00 0. -1.
         24    2    1    2    0    0 -0.21414778975E+01  0.18431460485E+02 -0.62044044641E+03  0.62644088425E+03  0.84483899400E+02 0.  0.
         25    2    1    2    0    0  0.15630805003E+02 -0.18863636899E+02  0.75771680085E+02  0.14830231141E+03  0.12510822997E+03 0.  0.
        -24    2    1    2    0    0 -0.13489327105E+02  0.43217641330E+00  0.47096500659E+03  0.47787396603E+03  0.79833209017E+02 0.  0.
        -13    1    3    3    0    0  0.40386520224E+02  0.12361163413E+02 -0.25351239085E+03  0.25700661799E+03  0.00000000000E+00 0.  1.
         14    1    3    3    0    0 -0.42527998121E+02  0.60702970724E+01 -0.36692805556E+03  0.36943426626E+03  0.00000000000E+00 0. -1.
         13    1    5    5    0    0 -0.43257673298E+02  0.17647301951E+01  0.16956974850E+03  0.17500925740E+03  0.00000000000E+00 0. -1.
        -14    1    5    5    0    0  0.29768346193E+02 -0.13325537818E+01  0.30139525809E+03  0.30286470863E+03  0.00000000000E+00 0.  1.
          5    1    4    4  501    0 -0.27583446131E+02 -0.50698232038E+02  0.74652070188E+02  0.94454016408E+02  0.41800000000E+01 0. -1.
         -5    1    4    4    0  501  0.43214251134E+02  0.31834595140E+02  0.11196098968E+01  0.53848295007E+02  0.41800000000E+01 0. -1.
</event>
<event>
11    1  0.1078607E-008  0.2228487E+03  0.7561462E-02  0.1039448E+00
         22   -1    0    0    0    0  0.00000000000E+00  0.00000000000E+00  0.15680375899E+04  0.15680375899E+04  0.00000000000E+00 0.  1.
         22   -1    0    0    0    0 -0.00000000000E+00 -0.00000000000E+00 -0.61372304696E+02  0.61372304696E+02  0.00000000000E+00 0.  1.
        -24    2    1    2    0    0 -0.22277584158E+03 -0.11743842185E+03  0.61654012255E+03  0.67020306501E+03  0.75030441278E+02 0.  0.
         25    2    1    2    0    0  0.97990407969E+02  0.11165000736E+03  0.36609977487E+03  0.41442072507E+03  0.12509055924E+03 0.  0.
         24    2    1    2    0    0  0.12478543361E+03  0.57884144906E+01  0.52402538776E+03  0.54478610449E+03  0.81144207715E+02 0.  0.
        -13    1    5    5    0    0  0.13476251772E+03  0.43177823546E+01  0.44102463219E+03  0.46117491869E+03  0.00000000000E+00 0.  1.
         14    1    5    5    0    0 -0.99770841147E+01  0.14706321360E+01  0.83000755567E+02  0.83611185800E+02  0.00000000000E+00 0. -1.
         11    1    3    3    0    0 -0.65829365923E+02  0.10970593932E+01  0.14209110448E+03  0.15660329157E+03  0.00000000000E+00 0. -1.
        -12    1    3    3    0    0 -0.15694647565E+03 -0.11853548125E+03  0.47444901807E+03  0.51359977344E+03  0.00000000000E+00 0.  1.
          5    1    4    4  501    0 -0.25034603983E+02 -0.44845702699E+00  0.73635693600E+02  0.77888511875E+02  0.41800000000E+01 0. -1.
         -5    1    4    4    0  501  0.12302501195E+03  0.11209846439E+03  0.29246408127E+03  0.33653221319E+03  0.41800000000E+01 0. -1.
</event>
<event>
11    1  0.1078607E-008  0.1447976E+03  0.7561462E-02  0.1102316E+00
         22   -1    0    0    0    0  0.00000000000E+00  0.00000000000E+00  0.12516484966E+04  0.12516484966E+04  0.00000000000E+00 0. -1.
         22   -1    0    0    0    0 -0.00000000000E+00 -0.00000000000E+00 -0.80809968827E+03  0.80809968827E+03  0.00000000000E+00 0.  1.
         24    2    1    2    0    0  0.31136250691E+02 -0.65195778693E+02 -0.76955210075E+03  0.77702428620E+03  0.79601192830E+02 0.  0.
         25    2    1    2    0    0 -0.48344563104E+02  0.10147608341E+03  0.18244253683E+03  0.24812659032E+03  0.12508770241E+03 0.  0.
        -24    2    1    2    0    0  0.17208312413E+02 -0.36280304721E+02  0.10306583723E+04  0.10345973084E+04  0.80762142208E+02 0.  0.
        -11    1    3    3    0    0  0.36979206218E+02 -0.10431362074E+02 -0.14351592515E+03  0.14857017123E+03  0.00000000000E+00 0.  1.
         12    1    3    3    0    0 -0.58429555273E+01 -0.54764416618E+02 -0.62603617560E+03  0.62845411497E+03  0.00000000000E+00 0. -1.
         11    1    5    5    0    0 -0.19997327140E+02 -0.18447068588E+02  0.78702434247E+03  0.78749444637E+03  0.00000000000E+00 0. -1.
        -12    1    5    5    0    0  0.37205639553E+02 -0.17833236133E+02  0.24363402980E+03  0.24710286199E+03  0.00000000000E+00 0.  1.
          5    1    4    4  501    0 -0.22849940561E+02  0.73352324837E+02  0.17615371763E+02  0.78933244358E+02  0.41800000000E+01 0. -1.
         -5    1    4    4    0  501 -0.25494622543E+02  0.28123758577E+02  0.16482716506E+03  0.16919334596E+03  0.41800000000E+01 0. -1.
</event>
<event>
11    1  0.1078607E-008  0.1531924E+03  0.7561462E-02  0.1093661E+00
         22   -1    0    0    0    0  0.00000000000E+00  0.00000000000E+00  0.37576214230E+03  0.37576214230E+03  0.00000000000E+00 0. -1.
         22   -1    0    0    0    0 -0.00000000000E+00 -0.00000000000E+00 -0.15779763950E+04  0.15779763950E+04  0.00000000000E+00 0. -1.
        -24    2    1    2    0    0 -0.69232009360E+02  0.23590153866E+02 -0.14954312903E+04  0.14993988184E+04  0.80823920190E+02 0.  0.
         25    2    1    2    0    0  0.13507969359E+03 -0.62885830651E+02  0.73075026508E+02  0.20782077961E+03  0.12509342756E+03 0.  0.
         24    2    1    2    0    0 -0.65847684231E+02  0.39295676785E+02  0.22014201109E+03  0.24651893931E+03  0.80181136557E+02 0.  0.
        -13    1    5    5    0    0 -0.32339225552E+02  0.57002571992E+02  0.92462210016E+02  0.11333304463E+03  0.00000000000E+00 0.  1.
         14    1    5    5    0    0 -0.33508458679E+02 -0.17706895207E+02  0.12767980107E+03  0.13318589468E+03  0.00000000000E+00 0. -1.
         13    1    3    3    0    0 -0.56721427289E+02  0.42657776699E+02 -0.13748043505E+04  0.13766350309E+04  0.00000000000E+00 0. -1.
        -14    1    3    3    0    0 -0.12510582071E+02 -0.19067622833E+02 -0.12062693984E+03  0.12276378749E+03  0.00000000000E+00 0.  1.
          5    1    4    4  501    0  0.92054521991E+02  0.13245990628E+02 -0.10571831330E+01  0.93102531238E+02  0.41800000000E+01 0. -1.
         -5    1    4    4    0  501  0.43025171599E+02 -0.76131821279E+02  0.74132209641E+02  0.11471824837E+03  0.41800000000E+01 0. -1.
</event>
<event>
11    1  0.1078607E-008  0.1366440E+03  0.7561462E-02  0.1111365E+00
         22   -1    0    0    0    0  0.00000000000E+00  0.00000000000E+00  0.22741319947E+03  0.22741319947E+03  0.00000000000E+00 0. -1.
         22   -1    0    0    0    0 -0.00000000000E+00 -0.00000000000E+00 -0.25160951495E+04  0.25160951495E+04  0.00000000000E+00 0.  1.
        -24    2    1    2    0    0  0.12050174828E+02  0.53527994307E+02 -0.24453711935E+04  0.24473384389E+04  0.81330854269E+02 0.  0.
         25    2    1    2    0    0 -0.64768734750E+02 -0.61522074750E+02  0.10539450578E+03  0.18637251776E+03  0.12508700509E+03 0.  0.
         24    2    1    2    0    0  0.52718559922E+02  0.79940804431E+01  0.51294737621E+02  0.10979739234E+03  0.81124382117E+02 0.  0.
        -13    1    5    5    0    0 -0.17367194245E+02 -0.38248155662E+00 -0.65228316854E+01  0.18555674638E+02  0.00000000000E+00 0.  1.
         14    1    5    5    0    0  0.70085754166E+02  0.83765619998E+01  0.57817569306E+02  0.91241717698E+02  0.00000000000E+00 0. -1.
         13    1    3    3    0    0 -0.27136495830E+02 -0.49341070648E+01 -0.75013721046E+03  0.75064410297E+03  0.00000000000E+00 0. -1.
        -14    1    3    3    0    0  0.39186670658E+02  0.58462101371E+02 -0.16952339830E+04  0.16966943359E+04  0.00000000000E+00 0.  1.
          5    1    4    4  501    0 -0.29848205649E+02 -0.96779997248E+02  0.85992420577E+02  0.13292649113E+03  0.41800000000E+01 0. -1.
         -5    1    4    4    0  501 -0.34920529101E+02  0.35257922499E+02  0.19402085206E+02  0.53446026624E+02  0.41800000000E+01 0. -1.
</event>
<event>
11    1  0.1078607E-008  0.1971138E+03  0.7561462E-02  0.1056584E+00
         22   -1    0    0    0    0  0.00000000000E+00  0.00000000000E+00  0.99648018792E+03  0.99648018792E+03  0.00000000000E+00 0.  1.
         22   -1    0    0    0    0 -0.00000000000E+00 -0.00000000000E+00 -0.55897346481E+03  0.55897346481E+03  0.00000000000E+00 0. -1.
         24    2    1    2    0    0 -0.87089870207E+01 -0.85750393028E+02 -0.42554739053E+03  0.44160277399E+03  0.80581958621E+02 0.  0.
         25    2    1    2    0    0 -0.10090539020E+03 -0.26155426144E+02 -0.60818402712E+02  0.17381019970E+03  0.12508038744E+03 0.  0.
        -24    2    1    2    0    0  0.10961437722E+03  0.11190581917E+03  0.92387251635E+03  0.94004067904E+03  0.74818632158E+02 0.  0.
        -11    1    3    3    0    0  0.58329136741E+01 -0.53058195115E+02 -0.93742457212E+02  0.10787420097E+03  0.00000000000E+00 0.  1.
         12    1    3    3    0    0 -0.14541900695E+02 -0.32692197912E+02 -0.33180493331E+03  0.33372857302E+03  0.00000000000E+00 0. -1.
         11    1    5    5    0    0 -0.11030758676E+02  0.15970445223E+02  0.11054963710E+03  0.11224061217E+03  0.00000000000E+00 0. -1.
        -12    1    5    5    0    0  0.12064513590E+03  0.95935373949E+02  0.81332287925E+03  0.82780006687E+03  0.00000000000E+00 0.  1.
          5    1    4    4  501    0 -0.81496143754E+02 -0.11280356295E+02 -0.98679209858E+02  0.12854542677E+03  0.41800000000E+01 0.  1.
         -5    1    4    4    0  501 -0.19409246447E+02 -0.14875069850E+02  0.37860807147E+02  0.45264772931E+02  0.41800000000E+01 0.  1.
</event>
<event>
11    1  0.1078607E-008  0.1251304E+03  0.7561462E-02  0.1125401E+00
         22   -1    0    0    0    0  0.00000000000E+00  0.00000000000E+00  0.61633417156E+03  0.61633417156E+03  0.00000000000E+00 0. -1.
         22   -1    0    0    0    0 -0.00000000000E+00 -0.00000000000E+00 -0.52240763305E+03  0.52240763305E+03  0.00000000000E+00 0. -1.
        -24    2    1    2    0    0 -0.58810396446E+00  0.18559861900E+01 -0.48241552429E+03  0.49241977515E+03  0.98735537314E+02 0.  0.
         25    2    1    2    0    0  0.40414472931E+02 -0.24074256213E+02  0.11639697583E+03  0.17722436464E+03  0.12508924816E+03 0.  0.
         24    2    1    2    0    0 -0.39826368966E+02  0.22218270023E+02  0.45994508698E+03  0.46909766483E+03  0.80145772963E+02 0.  0.
        -13    1    5    5    0    0  0.14254210683E+02 -0.19316910074E+02  0.12359220997E+03  0.12590218387E+03  0.00000000000E+00 0.  1.
         14    1    5    5    0    0 -0.54080579649E+02  0.41535180097E+02  0.33635287701E+03  0.34319548096E+03  0.00000000000E+00 0. -1.
         13    1    3    3    0    0  0.93823066542E+01  0.20810897848E+02 -0.46284512789E+03  0.46340774008E+03  0.00000000000E+00 0. -1.
        -14    1    3    3    0    0 -0.99704106187E+01 -0.18954911658E+02 -0.19570396397E+02  0.29012035071E+02  0.00000000000E+00 0.  1.
          5    1    4    4  501    0 -0.45259265537E+02 -0.72236032444E+01  0.44861591031E+02  0.64269870939E+02  0.41800000000E+01 0. -1.
         -5    1    4    4    0  501  0.85673738468E+02 -0.16850652968E+02  0.71535384795E+02  0.11295449370E+03  0.41800000000E+01 0. -1.
</event>
<event>
11    1  0.1078607E-008  0.2057135E+03  0.7561462E-02  0.1050555E+00
         22   -1    0    0    0    0  0.00000000000E+00  0.00000000000E+00  0.35989325277E+03  0.35989325277E+03  0.00000000000E+00 0. -1.
         22   -1    0    0    0    0 -0.00000000000E+00 -0.00000000000E+00 -0.25283047233E+03  0.25283047233E+03  0.00000000000E+00 0.  1.
        -24    2    1    2    0    0  0.33648447625E+02  0.56203928355E+00 -0.10780860546E+03  0.13903246275E+03  0.81085118059E+02 0.  0.
         25    2    1    2    0    0 -0.15013568735E+03 -0.10510299860E+03  0.34011023946E+02  0.22446209066E+03  0.12505644910E+03 0.  0.
         24    2    1    2    0    0  0.11648723972E+03  0.10454095932E+03  0.18086036196E+03  0.24922917170E+03  0.70047271930E+02 0.  0.
        -11    1    5    5    0    0  0.40760756530E+02  0.21093588513E+02  0.14187406119E+02  0.48038122795E+02  0.00000000000E+00 0.  1.
         12    1    5    5    0    0  0.75726483190E+02  0.83447370808E+02  0.16667295584E+03  0.20119104890E+03  0.00000000000E+00 0. -1.
         11    1    3    3    0    0 -0.58345165175E+01 -0.32085018549E+02 -0.63128477338E+02  0.71054167008E+02  0.00000000000E+00 0. -1.
        -12    1    3    3    0    0  0.39482964143E+02  0.32647057832E+02 -0.44680128126E+02  0.67978295742E+02  0.00000000000E+00 0.  1.
          5    1    4    4  501    0  0.41673109559E+01 -0.41273563931E+02  0.39364289005E+02  0.57340153549E+02  0.41800000000E+01 0.  1.
         -5    1    4    4    0  501 -0.15430299830E+03 -0.63829434674E+02 -0.53532650596E+01  0.16712193711E+03  0.41800000000E+01 0.  1.
</event>
<event>
11    1  0.1078607E-008  0.1923223E+03  0.7561462E-02  0.1060090E+00
         22   -1    0    0    0    0  0.00000000000E+00  0.00000000000E+00  0.69692221636E+03  0.69692221636E+03  0.00000000000E+00 0. -1.
         22   -1    0    0    0    0 -0.00000000000E+00 -0.00000000000E+00 -0.55679569206E+03  0.55679569206E+03  0.00000000000E+00 0.  1.
        -24    2    1    2    0    0 -0.80449505664E+02  0.38143260976E+02 -0.49904871169E+03  0.51331366787E+03  0.80711050452E+02 0.  0.
         25    2    1    2    0    0 -0.95290296832E+02  0.35861238858E+01  0.17281907303E+03  0.23368018776E+03  0.12508755811E+03 0.  0.
         24    2    1    2    0    0  0.17573980250E+03 -0.41729384862E+02  0.46635616295E+03  0.50672405280E+03  0.81580483043E+02 0.  0.
        -11    1    5    5    0    0  0.18521017330E+00 -0.13969323535E+02  0.83030222965E+02  0.84197352859E+02  0.00000000000E+00 0.  1.
         12    1    5    5    0    0  0.17555459232E+03 -0.27760061327E+02  0.38332593999E+03  0.42252669994E+03  0.00000000000E+00 0. -1.
         13    1    3    3    0    0 -0.18259831510E+02  0.41648244003E+02 -0.10575261546E+03  0.11511565207E+03  0.00000000000E+00 0. -1.
        -14    1    3    3    0    0 -0.62189674154E+02 -0.35049830267E+01 -0.39329609622E+03  0.39819801579E+03  0.00000000000E+00 0.  1.
          5    1    4    4  501    0 -0.76203663744E+01 -0.49441311950E+02  0.84780343454E+02  0.98527622254E+02  0.41800000000E+01 0.  1.
         -5    1    4    4    0  501 -0.87669930458E+02  0.53027435836E+02  0.88038729576E+02  0.13515256551E+03  0.41800000000E+01 0.  1.
</event>
<event>
11    1  0.1078607E-008  0.2064845E+03  0.7561462E-02  0.1050031E+00
         22   -1    0    0    0    0  0.00000000000E+00  0.00000000000E+00  0.25426324544E+04  0.25426324544E+04  0.00000000000E+00 0. -1.
         22   -1    0    0    0    0 -0.00000000000E+00 -0.00000000000E+00 -0.20159846393E+03  0.20159846393E+03  0.00000000000E+00 0.  1.
        -24    2    1    2    0    0 -0.92143530113E+02 -0.12695899802E+03 -0.10743405311E+03  0.20676209816E+03  0.81237135280E+02 0.  0.
         25    2    1    2    0    0  0.10619688261E+03  0.19479316333E+03  0.33250393841E+03  0.41884228167E+03  0.12509130067E+03 0.  0.
         24    2    1    2    0    0 -0.14053352501E+02 -0.67834165311E+02  0.21159641052E+04  0.21186265385E+04  0.80469525639E+02 0.  0.
        -13    1    5    5    0    0 -0.33480831383E+02 -0.25036247165E+02  0.43472675786E+03  0.43673233649E+03  0.00000000000E+00 0.  1.
         14    1    5    5    0    0  0.19427478882E+02 -0.42797918145E+02  0.16812373473E+04  0.16818942020E+04  0.00000000000E+00 0. -1.
         11    1    3    3    0    0 -0.61899225185E+00 -0.66732162037E+02 -0.47133049847E+02  0.81701217796E+02  0.00000000000E+00 0. -1.
        -12    1    3    3    0    0 -0.91524537861E+02 -0.60226835982E+02 -0.60301003267E+02  0.12506088037E+03  0.00000000000E+00 0.  1.
          5    1    4    4  501    0 -0.78049183265E+01  0.11218566427E+03  0.12674996303E+03  0.16949798095E+03  0.41800000000E+01 0.  1.
         -5    1    4    4    0  501  0.11400180094E+03  0.82607499057E+02  0.20575397538E+03  0.24934430072E+03  0.41800000000E+01 0.  1.
</event>
<event>
11    1  0.1078607E-008  0.1613246E+03  0.7561462E-02  0.1085838E+00
         22   -1    0    0    0    0  0.00000000000E+00  0.00000000000E+00  0.10924724989E+03  0.10924724989E+03  0.00000000000E+00 0. -1.
         22   -1    0    0    0    0 -0.00000000000E+00 -0.00000000000E+00 -0.12427437057E+04  0.12427437057E+04  0.00000000000E+00 0.  1.
        -24    2    1    2    0    0 -0.41536535014E+02 -0.93322640104E+02 -0.10408993780E+04  0.10495307642E+04  0.87229071284E+02 0.  0.
         25    2    1    2    0    0  0.72322325662E+01  0.10475659407E+03 -0.12897180875E+03  0.20810798729E+03  0.12509579421E+03 0.  0.
         24    2    1    2    0    0  0.34304302448E+02 -0.11433953968E+02  0.36374730937E+02  0.94352204158E+02  0.79194045919E+02 0.  0.
        -11    1    5    5    0    0 -0.18300910104E+02 -0.25885533422E+02  0.72885265119E+01  0.32528553148E+02  0.00000000000E+00 0.  1.
         12    1    5    5    0    0  0.52605212552E+02  0.14451579454E+02  0.29086204425E+02  0.61823651011E+02  0.00000000000E+00 0. -1.
         11    1    3    3    0    0 -0.36012865435E+02 -0.17756007072E+02 -0.14572216961E+03  0.15115274718E+03  0.00000000000E+00 0. -1.
        -12    1    3    3    0    0 -0.55236695791E+01 -0.75566633032E+02 -0.89517720840E+03  0.89837801698E+03  0.00000000000E+00 0.  1.
          5    1    4    4  501    0 -0.16471393787E+02  0.22139728761E+02  0.21186628854E+02  0.35040263199E+02  0.41800000000E+01 0. -1.
         -5    1    4    4    0  501  0.23703626353E+02  0.82616865311E+02 -0.15015843761E+03  0.17306772409E+03  0.41800000000E+01 0. -1.
</event>
<event>
11    1  0.1078607E-008  0.1363234E+03  0.7561462E-02  0.1111735E+00
         22   -1    0    0    0    0  0.00000000000E+00  0.00000000000E+00  0.94454106841E+02  0.94454106841E+02  0.00000000000E+00 0. -1.
         22   -1    0    0    0    0 -0.00000000000E+00 -0.00000000000E+00 -0.28047603201E+04  0.28047603201E+04  0.00000000000E+00 0. -1.
        -24    2    1    2    0    0 -0.22613215975E+02 -0.51180667120E+02 -0.22917403505E+04  0.22938123344E+04  0.79814618402E+02 0.  0.
         25    2    1    2    0    0  0.12396439320E+02  0.37467527709E+02 -0.48315236382E+03  0.50064088972E+03  0.12509039314E+03 0.  0.
         24    2    1    2    0    0  0.10216776655E+02  0.13713139410E+02  0.64586501048E+02  0.10476120279E+03  0.80691144338E+02 0.  0.
        -11    1    5    5    0    0  0.21640856315E+02 -0.23931087511E+02  0.55793382750E+02  0.64450951663E+02  0.00000000000E+00 0.  1.
         12    1    5    5    0    0 -0.11424079660E+02  0.37644226921E+02  0.87931182978E+01  0.40310251127E+02  0.00000000000E+00 0. -1.
         11    1    3    3    0    0  0.39566929638E+01 -0.43354325292E+02 -0.20543948035E+04  0.20548560197E+04  0.00000000000E+00 0. -1.
        -12    1    3    3    0    0 -0.26569908939E+02 -0.78263418273E+01 -0.23734554693E+03  0.23895631470E+03  0.00000000000E+00 0.  1.
          5    1    4    4  501    0  0.46178224694E+02  0.47433484189E+02 -0.43911339289E+03  0.44409504397E+03  0.41800000000E+01 0. -1.
         -5    1    4    4    0  501 -0.33781785374E+02 -0.99659564799E+01 -0.44038970923E+02  0.56545845750E+02  0.41800000000E+01 0. -1.
</event>
<event>
11    1  0.1078607E-008  0.1476452E+03  0.7561462E-02  0.1099309E+00
         22   -1    0    0    0    0  0.00000000000E+00  0.00000000000E+00  0.40970291690E+03  0.40970291690E+03  0.00000000000E+00 0.  1.
         22   -1    0    0    0    0 -0.00000000000E+00 -0.00000000000E+00 -0.12997755767E+03  0.12997755767E+03  0.00000000000E+00 0. -1.
        -24    2    1    2    0    0 -0.17708602872E+02  0.71654663434E+02 -0.48140549348E+02  0.11900505954E+03  0.79979411708E+02 0.  0.
         25    2    1    2    0    0  0.40751652661E+01 -0.10464909902E+03  0.15322720326E+03  0.22381721075E+03  0.12509007598E+03 0.  0.
         24    2    1    2    0    0  0.13633437606E+02  0.32994435582E+02  0.17463870532E+03  0.19685820429E+03  0.83546225512E+02 0.  0.
        -11    1    5    5    0    0 -0.56284294434E+01  0.14038506052E+02  0.16845785980E+03  0.16913547646E+03  0.00000000000E+00 0.  1.
         12    1    5    5    0    0  0.19261867049E+02  0.18955929530E+02  0.61808455238E+01  0.27722727823E+02  0.00000000000E+00 0. -1.
         11    1    3    3    0    0 -0.39880076420E+02  0.68088023960E+02 -0.54219830310E+02  0.95740218826E+02  0.00000000000E+00 0. -1.
        -12    1    3    3    0    0  0.22171473548E+02  0.35666394740E+01  0.60792809618E+01  0.23264840714E+02  0.00000000000E+00 0.  1.
          5    1    4    4  501    0  0.60875412343E+02 -0.72236458301E+02  0.68786451068E+02  0.11693147560E+03  0.41800000000E+01 0.  1.
         -5    1    4    4    0  501 -0.56800247077E+02 -0.32412640715E+02  0.84440752195E+02  0.10688573514E+03  0.41800000000E+01 0.  1.
</event>
<event>
11    1  0.1078607E-008  0.1764561E+03  0.7561462E-02  0.1072546E+00
         22   -1    0    0    0    0  0.00000000000E+00  0.00000000000E+00  0.82752409890E+03  0.82752409890E+03  0.00000000000E+00 0.  1.
         22   -1    0    0    0    0 -0.00000000000E+00 -0.00000000000E+00 -0.43013383695E+03  0.43013383695E+03  0.00000000000E+00 0. -1.
         24    2    1    2    0    0 -0.11576836225E+03 -0.52693164520E+02 -0.34378289901E+03  0.37541026709E+03  0.81038902385E+02 0.  0.
         25    2    1    2    0    0  0.43475282133E+02  0.13530010033E+03  0.76540253591E+02  0.20421136323E+03  0.12509057976E+03 0.  0.
        -24    2    1    2    0    0  0.72293080116E+02 -0.82606935808E+02  0.66463290737E+03  0.67803630553E+03  0.77111184529E+02 0.  0.
        -11    1    3    3    0    0 -0.73273603889E+02  0.20154938941E+01 -0.23741599599E+03  0.24847422078E+03  0.00000000000E+00 0.  1.
         12    1    3    3    0    0 -0.42494758360E+02 -0.54708658414E+02 -0.10636690302E+03  0.12693604631E+03  0.00000000000E+00 0. -1.
         13    1    5    5    0    0  0.31613773296E+02 -0.38476152245E+02  0.11744206873E+03  0.12756364867E+03  0.00000000000E+00 0. -1.
        -14    1    5    5    0    0  0.40679306820E+02 -0.44130783563E+02  0.54719083864E+03  0.55047265686E+03  0.00000000000E+00 0.  1.
          5    1    4    4  501    0 -0.25031048387E+02  0.10691793020E+03  0.68539112631E+02  0.12951092441E+03  0.41800000000E+01 0.  1.
         -5    1    4    4    0  501  0.68506330520E+02  0.28382170129E+02  0.80011409600E+01  0.74700438815E+02  0.41800000000E+01 0.  1.
</event>
<event>
11    1  0.1078607E-008  0.1406463E+03  0.7561462E-02  0.1106839E+00
         22   -1    0    0    0    0  0.00000000000E+00  0.00000000000E+00  0.51435689892E+03  0.51435689892E+03  0.00000000000E+00 0. -1.
         22   -1    0    0    0    0 -0.00000000000E+00 -0.00000000000E+00 -0.27155738509E+03  0.27155738509E+03  0.00000000000E+00 0. -1.
         24    2    1    2    0    0 -0.51601269657E+02 -0.37218120221E+02 -0.22374677365E+03  0.24628621674E+03  0.80909840771E+02 0.  0.
         25    2    1    2    0    0  0.38147451399E+02  0.75233891401E+02  0.15949847806E+03  0.21955096423E+03  0.12508994735E+03 0.  0.
        -24    2    1    2    0    0  0.13453818258E+02 -0.38015771180E+02  0.30704780941E+03  0.32007710304E+03  0.80899879747E+02 0.  0.
        -13    1    3    3    0    0 -0.63191098004E+02  0.76969898825E+00 -0.13525767379E+03  0.14929281839E+03  0.00000000000E+00 0.  1.
         14    1    3    3    0    0  0.11589828346E+02 -0.37987819209E+02 -0.88489099859E+02  0.96993398349E+02  0.00000000000E+00 0. -1.
         11    1    5    5    0    0 -0.23015270953E+02 -0.40895970666E+02  0.23060861958E+03  0.23533490718E+03  0.00000000000E+00 0. -1.
        -12    1    5    5    0    0  0.36469089212E+02  0.28801994855E+01  0.76439189826E+02  0.84742195854E+02  0.00000000000E+00 0.  1.
          5    1    4    4  501    0  0.80508306047E+00 -0.29114237131E+02  0.73617324566E+02  0.79279693734E+02  0.41800000000E+01 0. -1.
         -5    1    4    4    0  501  0.37342368338E+02  0.10434812853E+03  0.85881153498E+02  0.14027127050E+03  0.41800000000E+01 0. -1.
</event>
<event>
11    1  0.1078607E-008  0.1299036E+03  0.7561462E-02  0.1119387E+00
         22   -1    0    0    0    0  0.00000000000E+00  0.00000000000E+00  0.16956945841E+03  0.16956945841E+03  0.00000000000E+00 0.  1.
         22   -1    0    0    0    0 -0.00000000000E+00 -0.00000000000E+00 -0.10470307754E+04  0.10470307754E+04  0.00000000000E+00 0.  1.
         24    2    1    2    0    0  0.98252888365E+01  0.66746694391E+01 -0.75192705849E+03  0.75648354658E+03  0.82048567611E+02 0.  0.
         25    2    1    2    0    0 -0.39110122038E+02  0.12207695053E+02 -0.26478495294E+03  0.29569636123E+03  0.12508651915E+03 0.  0.
        -24    2    1    2    0    0  0.29284833201E+02 -0.18882364492E+02  0.13925069449E+03  0.16442032596E+03  0.80181933917E+02 0.  0.
        -13    1    3    3    0    0  0.33972397591E+02 -0.13164306465E+02 -0.61313491660E+03  0.61421645103E+03  0.00000000000E+00 0.  1.
         14    1    3    3    0    0 -0.24147108755E+02  0.19838975904E+02 -0.13879214189E+03  0.14226709555E+03  0.00000000000E+00 0. -1.
         11    1    5    5    0    0  0.53201822185E+02 -0.70220709332E+01  0.58565716348E+02  0.79433535080E+02  0.00000000000E+00 0. -1.
        -12    1    5    5    0    0 -0.23916988983E+02 -0.11860293559E+02  0.80684978147E+02  0.84986790879E+02  0.00000000000E+00 0.  1.
          5    1    4    4  501    0  0.37768390409E+02  0.91139728225E+01 -0.32055026716E+02  0.50542189827E+02  0.41800000000E+01 0. -1.
         -5    1    4    4    0  501 -0.76878512447E+02  0.30937222306E+01 -0.23272992623E+03  0.24515417140E+03  0.41800000000E+01 0. -1.
</event>
<event>
11    1  0.1078607E-008  0.6806114E+03  0.7561462E-02  0.9061375E-01
         22   -1    0    0    0    0  0.00000000000E+00  0.00000000000E+00  0.10055921000E+04  0.10055921000E+04  0.00000000000E+00 0. -1.
         22   -1    0    0    0    0 -0.00000000000E+00 -0.00000000000E+00 -0.67399365275E+03  0.67399365275E+03  0.00000000000E+00 0. -1.
         24    2    1    2    0    0  0.50061202693E+02  0.19468777535E+02 -0.57010935033E+02  0.11210593855E+03  0.80201854288E+02 0.  0.
         25    2    1    2    0    0 -0.17462462470E+02 -0.68291399353E+03 -0.14767217963E+03  0.71002129728E+03  0.12508680901E+03 0.  0.
        -24    2    1    2    0    0 -0.32598740223E+02  0.66344521600E+03  0.53628156196E+03  0.85745851697E+03  0.80093458650E+02 0.  0.
        -13    1    3    3    0    0  0.81964843482E+01  0.45669619051E+02 -0.20704648468E+02  0.50809240578E+02  0.00000000000E+00 0.  1.
         14    1    3    3    0    0  0.41864718344E+02 -0.26200841516E+02 -0.36306286565E+02  0.61296697972E+02  0.00000000000E+00 0. -1.
         11    1    5    5    0    0 -0.16106438986E+02  0.41465106285E+03  0.38347181345E+03  0.56501818821E+03  0.00000000000E+00 0. -1.
        -12    1    5    5    0    0 -0.16492301237E+02  0.24879415315E+03  0.15280974852E+03  0.29244032875E+03  0.00000000000E+00 0.  1.
          5    1    4    4  501    0 -0.22085275885E+02 -0.16692696563E+03 -0.89478729828E+02  0.19072568457E+03  0.41800000000E+01 0. -1.
         -5    1    4    4    0  501  0.46228134151E+01 -0.51598702791E+03 -0.58193449806E+02  0.51929561270E+03  0.41800000000E+01 0. -1.
</event>
<event>
11    1  0.1078607E-008  0.1458697E+03  0.7561462E-02  0.1101175E+00
         22   -1    0    0    0    0  0.00000000000E+00  0.00000000000E+00  0.17745205046E+03  0.17745205046E+03  0.00000000000E+00 0.  1.
         22   -1    0    0    0    0 -0.00000000000E+00 -0.00000000000E+00 -0.11531449844E+04  0.11531449844E+04  0.00000000000E+00 0. -1.
        -24    2    1    2    0    0 -0.11656614755E+02 -0.72791338033E+02 -0.96478384326E+03  0.97089856294E+03  0.80010622700E+02 0.  0.
         25    2    1    2    0    0  0.20266072815E+02  0.87608207699E+02 -0.13877321498E+03  0.20734619016E+03  0.12509406707E+03 0.  0.
         24    2    1    2    0    0 -0.86094580600E+01 -0.14816869666E+02  0.12786412428E+03  0.15235228178E+03  0.81045179312E+02 0.  0.
        -13    1    5    5    0    0 -0.15858202329E+02 -0.28322310711E+02  0.13243702264E+03  0.13635688773E+03  0.00000000000E+00 0.  1.
         14    1    5    5    0    0  0.72487442689E+01  0.13505441045E+02 -0.45728983613E+01  0.15995394047E+02  0.00000000000E+00 0. -1.
         13    1    3    3    0    0  0.25080399765E+02 -0.65936961540E+02 -0.56970709891E+03  0.57405826176E+03  0.00000000000E+00 0. -1.
        -14    1    3    3    0    0 -0.36737014520E+02 -0.68543764931E+01 -0.39507674435E+03  0.39684030118E+03  0.00000000000E+00 0.  1.
          5    1    4    4  501    0 -0.32173988714E+02  0.17015386176E+02  0.67618845870E+01  0.37254320550E+02  0.41800000000E+01 0. -1.
         -5    1    4    4    0  501  0.52440061529E+02  0.70592821523E+02 -0.14553509956E+03  0.17009186961E+03  0.41800000000E+01 0. -1.
</event>
<event>
11    1  0.1078607E-008  0.1602402E+03  0.7561462E-02  0.1086852E+00
         22   -1    0    0    0    0  0.00000000000E+00  0.00000000000E+00  0.17627954505E+04  0.17627954505E+04  0.00000000000E+00 0.  1.
         22   -1    0    0    0    0 -0.00000000000E+00 -0.00000000000E+00 -0.65024440062E+03  0.65024440062E+03  0.00000000000E+00 0. -1.
        -24    2    1    2    0    0 -0.34018342851E+02  0.92299693880E+02 -0.53911944378E+03  0.55380631304E+03  0.79844702799E+02 0.  0.
         25    2    1    2    0    0 -0.10304869618E+02 -0.12969455831E+03 -0.22758691080E+02  0.18191434950E+03  0.12509198112E+03 0.  0.
         24    2    1    2    0    0  0.44323212469E+02  0.37394864435E+02  0.16744291848E+04  0.16773191886E+04  0.79521334512E+02 0.  0.
        -13    1    5    5    0    0  0.32333931461E+02  0.30187098272E+02  0.16328640425E+04  0.16334631080E+04  0.00000000000E+00 0.  1.
         14    1    5    5    0    0  0.11989281008E+02  0.72077661623E+01  0.41565142308E+02  0.43856080619E+02  0.00000000000E+00 0. -1.
         11    1    3    3    0    0 -0.46425864024E+02  0.98760188886E+02 -0.42311060992E+03  0.43695711916E+03  0.00000000000E+00 0. -1.
        -12    1    3    3    0    0  0.12407521173E+02 -0.64604950065E+01 -0.11600883386E+03  0.11684919388E+03  0.00000000000E+00 0.  1.
          5    1    4    4  501    0 -0.37109746855E+02 -0.33121576503E+02 -0.57142195819E+02  0.75874073863E+02  0.41800000000E+01 0. -1.
         -5    1    4    4    0  501  0.26804877237E+02 -0.96572981812E+02  0.34383504739E+02  0.10604027564E+03  0.41800000000E+01 0. -1.
</event>
<event>
11    1  0.1078607E-008  0.3973964E+03  0.7561462E-02  0.9657471E-01
         22   -1    0    0    0    0  0.00000000000E+00  0.00000000000E+00  0.16533292414E+03  0.16533292414E+03  0.00000000000E+00 0. -1.
         22   -1    0    0    0    0 -0.00000000000E+00 -0.00000000000E+00 -0.17075744848E+04  0.17075744848E+04  0.00000000000E+00 0.  1.
        -24    2    1    2    0    0  0.11715623053E+03  0.26133954029E+02 -0.38921627983E+03  0.41513877091E+03  0.80264068682E+02 0.  0.
         25    2    1    2    0    0 -0.45467316261E+03 -0.10061193815E+03 -0.90178839997E+03  0.10226048364E+04  0.12509151116E+03 0.  0.
         24    2    1    2    0    0  0.33751693208E+03  0.74477984118E+02 -0.25123688087E+03  0.43516380166E+03  0.82358450707E+02 0.  0.
        -11    1    5    5    0    0  0.11560334187E+03  0.62889249971E+02 -0.11299655247E+03  0.17345723186E+03  0.00000000000E+00 0.  1.
         12    1    5    5    0    0  0.22191359021E+03  0.11588734148E+02 -0.13824032840E+03  0.26170656980E+03  0.00000000000E+00 0. -1.
         13    1    3    3    0    0  0.13716570787E+02 -0.25105366626E+02 -0.66250686082E+02  0.72163544494E+02  0.00000000000E+00 0. -1.
        -14    1    3    3    0    0  0.10343965975E+03  0.51239320656E+02 -0.32296559375E+03  0.34297522642E+03  0.00000000000E+00 0.  1.
          5    1    4    4  501    0 -0.18898072469E+02 -0.17827937489E+02 -0.13180358888E+02  0.29430711146E+02  0.41800000000E+01 0.  1.
         -5    1    4    4    0  501 -0.43577509014E+03 -0.82784000659E+02 -0.88860804108E+03  0.99317412523E+03  0.41800000000E+01 0.  1.
</event>
<event>
11    1  0.1078607E-008  0.1344322E+03  0.7561462E-02  0.1113940E+00
         22   -1    0    0    0    0  0.00000000000E+00  0.00000000000E+00  0.72145027931E+03  0.72145027931E+03  0.00000000000E+00 0.  1.
         22   -1    0    0    0    0 -0.00000000000E+00 -0.00000000000E+00 -0.19060673285E+03  0.19060673285E+03  0.00000000000E+00 0. -1.
         24    2    1    2    0    0 -0.28045390081E+02  0.83243627179E+01 -0.14300031771E+03  0.16644704765E+03  0.79998061764E+02 0.  0.
         25    2    1    2    0    0  0.29202336105E+01  0.36659978577E+02  0.10143026175E+03  0.16519031609E+03  0.12508901126E+03 0.  0.
        -24    2    1    2    0    0  0.25125156471E+02 -0.44984341295E+02  0.57241360242E+03  0.58041964843E+03  0.81084965298E+02 0.  0.
        -13    1    3    3    0    0 -0.43147279407E+02  0.21625549189E+02 -0.43634950210E+02  0.65064283426E+02  0.00000000000E+00 0.  1.
         14    1    3    3    0    0  0.15101889326E+02 -0.13301186471E+02 -0.99365367499E+02  0.10138276422E+03  0.00000000000E+00 0. -1.
         11    1    5    5    0    0  0.29852801550E+02 -0.58404095016E+01  0.68313058265E+02  0.74779503028E+02  0.00000000000E+00 0. -1.
        -12    1    5    5    0    0 -0.47276450790E+01 -0.39143931794E+02  0.50410054415E+03  0.50564014540E+03  0.00000000000E+00 0.  1.
          5    1    4    4  501    0  0.13830923474E+02  0.82100077737E+02  0.61726998795E+02  0.10372758548E+03  0.41800000000E+01 0.  1.
         -5    1    4    4    0  501 -0.10910689864E+02 -0.45440099160E+02  0.39703262955E+02  0.61462730612E+02  0.41800000000E+01 0.  1.
</event>
<event>
11    1  0.1078607E-008  0.1632188E+03  0.7561462E-02  0.1084088E+00
         22   -1    0    0    0    0  0.00000000000E+00  0.00000000000E+00  0.22883231826E+03  0.22883231826E+03  0.00000000000E+00 0. -1.
         22   -1    0    0    0    0 -0.00000000000E+00 -0.00000000000E+00 -0.94147747588E+03  0.94147747588E+03  0.00000000000E+00 0. -1.
         24    2    1    2    0    0 -0.17229909886E+02 -0.10153458722E+03 -0.68490810778E+03  0.69701320219E+03  0.78244141796E+02 0.  0.
         25    2    1    2    0    0  0.17916960160E+02  0.11239938442E+03 -0.21275328328E+03  0.27179030852E+03  0.12510544825E+03 0.  0.
        -24    2    1    2    0    0 -0.68705027450E+00 -0.10864797201E+02  0.18501623344E+03  0.20150628344E+03  0.79090200224E+02 0.  0.
        -13    1    3    3    0    0 -0.10950572717E+02 -0.30332706198E+01 -0.10664558807E+02  0.15583599970E+02  0.00000000000E+00 0.  1.
         14    1    3    3    0    0 -0.62793371686E+01 -0.98501316599E+02 -0.67424354897E+03  0.68142960222E+03  0.00000000000E+00 0. -1.
         13    1    5    5    0    0 -0.35892833041E+02 -0.17566722542E+02  0.12863452079E+03  0.13469864566E+03  0.00000000000E+00 0. -1.
        -14    1    5    5    0    0  0.35205782766E+02  0.67019253409E+01  0.56381712652E+02  0.66807637774E+02  0.00000000000E+00 0.  1.
          5    1    4    4  501    0  0.50258423445E+02  0.77104429418E+02 -0.20275650862E+03  0.22270760282E+03  0.41800000000E+01 0.  1.
         -5    1    4    4    0  501 -0.32341463285E+02  0.35294955003E+02 -0.99967746562E+01  0.49082705708E+02  0.41800000000E+01 0.  1.
</event>
<event>
11    1  0.1078607E-008  0.1478310E+03  0.7561462E-02  0.1099116E+00
         22   -1    0    0    0    0  0.00000000000E+00  0.00000000000E+00  0.55478719530E+03  0.55478719530E+03  0.00000000000E+00 0.  1.
         22   -1    0    0    0    0 -0.00000000000E+00 -0.00000000000E+00 -0.53572589620E+03  0.53572589620E+03  0.00000000000E+00 0. -1.
        -24    2    1    2    0    0 -0.83000545256E+01  0.23338129661E+02 -0.47896182544E+03  0.48639049016E+03  0.80979747413E+02 0.  0.
         25    2    1    2    0    0  0.85221108918E+02 -0.30582963657E+02  0.84972332085E+02  0.17625380476E+03  0.12508857422E+03 0.  0.
         24    2    1    2    0    0 -0.76921054392E+02  0.72448339952E+01  0.41305079245E+03  0.42786879658E+03  0.80569310016E+02 0.  0.
        -13    1    5    5    0    0 -0.86417671399E+02  0.85057692947E+01  0.40780307356E+03  0.41694569052E+03  0.00000000000E+00 0.  1.
         14    1    5    5    0    0  0.94966170066E+01 -0.12609352995E+01  0.52477188890E+01  0.10923106057E+02  0.00000000000E+00 0. -1.
         11    1    3    3    0    0 -0.25994718003E+02  0.47655584015E+02 -0.32808908879E+03  0.33254959064E+03  0.00000000000E+00 0. -1.
        -12    1    3    3    0    0  0.17694663477E+02 -0.24317454353E+02 -0.15087273665E+03  0.15384089953E+03  0.00000000000E+00 0.  1.
          5    1    4    4  501    0  0.22599565892E+02 -0.92210974486E+01  0.10429814927E+03  0.10719769287E+03  0.41800000000E+01 0.  1.
         -5    1    4    4    0  501  0.62621543026E+02 -0.21361866208E+02 -0.19325817183E+02  0.69056111885E+02  0.41800000000E+01 0.  1.
</event>
<event>
11    1  0.1078607E-008  0.1347651E+03  0.7561462E-02  0.1113549E+00
         22   -1    0    0    0    0  0.00000000000E+00  0.00000000000E+00  0.17996493101E+04  0.17996493101E+04  0.00000000000E+00 0. -1.
         22   -1    0    0    0    0 -0.00000000000E+00 -0.00000000000E+00 -0.62391449972E+03  0.62391449972E+03  0.00000000000E+00 0. -1.
        -24    2    1    2    0    0 -0.10310614710E+02  0.49036139049E+02 -0.57235574942E+03  0.58000485842E+03  0.79395719005E+02 0.  0.
         25    2    1    2    0    0 -0.22238254746E+02 -0.56934132877E+02  0.57507288062E+02  0.15062812271E+03  0.12508280342E+03 0.  0.
         24    2    1    2    0    0  0.32548869456E+02  0.78979938287E+01  0.16905832718E+04  0.16929308287E+04  0.82590464357E+02 0.  0.
        -11    1    5    5    0    0  0.59309110488E+01 -0.10960062684E+02  0.37318128932E+02  0.39343886779E+02  0.00000000000E+00 0.  1.
         12    1    5    5    0    0  0.26617958408E+02  0.18858056513E+02  0.16532651428E+04  0.16535869419E+04  0.00000000000E+00 0. -1.
         13    1    3    3    0    0  0.14775977022E+02  0.31639427795E+01 -0.39024349114E+03  0.39053594253E+03  0.00000000000E+00 0. -1.
        -14    1    3    3    0    0 -0.25086591731E+02  0.45872196269E+02 -0.18211225828E+03  0.18946891590E+03  0.00000000000E+00 0.  1.
          5    1    4    4  501    0 -0.29110343096E+01  0.33993498480E+01  0.82256151875E+02  0.82483796115E+02  0.41800000000E+01 0.  1.
         -5    1    4    4    0  501 -0.19327220437E+02 -0.60333482725E+02 -0.24748863813E+02  0.68144326599E+02  0.41800000000E+01 0.  1.
</event>
<event>
11    1  0.1078607E-008  0.2178605E+03  0.7561462E-02  0.1042566E+00
         22   -1    0    0    0    0  0.00000000000E+00  0.00000000000E+00  0.55232597406E+03  0.55232597406E+03  0.00000000000E+00 0. -1.
         22   -1    0    0    0    0 -0.00000000000E+00 -0.00000000000E+00 -0.20518884824E+04  0.20518884824E+04  0.00000000000E+00 0.  1.
         24    2    1    2    0    0  0.74509508608E+01  0.17779968165E+03 -0.19872714879E+04  0.19967717066E+04  0.78619577250E+02 0.  0.
         25    2    1    2    0    0 -0.31943044653E+02 -0.20049471901E+03  0.21404358283E+03  0.32043789856E+03  0.12508917230E+03 0.  0.
        -24    2    1    2    0    0  0.24492093792E+02  0.22695037366E+02  0.27366539670E+03  0.28700485140E+03  0.79775359564E+02 0.  0.
        -13    1    3    3    0    0  0.29479424284E+02  0.14589055388E+03 -0.17535929588E+04  0.17598981094E+04  0.00000000000E+00 0.  1.
         14    1    3    3    0    0 -0.22028473423E+02  0.31909127768E+02 -0.23367852908E+03  0.23687359715E+03  0.00000000000E+00 0. -1.
         13    1    5    5    0    0  0.97768729180E+01 -0.15955558804E+02  0.21158007193E+03  0.21240596493E+03  0.00000000000E+00 0. -1.
        -14    1    5    5    0    0  0.14715220874E+02  0.38650596170E+02  0.62085324772E+02  0.74598886464E+02  0.00000000000E+00 0.  1.
          5    1    4    4  501    0  0.28436841910E+02 -0.15072060988E+03  0.17547862647E+03  0.23309992915E+03  0.41800000000E+01 0.  1.
         -5    1    4    4    0  501 -0.60379886563E+02 -0.49774109132E+02  0.38564956354E+02  0.87337969405E+02  0.41800000000E+01 0.  1.
</event>
<event>
11    1  0.1078607E-008  0.1423191E+03  0.7561462E-02  0.1104996E+00
         22   -1    0    0    0    0  0.00000000000E+00  0.00000000000E+00  0.99704635951E+03  0.99704635951E+03  0.00000000000E+00 0. -1.
         22   -1    0    0    0    0 -0.00000000000E+00 -0.00000000000E+00 -0.10274495550E+03  0.10274495550E+03  0.00000000000E+00 0. -1.
         24    2    1    2    0    0  0.45558987299E+02  0.28433139106E+02 -0.48661236610E+02  0.10856619094E+03  0.80837102520E+02 0.  0.
         25    2    1    2    0    0 -0.43503023422E+02  0.43986202790E+02  0.22244053419E+03  0.26259301837E+03  0.12509197800E+03 0.  0.
        -24    2    1    2    0    0 -0.20559638766E+01 -0.72419341896E+02  0.72052210643E+03  0.72863210571E+03  0.80646460258E+02 0.  0.
        -11    1    3    3    0    0 -0.72416918615E-01  0.52693394738E+00  0.20850467141E+02  0.20857250145E+02  0.00000000000E+00 0.  1.
         12    1    3    3    0    0  0.45631404218E+02  0.27906205159E+02 -0.69511703751E+02  0.87708940796E+02  0.00000000000E+00 0. -1.
         13    1    5    5    0    0 -0.27821371706E+01 -0.43899861730E+02  0.66266846649E+03  0.66412682119E+03  0.00000000000E+00 0. -1.
        -14    1    5    5    0    0  0.72617329402E+00 -0.28519480166E+02  0.57853639935E+02  0.64505284514E+02  0.00000000000E+00 0.  1.
          5    1    4    4  501    0 -0.59685895984E+02 -0.24364199387E+02  0.14013692996E+03  0.15431089375E+03  0.41800000000E+01 0.  1.
         -5    1    4    4    0  501  0.16182872562E+02  0.68350402177E+02  0.82303604239E+02  0.10828212462E+03  0.41800000000E+01 0.  1.
</event>
<event>
11    1  0.1078607E-008  0.2045253E+03  0.7561462E-02  0.1051369E+00
         22   -1    0    0    0    0  0.00000000000E+00  0.00000000000E+00  0.17496045213E+04  0.17496045213E+04  0.00000000000E+00 0. -1.
         22   -1    0    0    0    0 -0.00000000000E+00 -0.00000000000E+00 -0.93650368880E+03  0.93650368880E+03  0.00000000000E+00 0. -1.
         24    2    1    2    0    0  0.27991679677E+02 -0.15972830915E+03 -0.90669942033E+03  0.92464705765E+03  0.81065871428E+02 0.  0.
         25    2    1    2    0    0  0.41662317908E+01  0.14594684598E+03  0.46079248932E+03  0.49929441777E+03  0.12508940031E+03 0.  0.
        -24    2    1    2    0    0 -0.32157911467E+02  0.13781463177E+02  0.12590077635E+04  0.12621667347E+04  0.82099071578E+02 0.  0.
        -13    1    3    3    0    0 -0.24197664640E+02 -0.22428763471E+02 -0.12587041921E+03  0.13012278370E+03  0.00000000000E+00 0.  1.
         14    1    3    3    0    0  0.52189344316E+02 -0.13729954568E+03 -0.78082900112E+03  0.79452427395E+03  0.00000000000E+00 0. -1.
         11    1    5    5    0    0 -0.19818857131E+02 -0.23775025254E+02  0.96700276435E+03  0.96749800267E+03  0.00000000000E+00 0. -1.
        -12    1    5    5    0    0 -0.12339054336E+02  0.37556488430E+02  0.29200499920E+03  0.29466873204E+03  0.00000000000E+00 0.  1.
          5    1    4    4  501    0 -0.13092785259E+02  0.89458809088E+02  0.41412880708E+03  0.42390381079E+03  0.41800000000E+01 0.  1.
         -5    1    4    4    0  501  0.17259017050E+02  0.56488036890E+02  0.46663682237E+02  0.75390606982E+02  0.41800000000E+01 0.  1.
</event>
<event>
11    1  0.1078607E-008  0.1438147E+03  0.7561462E-02  0.1103372E+00
         22   -1    0    0    0    0  0.00000000000E+00  0.00000000000E+00  0.55357924296E+03  0.55357924296E+03  0.00000000000E+00 0. -1.
         22   -1    0    0    0    0 -0.00000000000E+00 -0.00000000000E+00 -0.26404704793E+03  0.26404704793E+03  0.00000000000E+00 0. -1.
        -24    2    1    2    0    0 -0.27430049944E+02 -0.22791651531E+02 -0.21301310667E+03  0.22974247247E+03  0.78327217644E+02 0.  0.
         25    2    1    2    0    0 -0.48096055420E+02  0.14692967209E+02  0.93206539770E+02  0.16390853436E+03  0.12509770081E+03 0.  0.
         24    2    1    2    0    0  0.75526105363E+02  0.80986843220E+01  0.40933876193E+03  0.42397528405E+03  0.80168810560E+02 0.  0.
        -13    1    5    5    0    0  0.18384941634E+02  0.36478949724E+02  0.23061577212E+03  0.23420579456E+03  0.00000000000E+00 0.  1.
         14    1    5    5    0    0  0.57141163730E+02 -0.28380265402E+02  0.17872298981E+03  0.18976948950E+03  0.00000000000E+00 0. -1.
         11    1    3    3    0    0 -0.35975052709E+01 -0.49667409630E+02 -0.11345771859E+03  0.12390499397E+03  0.00000000000E+00 0. -1.
        -12    1    3    3    0    0 -0.23832544673E+02  0.26875758099E+02 -0.99555388082E+02  0.10583747850E+03  0.00000000000E+00 0.  1.
          5    1    4    4  501    0 -0.45501964107E+01 -0.24706971960E+02 -0.22565671197E+02  0.34026763986E+02  0.41800000000E+01 0. -1.
         -5    1    4    4    0  501 -0.43545859009E+02  0.39399939169E+02  0.11577221097E+03  0.12988177037E+03  0.41800000000E+01 0. -1.
</event>
<event>
11    1  0.1078607E-008  0.1502787E+03  0.7561462E-02  0.1096594E+00
         22   -1    0    0    0    0  0.00000000000E+00  0.00000000000E+00  0.14076064928E+03  0.14076064928E+03  0.00000000000E+00 0.  1.
         22   -1    0    0    0    0 -0.00000000000E+00 -0.00000000000E+00 -0.25800729802E+04  0.25800729802E+04  0.00000000000E+00 0.  1.
         24    2    1    2    0    0  0.64545450106E+02  0.54481235845E+02 -0.22821035563E+04  0.22852237025E+04  0.84358810096E+02 0.  0.
         25    2    1    2    0    0 -0.61611363905E+01 -0.92868716029E+02 -0.24916822760E+03  0.29392954640E+03  0.12508882676E+03 0.  0.
        -24    2    1    2    0    0 -0.58384313716E+02  0.38387480184E+02  0.91959452961E+02  0.14168038055E+03  0.82063771069E+02 0.  0.
        -13    1    3    3    0    0  0.53193215827E+02  0.35873657999E+02 -0.21738963207E+04  0.21748429026E+04  0.00000000000E+00 0.  1.
         14    1    3    3    0    0  0.11352234279E+02  0.18607577846E+02 -0.10820723557E+03  0.11038079999E+03  0.00000000000E+00 0. -1.
         13    1    5    5    0    0  0.14866281609E+02  0.94790155308E+01 -0.34544026583E+01  0.17966384223E+02  0.00000000000E+00 0. -1.
        -14    1    5    5    0    0 -0.73250595325E+02  0.28908464653E+02  0.95413855619E+02  0.12371399633E+03  0.00000000000E+00 0.  1.
          5    1    4    4  501    0 -0.15918530209E+02  0.14226245558E+02  0.80986291480E+00  0.21769564640E+02  0.41800000000E+01 0. -1.
         -5    1    4    4    0  501  0.97573938182E+01 -0.10709496159E+03 -0.24997809052E+03  0.27215998176E+03  0.41800000000E+01 0. -1.
</event>
<event>
11    1  0.1190790E-008  0.1639679E+03  0.7561462E-02  0.1083404E+00
         22   -1    0    0    0    0  0.00000000000E+00  0.00000000000E+00  0.77371669055E+03  0.77371669055E+03  0.00000000000E+00 0. -1.
         22   -1    0    0    0    0 -0.00000000000E+00 -0.00000000000E+00 -0.49038214132E+03  0.49038214132E+03  0.00000000000E+00 0.  1.
         24    2    1    2    0    0  0.88034677354E+02  0.11879615137E+02 -0.23912287997E+03  0.26753732633E+03  0.80655065422E+02 0.  0.
         25    2    1    2    0    0 -0.11344195236E+03 -0.11390646486E+03 -0.18604493821E+03  0.27587026499E+03  0.12509166552E+03 0.  0.
        -24    2    1    2    0    0  0.25407275005E+02  0.10202684972E+03  0.70850236741E+03  0.72069124056E+03  0.79782528825E+02 0.  0.
        -11    1    3    3    0    0  0.48203876525E+02  0.45173540483E+02 -0.10921513231E+03  0.12764093229E+03  0.00000000000E+00 0.  1.
         12    1    3    3    0    0  0.39830800829E+02 -0.33293925346E+02 -0.12990774767E+03  0.13989639403E+03  0.00000000000E+00 0. -1.
         11    1    5    5    0    0  0.52475662918E+02  0.82243902222E+02  0.48821093634E+03  0.49786310670E+03  0.00000000000E+00 0. -1.
        -12    1    5    5    0    0 -0.27068387913E+02  0.19782947496E+02  0.22029143107E+03  0.22282813386E+03  0.00000000000E+00 0.  1.
          5    1    4    4  501    0 -0.34021078727E+02 -0.95737403157E+02 -0.16119515823E+03  0.19058970486E+03  0.41800000000E+01 0.  1.
         -5    1    4    4    0  501 -0.79420873632E+02 -0.18169061698E+02 -0.24849779977E+02  0.85280560131E+02  0.41800000000E+01 0.  1.
</event>
<event>
11    1  0.1078607E-008  0.1710014E+03  0.7561462E-02  0.1077164E+00
         22   -1    0    0    0    0  0.00000000000E+00  0.00000000000E+00  0.10866762876E+04  0.10866762876E+04  0.00000000000E+00 0. -1.
         22   -1    0    0    0    0 -0.00000000000E+00 -0.00000000000E+00 -0.10003133032E+04  0.10003133032E+04  0.00000000000E+00 0. -1.
         24    2    1    2    0    0 -0.40422839302E+02  0.10931929012E+03 -0.95732207116E+03  0.96804460870E+03  0.84024421367E+02 0.  0.
         25    2    1    2    0    0  0.58485666863E+02 -0.10430856622E+03  0.18016308443E+03  0.24981445442E+03  0.12509066484E+03 0.  0.
        -24    2    1    2    0    0 -0.18062827561E+02 -0.50107238975E+01  0.86352197116E+03  0.86913052773E+03  0.96779679967E+02 0.  0.
        -11    1    3    3    0    0 -0.16373841433E+01  0.26848647944E+02 -0.55982771664E+02  0.62109593836E+02  0.00000000000E+00 0.  1.
         12    1    3    3    0    0 -0.38785455159E+02  0.82470642176E+02 -0.90133929949E+03  0.90593501487E+03  0.00000000000E+00 0. -1.
         11    1    5    5    0    0 -0.38853873272E+02 -0.95598514583E+01  0.81691240344E+03  0.81789173435E+03  0.00000000000E+00 0. -1.
        -12    1    5    5    0    0  0.20791045711E+02  0.45491275607E+01  0.46609567728E+02  0.51238793381E+02  0.00000000000E+00 0.  1.
          5    1    4    4  501    0 -0.28536016612E+02 -0.40050077473E+02  0.11066116531E+03  0.12116797785E+03  0.41800000000E+01 0. -1.
         -5    1    4    4    0  501  0.87021683475E+02 -0.64258488750E+02  0.69501919126E+02  0.12864647657E+03  0.41800000000E+01 0. -1.
</event>
<event>
11    1  0.1078607E-008  0.1529137E+03  0.7561462E-02  0.1093938E+00
         22   -1    0    0    0    0  0.00000000000E+00  0.00000000000E+00  0.43130232190E+03  0.43130232190E+03  0.00000000000E+00 0. -1.
         22   -1    0    0    0    0 -0.00000000000E+00 -0.00000000000E+00 -0.27230842210E+03  0.27230842210E+03  0.00000000000E+00 0. -1.
         24    2    1    2    0    0 -0.42526798690E+02  0.68500659118E+02 -0.16119451224E+03  0.19920352076E+03  0.84838098762E+02 0.  0.
         25    2    1    2    0    0  0.67916881030E+02 -0.10172170090E+03  0.30858788353E+01  0.17497616485E+03  0.12508848251E+03 0.  0.
        -24    2    1    2    0    0 -0.25390082339E+02  0.33221041785E+02  0.31710253321E+03  0.32943105838E+03  0.78882899038E+02 0.  0.
        -13    1    3    3    0    0  0.41892693107E+01  0.56643703207E+02 -0.42021309232E+02  0.70653022016E+02  0.00000000000E+00 0.  1.
         14    1    3    3    0    0 -0.46716068001E+02  0.11856955911E+02 -0.11917320301E+03  0.12855049875E+03  0.00000000000E+00 0. -1.
         13    1    5    5    0    0  0.13866059360E+02  0.20732593776E+02  0.24596746183E+03  0.24722884202E+03  0.00000000000E+00 0. -1.
        -14    1    5    5    0    0 -0.39256141700E+02  0.12488448009E+02  0.71135071373E+02  0.82202216358E+02  0.00000000000E+00 0.  1.
          5    1    4    4  501    0  0.10167981050E+03 -0.61680828097E+02  0.18013181030E+02  0.12035470705E+03  0.41800000000E+01 0. -1.
         -5    1    4    4    0  501 -0.33762929474E+02 -0.40040872806E+02 -0.14927302195E+02  0.54621457803E+02  0.41800000000E+01 0. -1.
</event>
<event>
11    1  0.1078607E-008  0.1438119E+03  0.7561462E-02  0.1103375E+00
         22   -1    0    0    0    0  0.00000000000E+00  0.00000000000E+00  0.15767306852E+04  0.15767306852E+04  0.00000000000E+00 0. -1.
         22   -1    0    0    0    0 -0.00000000000E+00 -0.00000000000E+00 -0.13232264496E+04  0.13232264496E+04  0.00000000000E+00 0.  1.
         24    2    1    2    0    0 -0.65649441414E+02 -0.20257603951E+02 -0.11257176064E+04  0.11307232224E+04  0.81084257318E+02 0.  0.
         25    2    1    2    0    0  0.99201663768E+02  0.20606506453E+02 -0.16031913213E+03  0.22719203102E+03  0.12509355151E+03 0.  0.
        -24    2    1    2    0    0 -0.33552222354E+02 -0.34890250174E+00  0.15395409741E+04  0.15420418814E+04  0.81122620831E+02 0.  0.
        -11    1    3    3    0    0 -0.61165377472E+02 -0.82612848052E+01 -0.11023473612E+04  0.11040738910E+04  0.00000000000E+00 0.  1.
         12    1    3    3    0    0 -0.44840639423E+01 -0.11996319146E+02 -0.23370245226E+02  0.26649331406E+02  0.00000000000E+00 0. -1.
         11    1    5    5    0    0 -0.41688380374E+02  0.79437337792E+01  0.15050254474E+04  0.15056236652E+04  0.00000000000E+00 0. -1.
        -12    1    5    5    0    0  0.81361580199E+01 -0.82926362809E+01  0.34515526694E+02  0.36418216139E+02  0.00000000000E+00 0.  1.
          5    1    4    4  501    0  0.45789351548E+02  0.50681045421E+01  0.10551368084E+02  0.47446329334E+02  0.41800000000E+01 0. -1.
         -5    1    4    4    0  501  0.53412312220E+02  0.15538401911E+02 -0.17087050021E+03  0.17974570168E+03  0.41800000000E+01 0. -1.
</event>
<event>
11    1  0.1078607E-008  0.2026279E+03  0.7561462E-02  0.1052681E+00
         22   -1    0    0    0    0  0.00000000000E+00  0.00000000000E+00  0.14694524046E+04  0.14694524046E+04  0.00000000000E+00 0. -1.
         22   -1    0    0    0    0 -0.00000000000E+00 -0.00000000000E+00 -0.13657709262E+03  0.13657709262E+03  0.00000000000E+00 0.  1.
        -24    2    1    2    0    0  0.22452473168E+02 -0.15233541405E+03 -0.42012409339E+02  0.18116359532E+03  0.85703055982E+02 0.  0.
         25    2    1    2    0    0 -0.28260524137E+02  0.21931540410E+03  0.77070110706E+03  0.81149596116E+03  0.12509034680E+03 0.  0.
         24    2    1    2    0    0  0.58080509689E+01 -0.66979990055E+02  0.60418661424E+03  0.61336994071E+03  0.81615971587E+02 0.  0.
        -13    1    5    5    0    0 -0.95888064281E+01 -0.67974333814E+02  0.26226275461E+03  0.27109815145E+03  0.00000000000E+00 0.  1.
         14    1    5    5    0    0  0.15396857397E+02  0.99434375960E+00  0.34192385964E+03  0.34227178926E+03  0.00000000000E+00 0. -1.
         13    1    3    3    0    0 -0.75179625448E+01 -0.48212295788E+02  0.23906227511E+02  0.54336478905E+02  0.00000000000E+00 0. -1.
        -14    1    3    3    0    0  0.29970435713E+02 -0.10412311826E+03 -0.65918636849E+02  0.12682711641E+03  0.00000000000E+00 0.  1.
          5    1    4    4  501    0  0.26076017288E+02  0.17100652205E+03  0.62639100854E+03  0.64985102696E+03  0.41800000000E+01 0. -1.
         -5    1    4    4    0  501 -0.54336541425E+02  0.48308882050E+02  0.14431009851E+03  0.16164493420E+03  0.41800000000E+01 0. -1.
</event>
<event>
11    1  0.1078607E-008  0.1378326E+03  0.7561462E-02  0.1110003E+00
         22   -1    0    0    0    0  0.00000000000E+00  0.00000000000E+00  0.23281039468E+03  0.23281039468E+03  0.00000000000E+00 0. -1.
         22   -1    0    0    0    0 -0.00000000000E+00 -0.00000000000E+00 -0.27802641543E+03  0.27802641543E+03  0.00000000000E+00 0. -1.
        -24    2    1    2    0    0  0.40603184187E+02 -0.29196462686E+02 -0.11079966403E+03  0.14584812375E+03  0.80585716180E+02 0.  0.
         25    2    1    2    0    0 -0.41553549346E+02  0.67594649125E+02 -0.98626527726E+02  0.17796213336E+03  0.12509034688E+03 0.  0.
         24    2    1    2    0    0  0.95036515901E+00 -0.38398186438E+02  0.16421017101E+03  0.18702655300E+03  0.80861779287E+02 0.  0.
        -11    1    5    5    0    0 -0.31015340330E+01  0.22943508434E+02  0.21319965204E+02  0.31473242746E+02  0.00000000000E+00 0.  1.
         12    1    5    5    0    0  0.40518991920E+01 -0.61341694872E+02  0.14289020580E+03  0.15555331025E+03  0.00000000000E+00 0. -1.
         11    1    3    3    0    0  0.57871199234E+02 -0.32618186539E+02 -0.10965421512E+03  0.12820713197E+03  0.00000000000E+00 0. -1.
        -12    1    3    3    0    0 -0.17268015046E+02  0.34217238526E+01 -0.11454489086E+01  0.17640991779E+02  0.00000000000E+00 0.  1.
          5    1    4    4  501    0 -0.40200882133E+02  0.83408844397E+02 -0.11961246085E+03  0.15132005630E+03  0.41800000000E+01 0.  1.
         -5    1    4    4    0  501 -0.13526672136E+01 -0.15814195273E+02  0.20985933124E+02  0.26642077055E+02  0.41800000000E+01 0.  1.
</event>
<event>
11    1  0.1078607E-008  0.1351852E+03  0.7561462E-02  0.1113057E+00
         22   -1    0    0    0    0  0.00000000000E+00  0.00000000000E+00  0.81942391160E+03  0.81942391160E+03  0.00000000000E+00 0.  1.
         22   -1    0    0    0    0 -0.00000000000E+00 -0.00000000000E+00 -0.12941194118E+03  0.12941194118E+03  0.00000000000E+00 0.  1.
        -24    2    1    2    0    0 -0.16544234508E+02 -0.19460219131E+02 -0.95654081390E+02  0.11817622491E+03  0.64525227811E+02 0.  0.
         25    2    1    2    0    0 -0.35620792568E+02  0.14986076116E+01  0.21092594618E+03  0.24780666846E+03  0.12508918207E+03 0.  0.
         24    2    1    2    0    0  0.52165027077E+02  0.17961611520E+02  0.57474010562E+03  0.58285295942E+03  0.79671662138E+02 0.  0.
        -13    1    5    5    0    0  0.36311353510E+02  0.49415997600E+02  0.38873438194E+03  0.39354145260E+03  0.00000000000E+00 0.  1.
         14    1    5    5    0    0  0.15853673566E+02 -0.31454386080E+02  0.18600572368E+03  0.18931150682E+03  0.00000000000E+00 0. -1.
         13    1    3    3    0    0 -0.24497810011E+02 -0.18677148114E+02 -0.10348713253E+02  0.32497298703E+02  0.00000000000E+00 0. -1.
        -14    1    3    3    0    0  0.79535755032E+01 -0.78307101774E+00 -0.85305368136E+02  0.85678926209E+02  0.00000000000E+00 0.  1.
          5    1    4    4  501    0 -0.68384907238E+02 -0.16177222720E+02  0.19460049300E+03  0.20694207486E+03  0.41800000000E+01 0. -1.
         -5    1    4    4    0  501  0.32764114669E+02  0.17675830332E+02  0.16325453183E+02  0.40864593594E+02  0.41800000000E+01 0. -1.
</event>
<event>
11    1  0.1078607E-008  0.1484513E+03  0.7561462E-02  0.1098472E+00
         22   -1    0    0    0    0  0.00000000000E+00  0.00000000000E+00  0.67634552402E+03  0.67634552402E+03  0.00000000000E+00 0.  1.
         22   -1    0    0    0    0 -0.00000000000E+00 -0.00000000000E+00 -0.41803315657E+03  0.41803315657E+03  0.00000000000E+00 0. -1.
         24    2    1    2    0    0  0.50374699348E+02  0.65760349335E+02 -0.31544510267E+03  0.33514413537E+03  0.77161809197E+02 0.  0.
         25    2    1    2    0    0 -0.11783251070E+02 -0.68903386311E+02 -0.32091813041E+02  0.14686391967E+03  0.12511037042E+03 0.  0.
        -24    2    1    2    0    0 -0.38591448278E+02  0.31430369768E+01  0.60584928316E+03  0.61237062554E+03  0.80282317844E+02 0.  0.
        -13    1    3    3    0    0  0.96228267636E+01  0.14377905262E+02 -0.52321097741E+01  0.18074787062E+02  0.00000000000E+00 0.  1.
         14    1    3    3    0    0  0.40751872584E+02  0.51382444072E+02 -0.31021299289E+03  0.31706934831E+03  0.00000000000E+00 0. -1.
         11    1    5    5    0    0 -0.11750929346E+02  0.96031596745E+01  0.16663242576E+02  0.22538160293E+02  0.00000000000E+00 0. -1.
        -12    1    5    5    0    0 -0.26840518932E+02 -0.64601226978E+01  0.58918604058E+03  0.58983246524E+03  0.00000000000E+00 0.  1.
          5    1    4    4  501    0  0.24984872636E+02  0.12480771712E+02  0.27503008576E+02  0.39419556110E+02  0.41800000000E+01 0. -1.
         -5    1    4    4    0  501 -0.36768123706E+02 -0.81384158024E+02 -0.59594821617E+02  0.10744436356E+03  0.41800000000E+01 0. -1.
</event>
<event>
11    1  0.1078607E-008  0.1330455E+03  0.7561462E-02  0.1115583E+00
         22   -1    0    0    0    0  0.00000000000E+00  0.00000000000E+00  0.53974982442E+03  0.53974982442E+03  0.00000000000E+00 0. -1.
         22   -1    0    0    0    0 -0.00000000000E+00 -0.00000000000E+00 -0.26506553219E+03  0.26506553219E+03  0.00000000000E+00 0.  1.
         24    2    1    2    0    0 -0.93939412416E+01  0.41670639058E+02 -0.19213566200E+03  0.21342005385E+03  0.82506475397E+02 0.  0.
         25    2    1    2    0    0  0.42434804710E+02 -0.58242200994E+02  0.32622438556E+02  0.14801119108E+03  0.12510084956E+03 0.  0.
        -24    2    1    2    0    0 -0.33040863468E+02  0.16571561936E+02  0.43419751567E+03  0.44338411168E+03  0.81827089359E+02 0.  0.
        -13    1    3    3    0    0 -0.33653075376E+02  0.40473434077E+02 -0.17732400282E+03  0.18497143110E+03  0.00000000000E+00 0.  1.
         14    1    3    3    0    0  0.24259134135E+02  0.11972049816E+01 -0.14811659184E+02  0.28448622753E+02  0.00000000000E+00 0. -1.
         13    1    5    5    0    0 -0.20791112870E+01  0.10573876624E+02  0.38367527672E+03  0.38382658524E+03  0.00000000000E+00 0. -1.
        -14    1    5    5    0    0 -0.30961752181E+02  0.59976853122E+01  0.50522238951E+02  0.59557526442E+02  0.00000000000E+00 0.  1.
          5    1    4    4  501    0 -0.15713399844E+02 -0.32682892450E+01  0.60838400451E+02  0.63058512658E+02  0.41800000000E+01 0. -1.
         -5    1    4    4    0  501  0.58148204554E+02 -0.54973911750E+02 -0.28215961895E+02  0.84952678425E+02  0.41800000000E+01 0. -1.
</event>
<event>
11    1  0.1078607E-008  0.1891813E+03  0.7561462E-02  0.1062449E+00
         22   -1    0    0    0    0  0.00000000000E+00  0.00000000000E+00  0.44026035740E+03  0.44026035740E+03  0.00000000000E+00 0.  1.
         22   -1    0    0    0    0 -0.00000000000E+00 -0.00000000000E+00 -0.39098187511E+03  0.39098187511E+03  0.00000000000E+00 0. -1.
         24    2    1    2    0    0 -0.79202910113E+02 -0.16071529842E+01 -0.27864469538E+03  0.30096753142E+03  0.81626618167E+02 0.  0.
         25    2    1    2    0    0  0.45725063945E+02 -0.13973510594E+03  0.38501565064E+02  0.19683906051E+03  0.12508622595E+03 0.  0.
        -24    2    1    2    0    0  0.33477846167E+02  0.14134225893E+03  0.28942161261E+03  0.33343564058E+03  0.79473619647E+02 0.  0.
        -13    1    3    3    0    0  0.13969783187E+02  0.12858716818E+02 -0.37207734203E+02  0.41772202779E+02  0.00000000000E+00 0.  1.
         14    1    3    3    0    0 -0.93172693300E+02 -0.14465869802E+02 -0.24143696118E+03  0.25919532864E+03  0.00000000000E+00 0. -1.
         13    1    5    5    0    0  0.56859149467E+02  0.75736636096E+02  0.14647462143E+03  0.17442424043E+03  0.00000000000E+00 0. -1.
        -14    1    5    5    0    0 -0.23381303300E+02  0.65605622831E+02  0.14294699118E+03  0.15901140015E+03  0.00000000000E+00 0.  1.
          5    1    4    4  501    0  0.18312906004E+02 -0.93470866073E+02  0.83392312434E+02  0.12666457873E+03  0.41800000000E+01 0. -1.
         -5    1    4    4    0  501  0.27412157942E+02 -0.46264239869E+02 -0.44890747369E+02  0.70174481780E+02  0.41800000000E+01 0. -1.
</event>
<event>
11    1  0.1078607E-008  0.1705872E+03  0.7561462E-02  0.1077522E+00
         22   -1    0    0    0    0  0.00000000000E+00  0.00000000000E+00  0.15891248727E+04  0.15891248727E+04  0.00000000000E+00 0. -1.
         22   -1    0    0    0    0 -0.00000000000E+00 -0.00000000000E+00 -0.13437212304E+04  0.13437212304E+04  0.00000000000E+00 0. -1.
         24    2    1    2    0    0 -0.37365807501E+02  0.15594250382E+02 -0.12830956048E+04  0.12861921211E+04  0.79476141304E+02 0.  0.
         25    2    1    2    0    0  0.14134383162E+03 -0.61429007664E+02  0.12136958169E+03  0.23265797960E+03  0.12509020103E+03 0.  0.
        -24    2    1    2    0    0 -0.10397802412E+03  0.45834757282E+02  0.14071296653E+04  0.14139960024E+04  0.80365074708E+02 0.  0.
        -13    1    3    3    0    0 -0.16791891851E+02  0.21885993673E+02 -0.12994151334E+03  0.13283734881E+03  0.00000000000E+00 0.  1.
         14    1    3    3    0    0 -0.20573915650E+02 -0.62917432912E+01 -0.11531540915E+04  0.11533547723E+04  0.00000000000E+00 0. -1.
         11    1    5    5    0    0 -0.68163914103E+02 -0.12158317566E+02  0.82162054612E+03  0.82453287726E+03  0.00000000000E+00 0. -1.
        -12    1    5    5    0    0 -0.35814110013E+02  0.57993074847E+02  0.58550911923E+03  0.58946312514E+03  0.00000000000E+00 0.  1.
          5    1    4    4  501    0  0.75511984961E+02 -0.53961998613E+02  0.13597614014E+03  0.16468436555E+03  0.41800000000E+01 0. -1.
         -5    1    4    4    0  501  0.65831846657E+02 -0.74670090510E+01 -0.14606558450E+02  0.67973614058E+02  0.41800000000E+01 0. -1.
</event>
<event>
11    1  0.1078607E-008  0.1466994E+03  0.7561462E-02  0.1100300E+00
         22   -1    0    0    0    0  0.00000000000E+00  0.00000000000E+00  0.18505696405E+03  0.18505696405E+03  0.00000000000E+00 0. -1.
         22   -1    0    0    0    0 -0.00000000000E+00 -0.00000000000E+00 -0.63143128901E+03  0.63143128901E+03  0.00000000000E+00 0. -1.
         24    2    1    2    0    0 -0.57826138453E+02  0.10274934344E+02 -0.43551123183E+03  0.44621887944E+03  0.77406839191E+02 0.  0.
         25    2    1    2    0    0 -0.22073854139E+02  0.12672698559E+02 -0.14528841056E+03  0.19340472528E+03  0.12509521651E+03 0.  0.
        -24    2    1    2    0    0  0.79899992592E+02 -0.22947632903E+02  0.13442531743E+03  0.17686464834E+03  0.79374650827E+02 0.  0.
        -13    1    3    3    0    0 -0.30402621945E+02  0.26594399771E+02 -0.83424225176E+02  0.92688633966E+02  0.00000000000E+00 0.  1.
         14    1    3    3    0    0 -0.27423516508E+02 -0.16319465426E+02 -0.35208700666E+03  0.35353024548E+03  0.00000000000E+00 0. -1.
         13    1    5    5    0    0  0.70329795081E+02 -0.11608732938E+02  0.14296141034E+03  0.15974669825E+03  0.00000000000E+00 0. -1.
        -14    1    5    5    0    0  0.95701975115E+01 -0.11338899966E+02 -0.85360929132E+01  0.17117950084E+02  0.00000000000E+00 0.  1.
          5    1    4    4  501    0  0.18133313495E+02  0.41148518237E+02 -0.13572593662E+03  0.14304202139E+03  0.41800000000E+01 0. -1.
         -5    1    4    4    0  501 -0.40207167634E+02 -0.28475819678E+02 -0.95624739357E+01  0.50362703892E+02  0.41800000000E+01 0. -1.
</event>
<event>
11    1  0.1078607E-008  0.1510692E+03  0.7561462E-02  0.1095791E+00
         22   -1    0    0    0    0  0.00000000000E+00  0.00000000000E+00  0.24696069969E+03  0.24696069969E+03  0.00000000000E+00 0. -1.
         22   -1    0    0    0    0 -0.00000000000E+00 -0.00000000000E+00 -0.10103665378E+04  0.10103665378E+04  0.00000000000E+00 0. -1.
        -24    2    1    2    0    0 -0.70894675995E+02 -0.64508485356E+02 -0.80125879823E+03  0.81091538318E+03  0.79879266208E+02 0.  0.
         25    2    1    2    0    0  0.46962307033E+02 -0.88247628280E+01 -0.16656641467E+03  0.21371796769E+03  0.12509062513E+03 0.  0.
         24    2    1    2    0    0  0.23932368962E+02  0.73333248184E+02  0.20441937477E+03  0.23269388665E+03  0.80053985101E+02 0.  0.
        -11    1    5    5    0    0  0.11307697392E+02 -0.16384031692E+02  0.27808337881E+02  0.34199476173E+02  0.00000000000E+00 0.  1.
         12    1    5    5    0    0  0.12624671571E+02  0.89717279876E+02  0.17661103689E+03  0.19849441048E+03  0.00000000000E+00 0. -1.
         11    1    3    3    0    0 -0.63195837108E+02 -0.54448234914E+02 -0.78862435120E+03  0.79302376472E+03  0.00000000000E+00 0. -1.
        -12    1    3    3    0    0 -0.76988388873E+01 -0.10060250442E+02 -0.12634447027E+02  0.17891618452E+02  0.00000000000E+00 0.  1.
          5    1    4    4  501    0 -0.17046780945E+02 -0.12220476479E+02  0.11596717452E+02  0.24328769834E+02  0.41800000000E+01 0.  1.
         -5    1    4    4    0  501  0.64009087978E+02  0.33957136506E+01 -0.17816313212E+03  0.18938919785E+03  0.41800000000E+01 0.  1.
</event>
<event>
11    1  0.1078607E-008  0.1832269E+03  0.7561462E-02  0.1067062E+00
         22   -1    0    0    0    0  0.00000000000E+00  0.00000000000E+00  0.12992802044E+04  0.12992802044E+04  0.00000000000E+00 0. -1.
         22   -1    0    0    0    0 -0.00000000000E+00 -0.00000000000E+00 -0.15467243844E+04  0.15467243844E+04  0.00000000000E+00 0. -1.
         24    2    1    2    0    0  0.19948653192E+02 -0.66989066858E+02 -0.14912058030E+04  0.14949456555E+04  0.79260849195E+02 0.  0.
         25    2    1    2    0    0 -0.15075194464E+03  0.76559263366E+02  0.18177150245E+03  0.27798501808E+03  0.12508925434E+03 0.  0.
        -24    2    1    2    0    0  0.13080329145E+03 -0.95701965081E+01  0.10619901206E+04  0.10730739152E+04  0.80396029521E+02 0.  0.
        -13    1    3    3    0    0  0.34169331453E+02 -0.16129788339E+02 -0.27379488020E+03  0.27638985095E+03  0.00000000000E+00 0.  1.
         14    1    3    3    0    0 -0.14220678261E+02 -0.50859278518E+02 -0.12174109228E+04  0.12185558046E+04  0.00000000000E+00 0. -1.
         13    1    5    5    0    0  0.30795580984E+02 -0.12671060520E+02  0.57221205193E+03  0.57318021246E+03  0.00000000000E+00 0. -1.
        -14    1    5    5    0    0  0.10000771046E+03  0.31008640118E+01  0.48977806866E+03  0.49989370275E+03  0.00000000000E+00 0.  1.
          5    1    4    4  501    0 -0.20085050175E+02  0.63000475742E+02  0.10951469799E+03  0.12799769787E+03  0.41800000000E+01 0.  1.
         -5    1    4    4    0  501 -0.13066689446E+03  0.13558787624E+02  0.72256804459E+02  0.14998732020E+03  0.41800000000E+01 0.  1.
</event>
<event>
11    1  0.1078607E-008  0.1452886E+03  0.7561462E-02  0.1101792E+00
         22   -1    0    0    0    0  0.00000000000E+00  0.00000000000E+00  0.88563272630E+03  0.88563272630E+03  0.00000000000E+00 0. -1.
         22   -1    0    0    0    0 -0.00000000000E+00 -0.00000000000E+00 -0.13024229563E+04  0.13024229563E+04  0.00000000000E+00 0. -1.
         24    2    1    2    0    0 -0.67106029311E+02  0.33531555969E+02 -0.11869762727E+04  0.11920289769E+04  0.79955146461E+02 0.  0.
         25    2    1    2    0    0  0.16626118677E+02 -0.79350687387E+02 -0.58950092125E+02  0.16029535293E+03  0.12508607996E+03 0.  0.
        -24    2    1    2    0    0  0.50479910634E+02  0.45819131418E+02  0.82913613484E+03  0.83573135273E+03  0.79577318745E+02 0.  0.
        -11    1    3    3    0    0 -0.71001664246E+02  0.32910659164E+02 -0.60513509031E+03  0.61017442206E+03  0.00000000000E+00 0.  1.
         12    1    3    3    0    0  0.38956349348E+01  0.62089680519E+00 -0.58184118240E+03  0.58185455487E+03  0.00000000000E+00 0. -1.
         13    1    5    5    0    0  0.20567350086E+02  0.14209937785E+02  0.67783581006E+03  0.67829663395E+03  0.00000000000E+00 0. -1.
        -14    1    5    5    0    0  0.29912560547E+02  0.31609193633E+02  0.15130032477E+03  0.15743471878E+03  0.00000000000E+00 0.  1.
          5    1    4    4  501    0 -0.76650251072E+01 -0.10023220842E+02  0.37037967124E+02  0.39350997124E+02  0.41800000000E+01 0. -1.
         -5    1    4    4    0  501  0.24291143784E+02 -0.69327466545E+02 -0.95988059249E+02  0.12094435581E+03  0.41800000000E+01 0. -1.
</event>
<event>
11    1  0.1078607E-008  0.1414298E+03  0.7561462E-02  0.1105972E+00
         22   -1    0    0    0    0  0.00000000000E+00  0.00000000000E+00  0.11856069246E+04  0.11856069246E+04  0.00000000000E+00 0.  1.
         22   -1    0    0    0    0 -0.00000000000E+00 -0.00000000000E+00 -0.69701612699E+03  0.69701612699E+03  0.00000000000E+00 0. -1.
        -24    2    1    2    0    0  0.78987179075E+01  0.46009052609E+02 -0.59135917797E+03  0.59880890131E+03  0.81775303448E+02 0.  0.
         25    2    1    2    0    0  0.56737937892E+02 -0.59139767643E+02 -0.43017405142E+02  0.15560539124E+03  0.12508331193E+03 0.  0.
         24    2    1    2    0    0 -0.64636655799E+02  0.13130715035E+02  0.11229673807E+04  0.11282087590E+04  0.86307316528E+02 0.  0.
        -13    1    5    5    0    0 -0.38469658472E+02  0.47474464073E+02  0.80620787523E+03  0.80852017752E+03  0.00000000000E+00 0.  1.
         14    1    5    5    0    0 -0.26166997327E+02 -0.34343749039E+02  0.31675950544E+03  0.31968858148E+03  0.00000000000E+00 0. -1.
         13    1    3    3    0    0  0.51318167555E+01  0.57467739247E+02 -0.57847753284E+03  0.58134768650E+03  0.00000000000E+00 0. -1.
        -14    1    3    3    0    0  0.27669011520E+01 -0.11458686638E+02 -0.12881645128E+02  0.17461214810E+02  0.00000000000E+00 0.  1.
          5    1    4    4  501    0 -0.21805048073E+02  0.25236947548E+02 -0.15514608225E+02  0.37020792960E+02  0.41800000000E+01 0.  1.
         -5    1    4    4    0  501  0.78542985965E+02 -0.84376715192E+02 -0.27502796916E+02  0.11858459828E+03  0.41800000000E+01 0.  1.
</event>
<event>
11    1  0.1078607E-008  0.1712364E+03  0.7561462E-02  0.1076961E+00
         22   -1    0    0    0    0  0.00000000000E+00  0.00000000000E+00  0.20862242091E+04  0.20862242091E+04  0.00000000000E+00 0.  1.
         22   -1    0    0    0    0 -0.00000000000E+00 -0.00000000000E+00 -0.38933437310E+03  0.38933437310E+03  0.00000000000E+00 0. -1.
        -24    2    1    2    0    0  0.79185730598E+02  0.85029679984E+02 -0.36183857628E+03  0.38841217088E+03  0.80227381869E+02 0.  0.
         25    2    1    2    0    0 -0.12993887130E+03 -0.10830265002E+03  0.90408164789E+03  0.92823841073E+03  0.12509734943E+03 0.  0.
         24    2    1    2    0    0  0.50753140698E+02  0.23272970032E+02  0.11546467644E+04  0.11589080006E+04  0.82104146524E+02 0.  0.
        -13    1    5    5    0    0  0.19652434529E+02  0.49213723833E+02  0.45214805959E+03  0.45524287648E+03  0.00000000000E+00 0.  1.
         14    1    5    5    0    0  0.31100706169E+02 -0.25940753801E+02  0.70249870485E+03  0.70366512415E+03  0.00000000000E+00 0. -1.
         11    1    3    3    0    0  0.67684688968E+02  0.78591238065E+02 -0.36054613637E+03  0.37516838390E+03  0.00000000000E+00 0. -1.
        -12    1    3    3    0    0  0.11501041631E+02  0.64384419184E+01 -0.12924399032E+01  0.13243786990E+02  0.00000000000E+00 0.  1.
          5    1    4    4  501    0 -0.79935138367E+02 -0.37907072468E+02  0.19826765449E+03  0.21714996593E+03  0.41800000000E+01 0.  1.
         -5    1    4    4    0  501 -0.50003732930E+02 -0.70395577547E+02  0.70581399340E+03  0.71108844480E+03  0.41800000000E+01 0.  1.
</event>
<event>
11    1  0.1078607E-008  0.1394681E+03  0.7561462E-02  0.1108154E+00
         22   -1    0    0    0    0  0.00000000000E+00  0.00000000000E+00  0.35118009408E+03  0.35118009408E+03  0.00000000000E+00 0. -1.
         22   -1    0    0    0    0 -0.00000000000E+00 -0.00000000000E+00 -0.19057144224E+03  0.19057144224E+03  0.00000000000E+00 0.  1.
         24    2    1    2    0    0  0.97614322502E+01  0.17093200274E+02 -0.89999796257E+02  0.12258237004E+03  0.80864151907E+02 0.  0.
         25    2    1    2    0    0 -0.20991423461E+02 -0.75588291237E+02 -0.17327306088E+01  0.14765993505E+03  0.12508486892E+03 0.  0.
        -24    2    1    2    0    0  0.11229991211E+02  0.58495090963E+02  0.25234117870E+03  0.27150923123E+03  0.80581659248E+02 0.  0.
        -11    1    3    3    0    0  0.30417834004E+01  0.39427645687E+02 -0.91017291917E+02  0.99236783093E+02  0.00000000000E+00 0.  1.
         12    1    3    3    0    0  0.67196488498E+01 -0.22334445413E+02  0.10174956601E+01  0.23345586949E+02  0.00000000000E+00 0. -1.
         13    1    5    5    0    0  0.22140789503E+02  0.16285895682E+02  0.20622188857E+03  0.20804545726E+03  0.00000000000E+00 0. -1.
        -14    1    5    5    0    0 -0.10910798292E+02  0.42209195280E+02  0.46119290129E+02  0.63463773978E+02  0.00000000000E+00 0.  1.
          5    1    4    4  501    0  0.66718548587E+01 -0.96695999506E+02 -0.31159944236E+02  0.10189722515E+03  0.41800000000E+01 0. -1.
         -5    1    4    4    0  501 -0.27663278320E+02  0.21107708269E+02  0.29427213627E+02  0.45762709902E+02  0.41800000000E+01 0. -1.
</event>
<event>
11    1  0.1078607E-008  0.1361449E+03  0.7561462E-02  0.1111941E+00
         22   -1    0    0    0    0  0.00000000000E+00  0.00000000000E+00  0.60809283178E+02  0.60809283178E+02  0.00000000000E+00 0.  1.
         22   -1    0    0    0    0 -0.00000000000E+00 -0.00000000000E+00 -0.11336727275E+04  0.11336727275E+04  0.00000000000E+00 0. -1.
         24    2    1    2    0    0  0.35803825368E+02  0.37540392281E+02 -0.73519486790E+03  0.74122398097E+03  0.78805464371E+02 0.  0.
         25    2    1    2    0    0 -0.36586981950E+02 -0.50833672873E+02 -0.34525913880E+03  0.37252391803E+03  0.12509007567E+03 0.  0.
        -24    2    1    2    0    0  0.78315658246E+00  0.13293280592E+02  0.75905624268E+01  0.80734111631E+02  0.79265727145E+02 0.  0.
        -11    1    3    3    0    0 -0.14915466282E+02  0.33873781531E+02 -0.18382389324E+03  0.18751300738E+03  0.00000000000E+00 0.  1.
         12    1    3    3    0    0  0.50719291649E+02  0.36666107498E+01 -0.55137097466E+03  0.55371097359E+03  0.00000000000E+00 0. -1.
         13    1    5    5    0    0 -0.15284863999E+02  0.14137656789E+02 -0.31898855262E+02  0.38092484482E+02  0.00000000000E+00 0. -1.
        -14    1    5    5    0    0  0.16068020582E+02 -0.84437619646E+00  0.39489417689E+02  0.42641627150E+02  0.00000000000E+00 0.  1.
          5    1    4    4  501    0 -0.81345626688E+02 -0.18032093843E+02 -0.18696847735E+03  0.20473629700E+03  0.41800000000E+01 0. -1.
         -5    1    4    4    0  501  0.44758644737E+02 -0.32801579030E+02 -0.15829066145E+03  0.16778762102E+03  0.41800000000E+01 0. -1.
</event>
<event>
11    1  0.1078607E-008  0.1439901E+03  0.7561462E-02  0.1103183E+00
         22   -1    0    0    0    0  0.00000000000E+00  0.00000000000E+00  0.13680211167E+04  0.13680211167E+04  0.00000000000E+00 0.  1.
         22   -1    0    0    0    0 -0.00000000000E+00 -0.00000000000E+00 -0.34820797720E+03  0.34820797720E+03  0.00000000000E+00 0. -1.
         24    2    1    2    0    0  0.89914371123E+01 -0.35269382151E+02 -0.30949401318E+03  0.32212720899E+03  0.81575850096E+02 0.  0.
         25    2    1    2    0    0 -0.28137812371E+02 -0.35874886383E+02  0.11787811601E+03  0.17782408680E+03  0.12508961450E+03 0.  0.
        -24    2    1    2    0    0  0.19146375259E+02  0.71144268534E+02  0.12114290367E+04  0.12162777982E+04  0.79644715283E+02 0.  0.
        -13    1    3    3    0    0 -0.11105349694E+02  0.63151038195E+01 -0.43319363644E+01  0.13489810997E+02  0.00000000000E+00 0.  1.
         14    1    3    3    0    0  0.20096786806E+02 -0.41584485971E+02 -0.30516207681E+03  0.30863739799E+03  0.00000000000E+00 0. -1.
         11    1    5    5    0    0  0.37936339901E+02  0.35428370656E+02  0.34239442838E+03  0.34630662702E+03  0.00000000000E+00 0. -1.
        -12    1    5    5    0    0 -0.18789964642E+02  0.35715897878E+02  0.86903460832E+03  0.86997117113E+03  0.00000000000E+00 0.  1.
          5    1    4    4  501    0  0.48855049940E+02 -0.78538792916E+01  0.57414207094E+02  0.75910229224E+02  0.41800000000E+01 0. -1.
         -5    1    4    4    0  501 -0.76992862312E+02 -0.28021007091E+02  0.60463908913E+02  0.10191385758E+03  0.41800000000E+01 0. -1.
</event>
<event>
11    1  0.1078607E-008  0.6341276E+03  0.7561462E-02  0.9135437E-01
         22   -1    0    0    0    0  0.00000000000E+00  0.00000000000E+00  0.45888039826E+03  0.45888039826E+03  0.00000000000E+00 0. -1.
         22   -1    0    0    0    0 -0.00000000000E+00 -0.00000000000E+00 -0.21907552989E+03  0.21907552989E+03  0.00000000000E+00 0. -1.
        -24    2    1    2    0    0  0.48663629098E+02  0.34165090930E+01  0.32369519193E+02  0.10013267735E+03  0.81233896680E+02 0.  0.
         25    2    1    2    0    0 -0.19275311274E+03 -0.16771510886E+03  0.33077496597E+02  0.28639821721E+03  0.12509075838E+03 0.  0.
         24    2    1    2    0    0  0.14408948364E+03  0.16429859976E+03  0.17435785257E+03  0.29142503359E+03  0.82292650141E+02 0.  0.
        -11    1    5    5    0    0  0.88010552308E+02  0.39475286676E+02  0.65999917982E+02  0.11687662191E+03  0.00000000000E+00 0.  1.
         12    1    5    5    0    0  0.56078931331E+02  0.12482331309E+03  0.10835793459E+03  0.17454841168E+03  0.00000000000E+00 0. -1.
         13    1    3    3    0    0  0.69224318997E+02  0.72026863604E+00  0.10543390237E+02  0.70026339367E+02  0.00000000000E+00 0. -1.
        -14    1    3    3    0    0 -0.20560689899E+02  0.26962404570E+01  0.21826128956E+02  0.30106337986E+02  0.00000000000E+00 0.  1.
          5    1    4    4  501    0 -0.89482457127E+01  0.34037569479E+01  0.33649269402E+02  0.35233540752E+02  0.41800000000E+01 0. -1.
         -5    1    4    4    0  501 -0.18380486702E+03 -0.17111886581E+03 -0.57177280477E+00  0.25116467646E+03  0.41800000000E+01 0. -1.
</event>
<event>
11    1  0.1078607E-008  0.1984050E+03  0.7561462E-02  0.1055657E+00
         22   -1    0    0    0    0  0.00000000000E+00  0.00000000000E+00  0.77084015720E+02  0.77084015720E+02  0.00000000000E+00 0. -1.
         22   -1    0    0    0    0 -0.00000000000E+00 -0.00000000000E+00 -0.16054292697E+04  0.16054292697E+04  0.00000000000E+00 0.  1.
         24    2    1    2    0    0 -0.12983628614E+03  0.59991824790E+02 -0.99949335294E+03  0.10127622686E+04  0.79018794430E+02 0.  0.
         25    2    1    2    0    0  0.15354324255E+03 -0.14608881207E+03 -0.47712617687E+03  0.53685638386E+03  0.12509164600E+03 0.  0.
        -24    2    1    2    0    0 -0.23706956414E+02  0.86096987281E+02 -0.51725724148E+02  0.13289463294E+03  0.83730053887E+02 0.  0.
        -11    1    3    3    0    0 -0.13193050461E+03  0.52420944352E+02 -0.99129277649E+03  0.10014065020E+04  0.00000000000E+00 0.  1.
         12    1    3    3    0    0  0.20942184714E+01  0.75708804382E+01 -0.82005764494E+01  0.11355766628E+02  0.00000000000E+00 0. -1.
         11    1    5    5    0    0 -0.26618889533E+02  0.34901360089E+02  0.17065205893E+02  0.47094495095E+02  0.00000000000E+00 0. -1.
        -12    1    5    5    0    0  0.29119331195E+01  0.51195627192E+02 -0.68790930041E+02  0.85800137843E+02  0.00000000000E+00 0.  1.
          5    1    4    4  501    0  0.90832852640E+02 -0.44996667920E+01 -0.16767575383E+03  0.19079697309E+03  0.41800000000E+01 0. -1.
         -5    1    4    4    0  501  0.62710389912E+02 -0.14158914528E+03 -0.30945042304E+03  0.34605941077E+03  0.41800000000E+01 0. -1.
</event>
<event>
11    1  0.1078607E-008  0.1891018E+03  0.7561462E-02  0.1062509E+00
         22   -1    0    0    0    0  0.00000000000E+00  0.00000000000E+00  0.17097525349E+03  0.17097525349E+03  0.00000000000E+00 0.  1.
         22   -1    0    0    0    0 -0.00000000000E+00 -0.00000000000E+00 -0.70894707566E+03  0.70894707566E+03  0.00000000000E+00 0. -1.
        -24    2    1    2    0    0  0.36241272812E+02 -0.44080839999E+01 -0.45221368495E+03  0.46065264375E+03  0.79817167777E+02 0.  0.
         25    2    1    2    0    0 -0.86277884438E+02 -0.12599622147E+03 -0.14816037038E+03  0.24681550157E+03  0.12508986887E+03 0.  0.
         24    2    1    2    0    0  0.50036611625E+02  0.13040430547E+03  0.62402233170E+02  0.17245418384E+03  0.79608174400E+02 0.  0.
        -13    1    5    5    0    0  0.49832158445E+02  0.13659551533E+03  0.71037541235E+02  0.16182679348E+03  0.00000000000E+00 0.  1.
         14    1    5    5    0    0  0.20445318002E+00 -0.61912098540E+01 -0.86353080654E+01  0.10627390364E+02  0.00000000000E+00 0. -1.
         13    1    3    3    0    0  0.28511204046E+02  0.36382314709E+02 -0.23211049769E+03  0.23666821654E+03  0.00000000000E+00 0. -1.
        -14    1    3    3    0    0  0.77300687660E+01 -0.40790398709E+02 -0.22010318726E+03  0.22398442721E+03  0.00000000000E+00 0.  1.
          5    1    4    4  501    0  0.17988282705E+02 -0.24756267677E+02  0.95357883975E+01  0.32324213283E+02  0.41800000000E+01 0. -1.
         -5    1    4    4    0  501 -0.10426616714E+03 -0.10123995380E+03 -0.15769615878E+03  0.21449128828E+03  0.41800000000E+01 0. -1.
</event>
<event>
11    1  0.1078607E-008  0.2207623E+03  0.7561462E-02  0.1040741E+00
         22   -1    0    0    0    0  0.00000000000E+00  0.00000000000E+00  0.16765649192E+04  0.16765649192E+04  0.00000000000E+00 0. -1.
         22   -1    0    0    0    0 -0.00000000000E+00 -0.00000000000E+00 -0.17443348998E+03  0.17443348998E+03  0.00000000000E+00 0.  1.
         24    2    1    2    0    0  0.44771603244E+01  0.21976775608E+02 -0.83716552796E+02  0.11745944952E+03  0.79279489400E+02 0.  0.
         25    2    1    2    0    0  0.17263849692E+03  0.23165380835E+02  0.10400979673E+03  0.23833971108E+03  0.12508834707E+03 0.  0.
        -24    2    1    2    0    0 -0.17711565724E+03 -0.45142156444E+02  0.14818381853E+04  0.14951992486E+04  0.79803604458E+02 0.  0.
        -13    1    3    3    0    0 -0.31002819912E+02  0.65643523331E+01 -0.83917341703E+01  0.32782415507E+02  0.00000000000E+00 0.  1.
         14    1    3    3    0    0  0.35479980237E+02  0.15412423275E+02 -0.75324818626E+02  0.84677034016E+02  0.00000000000E+00 0. -1.
         11    1    5    5    0    0 -0.16266585763E+03 -0.49188700661E+02  0.10984877921E+04  0.11115552793E+04  0.00000000000E+00 0. -1.
        -12    1    5    5    0    0 -0.14449799609E+02  0.40465442175E+01  0.38335039318E+03  0.38364396930E+03  0.00000000000E+00 0.  1.
          5    1    4    4  501    0 -0.70625195264E+01 -0.26680065047E+02  0.13289531058E+02  0.30915838800E+02  0.41800000000E+01 0. -1.
         -5    1    4    4    0  501  0.17970101644E+03  0.49845445882E+02  0.90720265673E+02  0.20742387228E+03  0.41800000000E+01 0. -1.
</event>
<event>
11    1  0.1201736E-008  0.1939214E+03  0.7561462E-02  0.1058907E+00
         22   -1    0    0    0    0  0.00000000000E+00  0.00000000000E+00  0.24011203711E+03  0.24011203711E+03  0.00000000000E+00 0. -1.
         22   -1    0    0    0    0 -0.00000000000E+00 -0.00000000000E+00 -0.12867094852E+04  0.12867094852E+04  0.00000000000E+00 0.  1.
         24    2    1    2    0    0 -0.59816580174E+02 -0.12065932843E+02 -0.79834403905E+03  0.80413054509E+03  0.74492408127E+02 0.  0.
         25    2    1    2    0    0  0.72111455761E+02  0.15851689937E+03 -0.42689539531E+03  0.47771803162E+03  0.12508864761E+03 0.  0.
        -24    2    1    2    0    0 -0.12294875587E+02 -0.14645096653E+03  0.17864198623E+03  0.24497294564E+03  0.80620935776E+02 0.  0.
        -11    1    3    3    0    0 -0.64831397272E+02 -0.14255571044E+02 -0.79489592085E+03  0.79766274600E+03  0.00000000000E+00 0.  1.
         12    1    3    3    0    0  0.50148170983E+01  0.21896382015E+01 -0.34481182034E+01  0.64677990945E+01  0.00000000000E+00 0. -1.
         13    1    5    5    0    0 -0.76764423423E+00 -0.13952883880E+03  0.18363395630E+03  0.23063025830E+03  0.00000000000E+00 0. -1.
        -14    1    5    5    0    0 -0.11527231353E+02 -0.69221277315E+01 -0.49919700694E+01  0.14342687341E+02  0.00000000000E+00 0.  1.
          5    1    4    4  501    0 -0.22359781040E+02  0.26722166663E+02 -0.21699791198E+02  0.41259996817E+02  0.41800000000E+01 0. -1.
         -5    1    4    4    0  501  0.94471236801E+02  0.13179473271E+03 -0.40519560411E+03  0.43645803480E+03  0.41800000000E+01 0. -1.
</event>
<event>
11    1  0.1078607E-008  0.1403586E+03  0.7561462E-02  0.1107159E+00
         22   -1    0    0    0    0  0.00000000000E+00  0.00000000000E+00  0.12281351845E+04  0.12281351845E+04  0.00000000000E+00 0.  1.
         22   -1    0    0    0    0 -0.00000000000E+00 -0.00000000000E+00 -0.19246161663E+04  0.19246161663E+04  0.00000000000E+00 0.  1.
         24    2    1    2    0    0  0.18656471878E+02  0.45722533834E+02 -0.19016311938E+04  0.19039186950E+04  0.79161768676E+02 0.  0.
         25    2    1    2    0    0 -0.18232908662E+02  0.23963896133E+02  0.19947593260E+03  0.23737111720E+03  0.12509073634E+03 0.  0.
        -24    2    1    2    0    0 -0.42356321676E+00 -0.69686429967E+02  0.10056742794E+04  0.10114615387E+04  0.82567003189E+02 0.  0.
        -13    1    3    3    0    0  0.33960905058E+02  0.62163122968E+02 -0.14351829661E+04  0.14369299716E+04  0.00000000000E+00 0.  1.
         14    1    3    3    0    0 -0.15304433180E+02 -0.16440589134E+02 -0.46644822770E+03  0.46698872339E+03  0.00000000000E+00 0. -1.
         11    1    5    5    0    0 -0.85419648703E+00 -0.42463218836E+02  0.16603960491E+03  0.17138554491E+03  0.00000000000E+00 0. -1.
        -12    1    5    5    0    0  0.43063327027E+00 -0.27223211131E+02  0.83963467452E+03  0.84007599378E+03  0.00000000000E+00 0.  1.
          5    1    4    4  501    0  0.15826966837E+02 -0.43096384916E+02  0.40145756871E+02  0.61130560826E+02  0.41800000000E+01 0.  1.
         -5    1    4    4    0  501 -0.34059875499E+02  0.67060281049E+02  0.15933017573E+03  0.17624055638E+03  0.41800000000E+01 0.  1.
</event>
<event>
11    1  0.1078607E-008  0.1496978E+03  0.7561462E-02  0.1097188E+00
         22   -1    0    0    0    0  0.00000000000E+00  0.00000000000E+00  0.22473643685E+03  0.22473643685E+03  0.00000000000E+00 0.  1.
         22   -1    0    0    0    0 -0.00000000000E+00 -0.00000000000E+00 -0.12165844056E+04  0.12165844056E+04  0.00000000000E+00 0. -1.
         24    2    1    2    0    0 -0.31914264379E+02  0.76581315121E+02 -0.10655776579E+04  0.10724433723E+04  0.88293961625E+02 0.  0.
         25    2    1    2    0    0  0.24733454511E+01 -0.78540710965E+02 -0.99872128645E+02  0.17831674315E+03  0.12509059953E+03 0.  0.
        -24    2    1    2    0    0  0.29440918928E+02  0.19593958440E+01  0.17360181788E+03  0.19056072692E+03  0.72836752616E+02 0.  0.
        -13    1    3    3    0    0 -0.41229440915E+02  0.88101268373E+02 -0.71908778798E+03  0.72563692513E+03  0.00000000000E+00 0.  1.
         14    1    3    3    0    0  0.93151765360E+01 -0.11519953252E+02 -0.34648986996E+03  0.34680644720E+03  0.00000000000E+00 0. -1.
         13    1    5    5    0    0 -0.22430147200E+02 -0.98190407726E+01  0.68916133367E+02  0.73136574321E+02  0.00000000000E+00 0. -1.
        -14    1    5    5    0    0  0.51871066128E+02  0.11778436617E+02  0.10468568451E+03  0.11742415259E+03  0.00000000000E+00 0.  1.
          5    1    4    4  501    0 -0.56431752237E+02 -0.41894423146E+02 -0.21608124630E+02  0.73648277653E+02  0.41800000000E+01 0.  1.
         -5    1    4    4    0  501  0.58905097688E+02 -0.36646287819E+02 -0.78264004015E+02  0.10466846549E+03  0.41800000000E+01 0.  1.
</event>
<event>
11    1  0.1078607E-008  0.1420122E+03  0.7561462E-02  0.1105332E+00
         22   -1    0    0    0    0  0.00000000000E+00  0.00000000000E+00  0.16117892571E+04  0.16117892571E+04  0.00000000000E+00 0.  1.
         22   -1    0    0    0    0 -0.00000000000E+00 -0.00000000000E+00 -0.40548197249E+03  0.40548197249E+03  0.00000000000E+00 0.  1.
         24    2    1    2    0    0  0.78123552104E+01 -0.48171200909E+00 -0.32889352909E+03  0.33903072561E+03  0.81912236542E+02 0.  0.
         25    2    1    2    0    0 -0.74159582856E+02  0.99248667005E+01  0.68874831696E+01  0.14591977129E+03  0.12508795114E+03 0.  0.
        -24    2    1    2    0    0  0.66347227645E+02 -0.94431546914E+01  0.15283133305E+04  0.15323207326E+04  0.88170651527E+02 0.  0.
        -11    1    3    3    0    0  0.32137977457E+02 -0.25965551950E+02 -0.23778751409E+03  0.24135028763E+03  0.00000000000E+00 0.  1.
         12    1    3    3    0    0 -0.24325622247E+02  0.25483839941E+02 -0.91106014995E+02  0.97680437980E+02  0.00000000000E+00 0. -1.
         11    1    5    5    0    0 -0.11698555095E+02  0.20895761516E+02  0.21235777024E+03  0.21370379412E+03  0.00000000000E+00 0. -1.
        -12    1    5    5    0    0  0.78045782740E+02 -0.30338916207E+02  0.13159555602E+04  0.13186169385E+04  0.00000000000E+00 0.  1.
          5    1    4    4  501    0 -0.88339270782E+02 -0.20137013688E+02 -0.30525325589E+02  0.95700543284E+02  0.41800000000E+01 0. -1.
         -5    1    4    4    0  501  0.14179687926E+02  0.30061880388E+02  0.37412808759E+02  0.50219228004E+02  0.41800000000E+01 0. -1.
</event>
<event>
11    1  0.1078607E-008  0.3914958E+03  0.7561462E-02  0.9675188E-01
         22   -1    0    0    0    0  0.00000000000E+00  0.00000000000E+00  0.18545814724E+04  0.18545814724E+04  0.00000000000E+00 0.  1.
         22   -1    0    0    0    0 -0.00000000000E+00 -0.00000000000E+00 -0.34883913637E+03  0.34883913637E+03  0.00000000000E+00 0.  1.
        -24    2    1    2    0    0  0.16890110611E+03 -0.33156370079E+03 -0.20078834358E+03  0.43259096125E+03  0.91416133776E+02 0.  0.
         25    2    1    2    0    0 -0.13940396082E+03  0.32841438695E+03  0.15154018065E+04  0.15618511474E+04  0.12508755927E+03 0.  0.
         24    2    1    2    0    0 -0.29497145289E+02  0.31493138376E+01  0.19112887310E+03  0.20897850016E+03  0.79131331581E+02 0.  0.
        -13    1    5    5    0    0 -0.30522231421E+02  0.38361480457E+02  0.10304662505E+03  0.11411317509E+03  0.00000000000E+00 0.  1.
         14    1    5    5    0    0  0.10250861314E+01 -0.35212166620E+02  0.88082248047E+02  0.94865325070E+02  0.00000000000E+00 0. -1.
         11    1    3    3    0    0  0.26345501087E+01  0.37630502579E+01  0.38706766761E+01  0.60069575868E+01  0.00000000000E+00 0. -1.
        -12    1    3    3    0    0  0.16626655600E+03 -0.33532675104E+03 -0.20465902026E+03  0.42658400366E+03  0.00000000000E+00 0.  1.
          5    1    4    4  501    0 -0.16232074559E+03  0.27798900818E+03  0.13216027959E+04  0.13602489976E+04  0.41800000000E+01 0. -1.
         -5    1    4    4    0  501  0.22916784766E+02  0.50425378768E+02  0.19379901064E+03  0.20160214972E+03  0.41800000000E+01 0. -1.
</event>
<event>
11    1  0.1078607E-008  0.1341693E+03  0.7561462E-02  0.1114250E+00
         22   -1    0    0    0    0  0.00000000000E+00  0.00000000000E+00  0.26624727632E+03  0.26624727632E+03  0.00000000000E+00 0.  1.
         22   -1    0    0    0    0 -0.00000000000E+00 -0.00000000000E+00 -0.25641747597E+03  0.25641747597E+03  0.00000000000E+00 0. -1.
         24    2    1    2    0    0 -0.25381498087E+02  0.37394513692E+02 -0.16691963462E+03  0.19048269624E+03  0.79868160402E+02 0.  0.
         25    2    1    2    0    0 -0.17794256630E+02 -0.25673071832E+01 -0.37912370237E+01  0.12643581545E+03  0.12509362620E+03 0.  0.
        -24    2    1    2    0    0  0.43175754717E+02 -0.34827206508E+02  0.18054067199E+03  0.20574624059E+03  0.81605766747E+02 0.  0.
        -11    1    3    3    0    0  0.50108138727E+01  0.27107697578E+02 -0.85017867481E+01  0.28848152481E+02  0.00000000000E+00 0.  1.
         12    1    3    3    0    0 -0.30392311960E+02  0.10286816113E+02 -0.15841784787E+03  0.16163454376E+03  0.00000000000E+00 0. -1.
         13    1    5    5    0    0  0.24551988295E+02 -0.61339249852E+02  0.12722590600E+03  0.14335876276E+03  0.00000000000E+00 0. -1.
        -14    1    5    5    0    0  0.18623766422E+02  0.26512043344E+02  0.53314765985E+02  0.62387477830E+02  0.00000000000E+00 0.  1.
          5    1    4    4  501    0 -0.45787298564E+01 -0.61107328296E+02  0.15341519539E+02  0.63308016557E+02  0.41800000000E+01 0.  1.
         -5    1    4    4    0  501 -0.13215526773E+02  0.58540021113E+02 -0.19132756563E+02  0.63127798897E+02  0.41800000000E+01 0.  1.
</event>
<event>
11    1  0.1078607E-008  0.2014936E+03  0.7561462E-02  0.1053472E+00
         22   -1    0    0    0    0  0.00000000000E+00  0.00000000000E+00  0.29179220762E+03  0.29179220762E+03  0.00000000000E+00 0.  1.
         22   -1    0    0    0    0 -0.00000000000E+00 -0.00000000000E+00 -0.18986139094E+04  0.18986139094E+04  0.00000000000E+00 0.  1.
         24    2    1    2    0    0  0.13857919618E+03  0.78420127811E+02 -0.18075382938E+04  0.18162573071E+04  0.79006403260E+02 0.  0.
         25    2    1    2    0    0 -0.95594078506E+02 -0.88482600263E+02  0.31032079154E+02  0.18324104836E+03  0.12508754323E+03 0.  0.
        -24    2    1    2    0    0 -0.42985117679E+02  0.10062472452E+02  0.16968451294E+03  0.19090776156E+03  0.75524603938E+02 0.  0.
        -13    1    3    3    0    0  0.32311728867E+02  0.60595473216E+02 -0.59845346749E+03  0.60238062050E+03  0.00000000000E+00 0.  1.
         14    1    3    3    0    0  0.10626746732E+03  0.17824654595E+02 -0.12090848263E+04  0.12138766866E+04  0.00000000000E+00 0. -1.
         13    1    5    5    0    0 -0.30586105048E+02 -0.22228737043E+01  0.13090305684E+02  0.33343771419E+02  0.00000000000E+00 0. -1.
        -14    1    5    5    0    0 -0.12399012630E+02  0.12285346156E+02  0.15659420725E+03  0.15756399014E+03  0.00000000000E+00 0.  1.
          5    1    4    4  501    0  0.15434278423E+02 -0.64604835077E+02  0.17334691074E+02  0.68774745223E+02  0.41800000000E+01 0.  1.
         -5    1    4    4    0  501 -0.11102835693E+03 -0.23877765186E+02  0.13697388080E+02  0.11446630313E+03  0.41800000000E+01 0.  1.
</event>
<event>
11    1  0.1078607E-008  0.1665145E+03  0.7561462E-02  0.1081105E+00
         22   -1    0    0    0    0  0.00000000000E+00  0.00000000000E+00  0.15781020131E+03  0.15781020131E+03  0.00000000000E+00 0. -1.
         22   -1    0    0    0    0 -0.00000000000E+00 -0.00000000000E+00 -0.81858324809E+03  0.81858324809E+03  0.00000000000E+00 0.  1.
         24    2    1    2    0    0 -0.71762620054E+02  0.49076022755E+02 -0.32660393615E+03  0.34767225236E+03  0.81532412635E+02 0.  0.
         25    2    1    2    0    0  0.13822981976E+03 -0.78388590623E+02 -0.43542852362E+03  0.48010186132E+03  0.12509014293E+03 0.  0.
        -24    2    1    2    0    0 -0.66467199702E+02  0.29312567867E+02  0.10125941298E+03  0.14861933571E+03  0.80976064113E+02 0.  0.
        -13    1    3    3    0    0 -0.79787777417E+02  0.30352493886E+02 -0.30954979531E+03  0.32110502813E+03  0.00000000000E+00 0.  1.
         14    1    3    3    0    0  0.80251573626E+01  0.18723528870E+02 -0.17054140834E+02  0.26567224236E+02  0.00000000000E+00 0. -1.
         11    1    5    5    0    0 -0.55353522280E+02 -0.11888690733E+02  0.86664767453E+02  0.10351876793E+03  0.00000000000E+00 0. -1.
        -12    1    5    5    0    0 -0.11113677422E+02  0.41201258601E+02  0.14594645526E+02  0.45100567781E+02  0.00000000000E+00 0.  1.
          5    1    4    4  501    0  0.46325353117E+02 -0.50229521941E+02 -0.33142187335E+03  0.33841834133E+03  0.41800000000E+01 0. -1.
         -5    1    4    4    0  501  0.91904466639E+02 -0.28159068682E+02 -0.10400665027E+03  0.14168351999E+03  0.41800000000E+01 0. -1.
</event>
<event>
11    1  0.1078607E-008  0.1559802E+03  0.7561462E-02  0.1090920E+00
         22   -1    0    0    0    0  0.00000000000E+00  0.00000000000E+00  0.83406337247E+03  0.83406337247E+03  0.00000000000E+00 0. -1.
         22   -1    0    0    0    0 -0.00000000000E+00 -0.00000000000E+00 -0.28587964040E+04  0.28587964040E+04  0.00000000000E+00 0. -1.
         24    2    1    2    0    0  0.22999000476E+02 -0.15456047615E+01 -0.26769934644E+04  0.26782633762E+04  0.79179295315E+02 0.  0.
         25    2    1    2    0    0 -0.10894472129E+03  0.36061814387E+02 -0.13561755354E+03  0.21727197735E+03  0.12508231113E+03 0.  0.
        -24    2    1    2    0    0  0.85945720816E+02 -0.34516209626E+02  0.78787798636E+03  0.79732442300E+03  0.79977987393E+02 0.  0.
        -13    1    3    3    0    0  0.22227298099E+02 -0.32744195344E+02 -0.77152179599E+03  0.77253615889E+03  0.00000000000E+00 0.  1.
         14    1    3    3    0    0  0.77170237753E+00  0.31198590582E+02 -0.19054716684E+04  0.19057272173E+04  0.00000000000E+00 0. -1.
         11    1    5    5    0    0  0.31274468204E+02 -0.32474092494E+02  0.59867968814E+03  0.60037490624E+03  0.00000000000E+00 0. -1.
        -12    1    5    5    0    0  0.54671252612E+02 -0.20421171312E+01  0.18919829821E+03  0.19694951676E+03  0.00000000000E+00 0.  1.
          5    1    4    4  501    0 -0.52749683749E+02  0.72300835526E+02 -0.34574720809E+02  0.96035533384E+02  0.41800000000E+01 0.  1.
         -5    1    4    4    0  501 -0.56195037543E+02 -0.36239021139E+02 -0.10104283273E+03  0.12123644396E+03  0.41800000000E+01 0.  1.
</event>
<event>
11    1  0.1078607E-008  0.2283943E+03  0.7561462E-02  0.1036083E+00
         22   -1    0    0    0    0  0.00000000000E+00  0.00000000000E+00  0.53682758257E+03  0.53682758257E+03  0.00000000000E+00 0. -1.
         22   -1    0    0    0    0 -0.00000000000E+00 -0.00000000000E+00 -0.67001279737E+03  0.67001279737E+03  0.00000000000E+00 0. -1.
         24    2    1    2    0    0 -0.53018515528E+00  0.21485971551E+02 -0.46251245841E+03  0.47007372745E+03  0.81176394251E+02 0.  0.
         25    2    1    2    0    0  0.19114527619E+03 -0.31627001502E+02 -0.10663916303E+03  0.25407964913E+03  0.12509105953E+03 0.  0.
        -24    2    1    2    0    0 -0.19061509104E+03  0.10141029951E+02  0.43596640664E+03  0.48268700337E+03  0.80517588619E+02 0.  0.
        -13    1    3    3    0    0  0.12113512162E+02  0.49104432183E+02 -0.34553749948E+03  0.34921933793E+03  0.00000000000E+00 0.  1.
         14    1    3    3    0    0 -0.12643697317E+02 -0.27618460632E+02 -0.11697495893E+03  0.12085438952E+03  0.00000000000E+00 0. -1.
         11    1    5    5    0    0 -0.39173077892E+02 -0.30510822357E+02  0.12277746608E+03  0.13243770796E+03  0.00000000000E+00 0. -1.
        -12    1    5    5    0    0 -0.15144201315E+03  0.40651852308E+02  0.31318894056E+03  0.35024929541E+03  0.00000000000E+00 0.  1.
          5    1    4    4  501    0  0.17597616593E+02 -0.45810955925E+02 -0.51792037507E+02  0.71471724071E+02  0.41800000000E+01 0. -1.
         -5    1    4    4    0  501  0.17354765960E+03  0.14183954422E+02 -0.54847125527E+02  0.18260792506E+03  0.41800000000E+01 0. -1.
</event>
<event>
11    1  0.1078607E-008  0.1314443E+03  0.7561462E-02  0.1117507E+00
         22   -1    0    0    0    0  0.00000000000E+00  0.00000000000E+00  0.11261904124E+04  0.11261904124E+04  0.00000000000E+00 0.  1.
         22   -1    0    0    0    0 -0.00000000000E+00 -0.00000000000E+00 -0.18572622619E+03  0.18572622619E+03  0.00000000000E+00 0.  1.
        -24    2    1    2    0    0 -0.72878363938E+00 -0.39911995104E+02 -0.14714834588E+03  0.17379242450E+03  0.83412664744E+02 0.  0.
         25    2    1    2    0    0  0.12317798243E+02  0.46664689280E+02  0.16722668211E+03  0.21433885309E+03  0.12508820631E+03 0.  0.
         24    2    1    2    0    0 -0.11589014604E+02 -0.67526941763E+01  0.92038584995E+03  0.92378536096E+03  0.78034455234E+02 0.  0.
        -11    1    5    5    0    0 -0.66053674020E+01  0.17547322628E+02  0.82542977204E+03  0.82564268784E+03  0.00000000000E+00 0.  1.
         12    1    5    5    0    0 -0.49836472021E+01 -0.24300016805E+02  0.94956077906E+02  0.98142673122E+02  0.00000000000E+00 0. -1.
         11    1    3    3    0    0  0.36828387182E+02 -0.12048932782E+02 -0.34729929622E+02  0.52035323533E+02  0.00000000000E+00 0. -1.
        -12    1    3    3    0    0 -0.37557170821E+02 -0.27863062322E+02 -0.11241841626E+03  0.12175710097E+03  0.00000000000E+00 0.  1.
          5    1    4    4  501    0 -0.24711664858E+01 -0.36919523974E+02  0.97637176059E+02  0.10449712179E+03  0.41800000000E+01 0.  1.
         -5    1    4    4    0  501  0.14788964729E+02  0.83584213254E+02  0.69589506048E+02  0.10984173130E+03  0.41800000000E+01 0.  1.
</event>
<event>
11    1  0.1078607E-008  0.1563484E+03  0.7561462E-02  0.1090563E+00
         22   -1    0    0    0    0  0.00000000000E+00  0.00000000000E+00  0.25473557250E+03  0.25473557250E+03  0.00000000000E+00 0.  1.
         22   -1    0    0    0    0 -0.00000000000E+00 -0.00000000000E+00 -0.60670036875E+03  0.60670036875E+03  0.00000000000E+00 0. -1.
         24    2    1    2    0    0 -0.32555351871E+02 -0.25064947446E+02 -0.51441320028E+03  0.52220759099E+03  0.79948264101E+02 0.  0.
         25    2    1    2    0    0  0.88028673548E+02 -0.49900325345E+02  0.40742028419E+02  0.16596921421E+03  0.12508707907E+03 0.  0.
        -24    2    1    2    0    0 -0.55473321677E+02  0.74965272791E+02  0.12170637561E+03  0.17325913605E+03  0.80679643146E+02 0.  0.
        -13    1    3    3    0    0 -0.25903651920E+02  0.26894720463E+02 -0.19872149213E+03  0.20219929922E+03  0.00000000000E+00 0.  1.
         14    1    3    3    0    0 -0.66516999504E+01 -0.51959667909E+02 -0.31569170815E+03  0.32000829176E+03  0.00000000000E+00 0. -1.
         13    1    5    5    0    0 -0.12829941634E+02 -0.77367409860E+01 -0.52322561099E+01  0.15869501171E+02  0.00000000000E+00 0. -1.
        -14    1    5    5    0    0 -0.42643380043E+02  0.82702013777E+02  0.12693863172E+03  0.15738963488E+03  0.00000000000E+00 0.  1.
          5    1    4    4  501    0  0.39175293180E+02 -0.55442617629E+02  0.78477591458E+02  0.10384985415E+03  0.41800000000E+01 0.  1.
         -5    1    4    4    0  501  0.48853380368E+02  0.55422922839E+01 -0.37735563039E+02  0.62119360066E+02  0.41800000000E+01 0.  1.
</event>
<event>
11    1  0.1078607E-008  0.2440074E+03  0.7561462E-02  0.1027141E+00
         22   -1    0    0    0    0  0.00000000000E+00  0.00000000000E+00  0.12955940684E+03  0.12955940684E+03  0.00000000000E+00 0. -1.
         22   -1    0    0    0    0 -0.00000000000E+00 -0.00000000000E+00 -0.11522326977E+04  0.11522326977E+04  0.00000000000E+00 0. -1.
         24    2    1    2    0    0  0.25212835812E+03 -0.22321317618E+02 -0.83385385148E+03  0.87479928508E+03  0.76776255206E+02 0.  0.
         25    2    1    2    0    0 -0.13141102077E+03 -0.33170194466E+00 -0.18640839055E+03  0.26012422584E+03  0.12509020104E+03 0.  0.
        -24    2    1    2    0    0 -0.12071733735E+03  0.22653019562E+02 -0.24110488584E+01  0.14686859365E+03  0.80490594561E+02 0.  0.
        -13    1    3    3    0    0 -0.12564364856E+01  0.42435897491E+00 -0.63718207067E+02  0.63732006284E+02  0.00000000000E+00 0.  1.
         14    1    3    3    0    0  0.25338479460E+03 -0.22745676593E+02 -0.77013564441E+03  0.81106727880E+03  0.00000000000E+00 0. -1.
         13    1    5    5    0    0 -0.31618738523E+02  0.14996202684E+01  0.35670834953E+02  0.47690690423E+02  0.00000000000E+00 0. -1.
        -14    1    5    5    0    0 -0.89098598824E+02  0.21153399294E+02 -0.38081883811E+02  0.99177903228E+02  0.00000000000E+00 0.  1.
          5    1    4    4  501    0 -0.57033657305E+02  0.61648077480E+02 -0.77664835696E+02  0.11446668785E+03  0.41800000000E+01 0.  1.
         -5    1    4    4    0  501 -0.74377363465E+02 -0.61979779424E+02 -0.10874355485E+03  0.14565753800E+03  0.41800000000E+01 0.  1.
</event>
<event>
11    1  0.1078607E-008  0.9931658E+03  0.7561462E-02  0.8685542E-01
         22   -1    0    0    0    0  0.00000000000E+00  0.00000000000E+00  0.64994237800E+03  0.64994237800E+03  0.00000000000E+00 0. -1.
         22   -1    0    0    0    0 -0.00000000000E+00 -0.00000000000E+00 -0.37940989651E+03  0.37940989651E+03  0.00000000000E+00 0.  1.
         24    2    1    2    0    0  0.34710139630E+02  0.31709391858E+02 -0.62627130659E+01  0.93655027091E+02  0.80757434328E+02 0.  0.
         25    2    1    2    0    0 -0.30196327809E+03 -0.34222074081E+03  0.10835472527E+03  0.48547448755E+03  0.12509146583E+03 0.  0.
        -24    2    1    2    0    0  0.26725313846E+03  0.31051134895E+03  0.16844046929E+03  0.45022275986E+03  0.80540697556E+02 0.  0.
        -13    1    3    3    0    0  0.41233027530E+01  0.26512993770E+02 -0.39779641415E+02  0.47982917120E+02  0.00000000000E+00 0.  1.
         14    1    3    3    0    0  0.30586836877E+02  0.51963980878E+01  0.33516928349E+02  0.45672109971E+02  0.00000000000E+00 0. -1.
         11    1    5    5    0    0  0.15754724388E+02  0.61720047149E+01  0.24951753471E+02  0.30147885233E+02  0.00000000000E+00 0. -1.
        -12    1    5    5    0    0  0.25149841407E+03  0.30433934424E+03  0.14348871582E+03  0.42007487463E+03  0.00000000000E+00 0.  1.
          5    1    4    4  501    0 -0.12303579654E+02  0.90169156474E+01  0.12608054206E+02  0.20226672266E+02  0.41800000000E+01 0. -1.
         -5    1    4    4    0  501 -0.28965969843E+03 -0.35123765646E+03  0.95746671065E+02  0.46524781529E+03  0.41800000000E+01 0. -1.
</event>
<event>
11    1  0.1078607E-008  0.2620372E+03  0.7561462E-02  0.1017675E+00
         22   -1    0    0    0    0  0.00000000000E+00  0.00000000000E+00  0.29414304358E+04  0.29414304358E+04  0.00000000000E+00 0. -1.
         22   -1    0    0    0    0 -0.00000000000E+00 -0.00000000000E+00 -0.46796318845E+02  0.46796318845E+02  0.00000000000E+00 0. -1.
         24    2    1    2    0    0 -0.33707273842E+02  0.21946761983E+03  0.41996995709E+03  0.48176096448E+03  0.80103967308E+02 0.  0.
         25    2    1    2    0    0  0.58904971941E+02 -0.25126909745E+03  0.14840162132E+04  0.15114762480E+04  0.12510144733E+03 0.  0.
        -24    2    1    2    0    0 -0.25197698099E+02  0.31801477614E+02  0.99064794674E+03  0.99498954225E+03  0.83513932011E+02 0.  0.
        -11    1    3    3    0    0 -0.23665994082E+01  0.29375943570E+02  0.14493886031E+02  0.32842344400E+02  0.00000000000E+00 0.  1.
         12    1    3    3    0    0 -0.31340674434E+02  0.19009167626E+03  0.40547607106E+03  0.44891862008E+03  0.00000000000E+00 0. -1.
         13    1    5    5    0    0 -0.34479646900E+01  0.54663898184E+02  0.78781098506E+03  0.78971271891E+03  0.00000000000E+00 0. -1.
        -14    1    5    5    0    0 -0.21749733409E+02 -0.22862420570E+02  0.20283696168E+03  0.20527682334E+03  0.00000000000E+00 0.  1.
          5    1    4    4  501    0 -0.37976717145E+02 -0.82889906759E+02  0.54171318525E+03  0.54934835502E+03  0.41800000000E+01 0.  1.
         -5    1    4    4    0  501  0.96881689086E+02 -0.16837919069E+03  0.94230302792E+03  0.96212789293E+03  0.41800000000E+01 0.  1.
</event>
<event>
11    1  0.1078607E-008  0.1790960E+03  0.7561462E-02  0.1070376E+00
         22   -1    0    0    0    0  0.00000000000E+00  0.00000000000E+00  0.78386729201E+03  0.78386729201E+03  0.00000000000E+00 0.  1.
         22   -1    0    0    0    0 -0.00000000000E+00 -0.00000000000E+00 -0.11035271760E+04  0.11035271760E+04  0.00000000000E+00 0. -1.
        -24    2    1    2    0    0 -0.11909116290E+03 -0.58579532677E+02 -0.88397426613E+03  0.89745255472E+03  0.79976984524E+02 0.  0.
         25    2    1    2    0    0  0.11924221400E+03 -0.12894904614E+02 -0.17289422005E+03  0.24480066857E+03  0.12509984749E+03 0.  0.
         24    2    1    2    0    0 -0.15105109682E+00  0.71474437291E+02  0.73720860219E+03  0.74514124473E+03  0.81549576654E+02 0.  0.
        -11    1    5    5    0    0  0.21276759614E+02  0.15938443179E+02  0.49542742847E+03  0.49614017308E+03  0.00000000000E+00 0.  1.
         12    1    5    5    0    0 -0.21427810711E+02  0.55535994112E+02  0.24178117372E+03  0.24900107164E+03  0.00000000000E+00 0. -1.
         11    1    3    3    0    0 -0.11053199797E+03 -0.18616919436E+02 -0.70627177155E+03  0.71511098967E+03  0.00000000000E+00 0. -1.
        -12    1    3    3    0    0 -0.85591649313E+01 -0.39962613241E+02 -0.17770249458E+03  0.18234156504E+03  0.00000000000E+00 0.  1.
          5    1    4    4  501    0 -0.31312499079E+00 -0.47295514684E+02 -0.61993873691E+02  0.78087620861E+02  0.41800000000E+01 0.  1.
         -5    1    4    4    0  501  0.11955533899E+03  0.34400610070E+02 -0.11090034636E+03  0.16671304771E+03  0.41800000000E+01 0.  1.
</event>
<event>
11    1  0.1078607E-008  0.1633044E+03  0.7561462E-02  0.1084010E+00
         22   -1    0    0    0    0  0.00000000000E+00  0.00000000000E+00  0.16858176121E+04  0.16858176121E+04  0.00000000000E+00 0.  1.
         22   -1    0    0    0    0 -0.00000000000E+00 -0.00000000000E+00 -0.26711095856E+03  0.26711095856E+03  0.00000000000E+00 0.  1.
         24    2    1    2    0    0  0.31559078479E+02 -0.99816073041E+02 -0.23502530598E+03  0.26937559318E+03  0.79794059181E+02 0.  0.
         25    2    1    2    0    0 -0.74756552665E+02  0.97067562145E+02  0.58987943680E+03  0.61531757744E+03  0.12508923759E+03 0.  0.
        -24    2    1    2    0    0  0.43197474186E+02  0.27485108969E+01  0.10638525227E+04  0.10682354000E+04  0.86435546441E+02 0.  0.
        -11    1    3    3    0    0  0.51265485168E+02 -0.98121152943E+02 -0.21079400699E+03  0.23809666946E+03  0.00000000000E+00 0.  1.
         12    1    3    3    0    0 -0.19706406689E+02 -0.16949200980E+01 -0.24231298992E+02  0.31278923727E+02  0.00000000000E+00 0. -1.
         11    1    5    5    0    0  0.45911728091E+02 -0.12796649351E+02  0.26661067949E+03  0.27083739666E+03  0.00000000000E+00 0. -1.
        -12    1    5    5    0    0 -0.27142539053E+01  0.15545160248E+02  0.79724184320E+03  0.79739800334E+03  0.00000000000E+00 0.  1.
          5    1    4    4  501    0 -0.10449992651E+03  0.53278251836E+02  0.46566312553E+03  0.48022747281E+03  0.41800000000E+01 0.  1.
         -5    1    4    4    0  501  0.29743373840E+02  0.43789310309E+02  0.12421631126E+03  0.13509010463E+03  0.41800000000E+01 0.  1.
</event>
<event>
11    1  0.1078607E-008  0.2467120E+03  0.7561462E-02  0.1025665E+00
         22   -1    0    0    0    0  0.00000000000E+00  0.00000000000E+00  0.22424208496E+03  0.22424208496E+03  0.00000000000E+00 0.  1.
         22   -1    0    0    0    0 -0.00000000000E+00 -0.00000000000E+00 -0.10281831284E+04  0.10281831284E+04  0.00000000000E+00 0.  1.
         24    2    1    2    0    0  0.22777068164E+03  0.80570406784E+02 -0.80991576035E+03  0.84914339072E+03  0.81913889370E+02 0.  0.
         25    2    1    2    0    0 -0.11445916629E+03 -0.80061220484E+02 -0.11564322021E+03  0.22027808345E+03  0.12505350813E+03 0.  0.
        -24    2    1    2    0    0 -0.11331151535E+03 -0.50918630019E+00  0.12161793715E+03  0.18300373917E+03  0.76548593287E+02 0.  0.
        -11    1    3    3    0    0  0.11072309719E+03  0.82443351248E+02 -0.43667079850E+03  0.45797150204E+03  0.00000000000E+00 0.  1.
         12    1    3    3    0    0  0.11704758445E+03 -0.18729444635E+01 -0.37324496185E+03  0.39117188868E+03  0.00000000000E+00 0. -1.
         11    1    5    5    0    0 -0.87129644357E+02  0.22843517532E+02  0.49439256236E+02  0.10275038334E+03  0.00000000000E+00 0. -1.
        -12    1    5    5    0    0 -0.26181870995E+02 -0.23352703832E+02  0.72178680909E+02  0.80253355836E+02  0.00000000000E+00 0.  1.
          5    1    4    4  501    0 -0.74537758303E+02 -0.86846453511E+02 -0.13344228404E+03  0.17584794417E+03  0.41800000000E+01 0.  1.
         -5    1    4    4    0  501 -0.39921407984E+02  0.67852330267E+01  0.17799063833E+02  0.44430139275E+02  0.41800000000E+01 0.  1.
</event>
<event>
11    1  0.1078607E-008  0.1844003E+03  0.7561462E-02  0.1066138E+00
         22   -1    0    0    0    0  0.00000000000E+00  0.00000000000E+00  0.11361043978E+03  0.11361043978E+03  0.00000000000E+00 0.  1.
         22   -1    0    0    0    0 -0.00000000000E+00 -0.00000000000E+00 -0.24620622076E+04  0.24620622076E+04  0.00000000000E+00 0.  1.
        -24    2    1    2    0    0 -0.45616441591E+02 -0.83811076515E+02 -0.21777744678E+04  0.21814239233E+04  0.82483600808E+02 0.  0.
         25    2    1    2    0    0 -0.83233844479E+02  0.12752348386E+03 -0.93833988469E+02  0.21827364815E+03  0.12509378994E+03 0.  0.
         24    2    1    2    0    0  0.12885028607E+03 -0.43712407349E+02 -0.76843311521E+02  0.17597507586E+03  0.80926893067E+02 0.  0.
        -11    1    5    5    0    0  0.68488081349E+02 -0.55622533993E+02 -0.16428232416E+02  0.89746144178E+02  0.00000000000E+00 0.  1.
         12    1    5    5    0    0  0.60362204721E+02  0.11910126643E+02 -0.60415079105E+02  0.86228931680E+02  0.00000000000E+00 0. -1.
         13    1    3    3    0    0  0.14540255704E+02  0.77855924929E+01 -0.30661503880E+03  0.30705832753E+03  0.00000000000E+00 0. -1.
        -14    1    3    3    0    0 -0.60156697295E+02 -0.91596669008E+02 -0.18711594290E+04  0.18743655958E+04  0.00000000000E+00 0.  1.
          5    1    4    4  501    0 -0.78385714803E+02  0.13160791034E+03 -0.32725544491E+02  0.15669523289E+03  0.41800000000E+01 0. -1.
         -5    1    4    4    0  501 -0.48481296765E+01 -0.40844264717E+01 -0.61108443978E+02  0.61578415263E+02  0.41800000000E+01 0. -1.
</event>
<event>
11    1  0.1078607E-008  0.2651247E+03  0.7561462E-02  0.1016137E+00
         22   -1    0    0    0    0  0.00000000000E+00  0.00000000000E+00  0.79670134407E+03  0.79670134407E+03  0.00000000000E+00 0.  1.
         22   -1    0    0    0    0 -0.00000000000E+00 -0.00000000000E+00 -0.17011450495E+04  0.17011450495E+04  0.00000000000E+00 0. -1.
        -24    2    1    2    0    0  0.11981343385E+03  0.10202781315E+03 -0.15039763620E+04  0.15146949086E+04  0.87125399060E+02 0.  0.
         25    2    1    2    0    0 -0.33955065926E+03 -0.94928944319E+02  0.37010322689E+02  0.37594001605E+03  0.12511985057E+03 0.  0.
         24    2    1    2    0    0  0.21973722541E+03 -0.70988688297E+01  0.56252233385E+03  0.60721146894E+03  0.62765832762E+02 0.  0.
        -11    1    5    5    0    0  0.21588853926E+03  0.14202199090E+01  0.50922185044E+03  0.55309743389E+03  0.00000000000E+00 0.  1.
         12    1    5    5    0    0  0.38486861553E+01 -0.85190887387E+01  0.53300483403E+02  0.54114035047E+02  0.00000000000E+00 0. -1.
         13    1    3    3    0    0  0.68541846653E+02  0.35015821786E+01 -0.60743372048E+03  0.61129859364E+03  0.00000000000E+00 0. -1.
        -14    1    3    3    0    0  0.51271587199E+02  0.98526230970E+02 -0.89654264151E+03  0.90339631496E+03  0.00000000000E+00 0.  1.
          5    1    4    4  501    0 -0.72190059644E+02  0.25381758589E+01  0.54823899954E+02  0.90779840572E+02  0.41800000000E+01 0.  1.
         -5    1    4    4    0  501 -0.26736059962E+03 -0.97467120178E+02 -0.17813577265E+02  0.28516017548E+03  0.41800000000E+01 0.  1.
</event>
<event>
11    1  0.1078607E-008  0.1878658E+03  0.7561462E-02  0.1063452E+00
         22   -1    0    0    0    0  0.00000000000E+00  0.00000000000E+00  0.20780954527E+04  0.20780954527E+04  0.00000000000E+00 0. -1.
         22   -1    0    0    0    0 -0.00000000000E+00 -0.00000000000E+00 -0.62108275493E+03  0.62108275493E+03  0.00000000000E+00 0. -1.
        -24    2    1    2    0    0 -0.95745896938E+02  0.10095639212E+03 -0.56567850346E+03  0.58652870948E+03  0.68295591959E+02 0.  0.
         25    2    1    2    0    0  0.12513746623E+03 -0.10746856679E+03  0.19926839990E+03  0.28733959132E+03  0.12508903725E+03 0.  0.
         24    2    1    2    0    0 -0.29391569293E+02  0.65121746753E+01  0.18234228013E+04  0.18253099068E+04  0.77325744808E+02 0.  0.
        -13    1    5    5    0    0 -0.45768167905E+02 -0.18338857577E+01  0.59886517589E+03  0.60061434151E+03  0.00000000000E+00 0.  1.
         14    1    5    5    0    0  0.16376598612E+02  0.83460604330E+01  0.12245576255E+04  0.12246955653E+04  0.00000000000E+00 0. -1.
         13    1    3    3    0    0 -0.52284016965E+02  0.92586506782E+02 -0.32926318433E+03  0.34600595981E+03  0.00000000000E+00 0. -1.
        -14    1    3    3    0    0 -0.43461879974E+02  0.83698853338E+01 -0.23641531913E+03  0.24052274967E+03  0.00000000000E+00 0.  1.
          5    1    4    4  501    0  0.26704707566E+02  0.80822172031E+01  0.10473459851E+03  0.10846783932E+03  0.41800000000E+01 0.  1.
         -5    1    4    4    0  501  0.98432758665E+02 -0.11555078399E+03  0.94533801387E+02  0.17887175200E+03  0.41800000000E+01 0.  1.
</event>
<event>
11    1  0.1078607E-008  0.2223982E+03  0.7561462E-02  0.1039726E+00
         22   -1    0    0    0    0  0.00000000000E+00  0.00000000000E+00  0.24886938414E+03  0.24886938414E+03  0.00000000000E+00 0. -1.
         22   -1    0    0    0    0 -0.00000000000E+00 -0.00000000000E+00 -0.28586325214E+04  0.28586325214E+04  0.00000000000E+00 0. -1.
         24    2    1    2    0    0 -0.68986441243E+02 -0.44895111829E+00 -0.25174422058E+04  0.25197040663E+04  0.81449317641E+02 0.  0.
         25    2    1    2    0    0  0.14456209645E+03  0.16309198099E+03 -0.23592429008E+03  0.34468100985E+03  0.12509010315E+03 0.  0.
        -24    2    1    2    0    0 -0.75575655209E+02 -0.16264302987E+03  0.14360335859E+03  0.24311682947E+03  0.79494863636E+02 0.  0.
        -11    1    3    3    0    0 -0.51996296081E+02 -0.18312375560E+02 -0.72517245966E+03  0.72726477582E+03  0.00000000000E+00 0.  1.
         12    1    3    3    0    0 -0.16990145162E+02  0.17863424441E+02 -0.17922697461E+04  0.17924392904E+04  0.00000000000E+00 0. -1.
         13    1    5    5    0    0 -0.49455385330E+02 -0.15844548668E+03  0.10530832048E+03  0.19657225071E+03  0.00000000000E+00 0. -1.
        -14    1    5    5    0    0 -0.26120269879E+02 -0.41975431912E+01  0.38295038113E+02  0.46544578755E+02  0.00000000000E+00 0.  1.
          5    1    4    4  501    0  0.44149115912E+02 -0.12761124369E+02 -0.64636474082E+02  0.79418744089E+02  0.41800000000E+01 0.  1.
         -5    1    4    4    0  501  0.10041298054E+03  0.17585310536E+03 -0.17128781600E+03  0.26526226576E+03  0.41800000000E+01 0.  1.
</event>
<event>
11    1  0.1078607E-008  0.3582802E+03  0.7561462E-02  0.9781567E-01
         22   -1    0    0    0    0  0.00000000000E+00  0.00000000000E+00  0.16836601039E+03  0.16836601039E+03  0.00000000000E+00 0.  1.
         22   -1    0    0    0    0 -0.00000000000E+00 -0.00000000000E+00 -0.19357748874E+04  0.19357748874E+04  0.00000000000E+00 0. -1.
        -24    2    1    2    0    0 -0.15152853928E+02 -0.33723273697E+03 -0.13373967472E+04  0.13816767725E+04  0.80281482652E+02 0.  0.
         25    2    1    2    0    0 -0.13310769383E+03  0.32841090018E+03 -0.40349042191E+03  0.55138028597E+03  0.12507726278E+03 0.  0.
         24    2    1    2    0    0  0.14826054776E+03  0.88218367978E+01 -0.26521707947E+02  0.17108383933E+03  0.80667615941E+02 0.  0.
        -11    1    5    5    0    0  0.11986428339E+03  0.33273798928E+02  0.13130852526E+01  0.12440384368E+03  0.00000000000E+00 0.  1.
         12    1    5    5    0    0  0.28396264368E+02 -0.24451962130E+02 -0.27834793200E+02  0.46679995657E+02  0.00000000000E+00 0. -1.
         13    1    3    3    0    0 -0.36166766577E+01 -0.57225751726E+02 -0.37318986196E+03  0.37756925204E+03  0.00000000000E+00 0. -1.
        -14    1    3    3    0    0 -0.11536177270E+02 -0.28000698525E+03 -0.96420688522E+03  0.10041075205E+04  0.00000000000E+00 0.  1.
          5    1    4    4  501    0 -0.87189321265E+02  0.11623071884E+03 -0.93227455862E+02  0.17268580912E+03  0.41800000000E+01 0. -1.
         -5    1    4    4    0  501 -0.45918372570E+02  0.21218018134E+03 -0.31026296605E+03  0.37869447685E+03  0.41800000000E+01 0. -1.
</event>
<event>
11    1  0.1078607E-008  0.1529553E+03  0.7561462E-02  0.1093897E+00
         22   -1    0    0    0    0  0.00000000000E+00  0.00000000000E+00  0.15642273724E+04  0.15642273724E+04  0.00000000000E+00 0. -1.
         22   -1    0    0    0    0 -0.00000000000E+00 -0.00000000000E+00 -0.94194960621E+03  0.94194960621E+03  0.00000000000E+00 0. -1.
         24    2    1    2    0    0  0.28881238319E+02  0.42751751227E+02 -0.91817772056E+03  0.92298530751E+03  0.78674730321E+02 0.  0.
         25    2    1    2    0    0 -0.58682610667E+02 -0.11701084071E+03  0.43776309240E+03  0.47372892285E+03  0.12508949453E+03 0.  0.
        -24    2    1    2    0    0  0.29801372349E+02  0.74259089479E+02  0.11026923943E+04  0.11094627482E+04  0.92598806921E+02 0.  0.
        -13    1    3    3    0    0  0.50973600070E+02  0.37693849205E+02 -0.47281444169E+03  0.47704573203E+03  0.00000000000E+00 0.  1.
         14    1    3    3    0    0 -0.22092361751E+02  0.50579020221E+01 -0.44536327887E+03  0.44593957549E+03  0.00000000000E+00 0. -1.
         11    1    5    5    0    0  0.56635901621E+02  0.23393226192E+02  0.43443789240E+03  0.43873813458E+03  0.00000000000E+00 0. -1.
        -12    1    5    5    0    0 -0.26834529272E+02  0.50865863288E+02  0.66825450191E+03  0.67072461363E+03  0.00000000000E+00 0.  1.
          5    1    4    4  501    0 -0.36664020149E+02  0.19831550600E+02  0.11710229970E+03  0.12437026079E+03  0.41800000000E+01 0. -1.
         -5    1    4    4    0  501 -0.22018590518E+02 -0.13684239131E+03  0.32066079269E+03  0.34935866206E+03  0.41800000000E+01 0. -1.
</event>
<event>
11    1  0.1078607E-008  0.1387829E+03  0.7561462E-02  0.1108925E+00
         22   -1    0    0    0    0  0.00000000000E+00  0.00000000000E+00  0.64301900882E+03  0.64301900882E+03  0.00000000000E+00 0.  1.
         22   -1    0    0    0    0 -0.00000000000E+00 -0.00000000000E+00 -0.11897196275E+04  0.11897196275E+04  0.00000000000E+00 0.  1.
        -24    2    1    2    0    0  0.94962667167E+01 -0.29867358788E+02 -0.11297761728E+04  0.11329517972E+04  0.78761259145E+02 0.  0.
         25    2    1    2    0    0  0.28340855817E+02 -0.19749397703E+02  0.24413860241E+02  0.13204893889E+03  0.12509053870E+03 0.  0.
         24    2    1    2    0    0 -0.37837122534E+02  0.49616756491E+02  0.55866169386E+03  0.56773790026E+03  0.79561076141E+02 0.  0.
        -13    1    5    5    0    0 -0.56487681928E+02  0.38742526941E+02  0.50897673732E+03  0.51356514751E+03  0.00000000000E+00 0.  1.
         14    1    5    5    0    0  0.18650559394E+02  0.10874229550E+02  0.49684956539E+02  0.54172752748E+02  0.00000000000E+00 0. -1.
         13    1    3    3    0    0  0.53691481059E+01  0.24851390367E+02 -0.20878993579E+03  0.21033225298E+03  0.00000000000E+00 0. -1.
        -14    1    3    3    0    0  0.41271186108E+01 -0.54718749155E+02 -0.92098623701E+03  0.92261954422E+03  0.00000000000E+00 0.  1.
          5    1    4    4  501    0  0.41900576569E+02 -0.67395513329E+02  0.21112022367E+02  0.82225321052E+02  0.41800000000E+01 0. -1.
         -5    1    4    4    0  501 -0.13559720752E+02  0.47646115625E+02  0.33018378739E+01  0.49823617837E+02  0.41800000000E+01 0. -1.
</event>
<event>
11    1  0.1078607E-008  0.1378353E+03  0.7561462E-02  0.1110000E+00
         22   -1    0    0    0    0  0.00000000000E+00  0.00000000000E+00  0.98111521094E+03  0.98111521094E+03  0.00000000000E+00 0.  1.
         22   -1    0    0    0    0 -0.00000000000E+00 -0.00000000000E+00 -0.83447728746E+03  0.83447728746E+03  0.00000000000E+00 0. -1.
         24    2    1    2    0    0 -0.43696863925E+02  0.37779810849E+02 -0.81169109809E+03  0.81772763781E+03  0.80618365741E+02 0.  0.
         25    2    1    2    0    0  0.69241384096E+02 -0.31016477474E+02  0.29674233803E+03  0.33084406611E+03  0.12508153242E+03 0.  0.
        -24    2    1    2    0    0 -0.25544520171E+02 -0.67633333751E+01  0.66158668354E+03  0.66702079448E+03  0.80756022903E+02 0.  0.
        -11    1    3    3    0    0 -0.16065506077E+02  0.28843958433E+02 -0.97347997365E+02  0.10279448922E+03  0.00000000000E+00 0.  1.
         12    1    3    3    0    0 -0.27631357848E+02  0.89358524154E+01 -0.71434310073E+03  0.71493314859E+03  0.00000000000E+00 0. -1.
         13    1    5    5    0    0  0.11436711175E+02 -0.35940837871E+02  0.27480205761E+03  0.27737828512E+03  0.00000000000E+00 0. -1.
        -14    1    5    5    0    0 -0.36981231346E+02  0.29177504496E+02  0.38678462593E+03  0.38964250936E+03  0.00000000000E+00 0.  1.
          5    1    4    4  501    0  0.59963404764E+02 -0.62739878542E+02  0.28075248695E+03  0.29389000255E+03  0.41800000000E+01 0. -1.
         -5    1    4    4    0  501  0.92779793316E+01  0.31723401068E+02  0.15989851081E+02  0.36954063557E+02  0.41800000000E+01 0. -1.
</event>
<event>
11    1  0.1078607E-008  0.1294099E+03  0.7561462E-02  0.1119996E+00
         22   -1    0    0    0    0  0.00000000000E+00  0.00000000000E+00  0.93441813491E+02  0.93441813491E+02  0.00000000000E+00 0. -1.
         22   -1    0    0    0    0 -0.00000000000E+00 -0.00000000000E+00 -0.38696998589E+03  0.38696998589E+03  0.00000000000E+00 0.  1.
         24    2    1    2    0    0 -0.43086612741E+01  0.32093649477E+02 -0.28125368045E+03  0.29418592915E+03  0.79957246359E+02 0.  0.
         25    2    1    2    0    0  0.42376587372E+01 -0.39531312009E+02 -0.24317729829E+02  0.13348880675E+03  0.12508887706E+03 0.  0.
        -24    2    1    2    0    0  0.71002536895E-01  0.74376625316E+01  0.12043237882E+02  0.52737063476E+02  0.50801913547E+02 0.  0.
        -11    1    3    3    0    0 -0.40569699851E+01  0.19884801292E+02 -0.28124321217E+03  0.28197448239E+03  0.00000000000E+00 0.  1.
         12    1    3    3    0    0 -0.25169128901E+00  0.12208848185E+02 -0.10468284489E-01  0.12211446765E+02  0.00000000000E+00 0. -1.
         11    1    5    5    0    0  0.68392155637E+01  0.20340288797E+02  0.25204760158E+02  0.33102600389E+02  0.00000000000E+00 0. -1.
        -12    1    5    5    0    0 -0.67682130268E+01 -0.12902626266E+02 -0.13161522275E+02  0.19634463087E+02  0.00000000000E+00 0.  1.
          5    1    4    4  501    0 -0.53113443609E+02  0.49749263730E+01 -0.28552919041E+02  0.60650881033E+02  0.41800000000E+01 0.  1.
         -5    1    4    4    0  501  0.57351102346E+02 -0.44506238382E+02  0.42351892115E+01  0.72837925718E+02  0.41800000000E+01 0.  1.
</event>
<event>
11    1  0.1078607E-008  0.2216030E+03  0.7561462E-02  0.1040218E+00
         22   -1    0    0    0    0  0.00000000000E+00  0.00000000000E+00  0.57137627029E+03  0.57137627029E+03  0.00000000000E+00 0.  1.
         22   -1    0    0    0    0 -0.00000000000E+00 -0.00000000000E+00 -0.63297932569E+03  0.63297932569E+03  0.00000000000E+00 0. -1.
        -24    2    1    2    0    0 -0.18120699216E+03 -0.19353434982E+02 -0.56115227588E+03  0.59354417939E+03  0.64747870294E+02 0.  0.
         25    2    1    2    0    0  0.18977326007E+03  0.59237666152E+02  0.23888698790E+03  0.33501379820E+03  0.12507701892E+03 0.  0.
         24    2    1    2    0    0 -0.85662679107E+01 -0.39884231170E+02  0.26066223258E+03  0.27579761840E+03  0.80345466460E+02 0.  0.
        -11    1    5    5    0    0 -0.26289394103E+02 -0.34380651164E+02  0.25132259041E+03  0.25502197134E+03  0.00000000000E+00 0.  1.
         12    1    5    5    0    0  0.17723126192E+02 -0.55035800055E+01  0.93396421703E+01  0.20775647060E+02  0.00000000000E+00 0. -1.
         13    1    3    3    0    0 -0.30669594819E+02 -0.28076087480E+02 -0.14820296472E+03  0.15392533738E+03  0.00000000000E+00 0. -1.
        -14    1    3    3    0    0 -0.15053739734E+03  0.87226524981E+01 -0.41294931115E+03  0.43961884201E+03  0.00000000000E+00 0.  1.
          5    1    4    4  501    0  0.98960481777E+02  0.86327580491E+02  0.18177585025E+03  0.22428901052E+03  0.41800000000E+01 0.  1.
         -5    1    4    4    0  501  0.90812778298E+02 -0.27089914340E+02  0.57111137653E+02  0.11072478767E+03  0.41800000000E+01 0.  1.
</event>
<event>
11    1  0.1078607E-008  0.1701100E+03  0.7561462E-02  0.1077936E+00
         22   -1    0    0    0    0  0.00000000000E+00  0.00000000000E+00  0.71539205927E+03  0.71539205927E+03  0.00000000000E+00 0.  1.
         22   -1    0    0    0    0 -0.00000000000E+00 -0.00000000000E+00 -0.90516705161E+02  0.90516705161E+02  0.00000000000E+00 0. -1.
         24    2    1    2    0    0  0.34958851936E+02  0.43326724308E+02  0.63379989553E+02  0.11844922305E+03  0.83149678280E+02 0.  0.
         25    2    1    2    0    0 -0.13310550226E+03 -0.85442031849E+02  0.14235349263E+03  0.24684123857E+03  0.12509462281E+03 0.  0.
        -24    2    1    2    0    0  0.98146650323E+02  0.42115307542E+02  0.41914187193E+03  0.44061830281E+03  0.84012593507E+02 0.  0.
        -11    1    3    3    0    0  0.40060105137E+02 -0.32066715402E+01  0.67012514538E+00  0.40193828303E+02  0.00000000000E+00 0.  1.
         12    1    3    3    0    0 -0.51012532011E+01  0.46533395848E+02  0.62709864407E+02  0.78255394749E+02  0.00000000000E+00 0. -1.
         13    1    5    5    0    0  0.94381483446E+01  0.35711121427E+02  0.58611182757E+02  0.69279387857E+02  0.00000000000E+00 0. -1.
        -14    1    5    5    0    0  0.88708501978E+02  0.64041861149E+01  0.36053068917E+03  0.37133891495E+03  0.00000000000E+00 0.  1.
          5    1    4    4  501    0 -0.17211229027E+02 -0.81310673149E+02  0.78451356646E+02  0.11436668978E+03  0.41800000000E+01 0. -1.
         -5    1    4    4    0  501 -0.11589427323E+03 -0.41313586999E+01  0.63902135980E+02  0.13247454878E+03  0.41800000000E+01 0. -1.
</event>
<event>
11    1  0.1078607E-008  0.1472500E+03  0.7561462E-02  0.1099722E+00
         22   -1    0    0    0    0  0.00000000000E+00  0.00000000000E+00  0.26420342551E+03  0.26420342551E+03  0.00000000000E+00 0.  1.
         22   -1    0    0    0    0 -0.00000000000E+00 -0.00000000000E+00 -0.24480948523E+04  0.24480948523E+04  0.00000000000E+00 0. -1.
         24    2    1    2    0    0  0.65138215587E+02 -0.42608820526E+02 -0.23012117091E+04  0.23039234892E+04  0.80184881372E+02 0.  0.
         25    2    1    2    0    0 -0.23570514140E+02  0.95572937430E+02 -0.85188859614E+02  0.18053372283E+03  0.12508208413E+03 0.  0.
        -24    2    1    2    0    0 -0.41567701448E+02 -0.52964116904E+02  0.20250914200E+03  0.22784106573E+03  0.79803052307E+02 0.  0.
        -13    1    3    3    0    0 -0.90295750013E+01 -0.31144134526E+01 -0.39031026061E+02  0.40182754898E+02  0.00000000000E+00 0.  1.
         14    1    3    3    0    0  0.74167790589E+02 -0.39494407074E+02 -0.22621806831E+04  0.22637407343E+04  0.00000000000E+00 0. -1.
         11    1    5    5    0    0  0.22526629888E+02 -0.27711472365E+01  0.37284304000E+02  0.43649142442E+02  0.00000000000E+00 0. -1.
        -12    1    5    5    0    0 -0.64094331336E+02 -0.50192969667E+02  0.16522483800E+03  0.18419192329E+03  0.00000000000E+00 0.  1.
          5    1    4    4  501    0  0.14256336903E+02  0.97718197723E+02 -0.14061274065E+02  0.99836271648E+02  0.41800000000E+01 0. -1.
         -5    1    4    4    0  501 -0.37826851043E+02 -0.21452602931E+01 -0.71127585550E+02  0.80697451185E+02  0.41800000000E+01 0. -1.
</event>
<event>
11    1  0.1078607E-008  0.1386972E+03  0.7561462E-02  0.1109022E+00
         22   -1    0    0    0    0  0.00000000000E+00  0.00000000000E+00  0.12254268506E+04  0.12254268506E+04  0.00000000000E+00 0.  1.
         22   -1    0    0    0    0 -0.00000000000E+00 -0.00000000000E+00 -0.19885156683E+03  0.19885156683E+03  0.00000000000E+00 0. -1.
         24    2    1    2    0    0 -0.59931291252E+02 -0.14846142967E+02 -0.16241091308E+03  0.19130453237E+03  0.80049683238E+02 0.  0.
         25    2    1    2    0    0  0.25196969562E+02  0.31130536545E+02  0.19606731946E+03  0.23600003322E+03  0.12509845859E+03 0.  0.
        -24    2    1    2    0    0  0.34734321690E+02 -0.16284393578E+02  0.99291887736E+03  0.99697385180E+03  0.81223824064E+02 0.  0.
        -13    1    3    3    0    0 -0.75598710274E+01 -0.21661365711E+02 -0.27155796428E+01  0.23102830719E+02  0.00000000000E+00 0.  1.
         14    1    3    3    0    0 -0.52371420224E+02  0.68152227440E+01 -0.15969533344E+03  0.16820170165E+03  0.00000000000E+00 0. -1.
         13    1    5    5    0    0  0.37565293508E+02  0.24176366160E+02  0.67525566154E+03  0.67673174626E+03  0.00000000000E+00 0. -1.
        -14    1    5    5    0    0 -0.28309718179E+01 -0.40460759738E+02  0.31766321581E+03  0.32024210554E+03  0.00000000000E+00 0.  1.
          5    1    4    4  501    0 -0.27367547569E+00  0.77808559970E+02  0.11201400129E+03  0.13645092813E+03  0.41800000000E+01 0.  1.
         -5    1    4    4    0  501  0.25470645037E+02 -0.46678023425E+02  0.84053318170E+02  0.99549105093E+02  0.41800000000E+01 0.  1.
</event>
<event>
11    1  0.1078607E-008  0.2222475E+03  0.7561462E-02  0.1039819E+00
         22   -1    0    0    0    0  0.00000000000E+00  0.00000000000E+00  0.20657592486E+04  0.20657592486E+04  0.00000000000E+00 0.  1.
         22   -1    0    0    0    0 -0.00000000000E+00 -0.00000000000E+00 -0.92835921278E+02  0.92835921278E+02  0.00000000000E+00 0.  1.
         24    2    1    2    0    0 -0.57431385896E+01  0.12541533353E+02 -0.31042619057E+02  0.90248483327E+02  0.83611427719E+02 0.  0.
         25    2    1    2    0    0 -0.65698260184E+02  0.15969613230E+03  0.41600251719E+03  0.46746678626E+03  0.12509190975E+03 0.  0.
        -24    2    1    2    0    0  0.71441398774E+02 -0.17223766565E+03  0.15879634292E+04  0.16008799003E+04  0.80118136413E+02 0.  0.
        -13    1    3    3    0    0 -0.24304023048E+02  0.71981946905E+01 -0.54354770276E+02  0.59974499538E+02  0.00000000000E+00 0.  1.
         14    1    3    3    0    0  0.18560884458E+02  0.53433386630E+01  0.23312151220E+02  0.30273983788E+02  0.00000000000E+00 0. -1.
         13    1    5    5    0    0  0.47308918158E+02 -0.60101907463E+02  0.91683757565E+03  0.92002256121E+03  0.00000000000E+00 0. -1.
        -14    1    5    5    0    0  0.24132480616E+02 -0.11213575819E+03  0.67112585351E+03  0.68085733905E+03  0.00000000000E+00 0.  1.
          5    1    4    4  501    0 -0.35791163460E+02  0.16690919225E+03  0.27994734614E+03  0.32791412725E+03  0.41800000000E+01 0.  1.
         -5    1    4    4    0  501 -0.29907096725E+02 -0.72130599445E+01  0.13605517105E+03  0.13955265901E+03  0.41800000000E+01 0.  1.
</event>
<event>
11    1  0.1078607E-008  0.1797200E+03  0.7561462E-02  0.1069870E+00
         22   -1    0    0    0    0  0.00000000000E+00  0.00000000000E+00  0.32367160244E+03  0.32367160244E+03  0.00000000000E+00 0. -1.
         22   -1    0    0    0    0 -0.00000000000E+00 -0.00000000000E+00 -0.16778939759E+04  0.16778939759E+04  0.00000000000E+00 0. -1.
         24    2    1    2    0    0 -0.10659468207E+03  0.73451256285E+02 -0.15924255045E+04  0.15996418610E+04  0.79231197079E+02 0.  0.
         25    2    1    2    0    0  0.91968610233E+02 -0.73842215728E+02  0.24808009335E+02  0.17371003698E+03  0.12509532976E+03 0.  0.
        -24    2    1    2    0    0  0.14626071842E+02  0.39095944282E+00  0.21339512171E+03  0.22821368041E+03  0.79560864319E+02 0.  0.
        -11    1    3    3    0    0 -0.55139446035E+02  0.79618041603E+02 -0.87393366665E+03  0.87928348373E+03  0.00000000000E+00 0.  1.
         12    1    3    3    0    0 -0.51455236040E+02 -0.61667853173E+01 -0.71849183788E+03  0.72035837724E+03  0.00000000000E+00 0. -1.
         13    1    5    5    0    0 -0.74472199245E+01 -0.36617647685E+02  0.11099483270E+03  0.11711603687E+03  0.00000000000E+00 0. -1.
        -14    1    5    5    0    0  0.22073291766E+02  0.37008607128E+02  0.10240028901E+03  0.11109764354E+03  0.00000000000E+00 0.  1.
          5    1    4    4  501    0  0.29161865946E+02  0.47921363287E+01  0.60000331751E+02  0.67014111994E+02  0.41800000000E+01 0.  1.
         -5    1    4    4    0  501  0.62806744287E+02 -0.78634352057E+02 -0.35192322416E+02  0.10669592498E+03  0.41800000000E+01 0.  1.
</event>
<event>
11    1  0.1078607E-008  0.3040123E+03  0.7561462E-02  0.9985073E-01
         22   -1    0    0    0    0  0.00000000000E+00  0.00000000000E+00  0.21073636000E+04  0.21073636000E+04  0.00000000000E+00 0. -1.
         22   -1    0    0    0    0 -0.00000000000E+00 -0.00000000000E+00 -0.41690131332E+03  0.41690131332E+03  0.00000000000E+00 0.  1.
        -24    2    1    2    0    0  0.12620536187E+02 -0.20292664283E+02 -0.34082601337E+03  0.35125858442E+03  0.81542329994E+02 0.  0.
         25    2    1    2    0    0 -0.17913277868E+03 -0.20302331838E+03  0.32037947082E+03  0.43771728147E+03  0.12508554262E+03 0.  0.
         24    2    1    2    0    0  0.16651224249E+03  0.22331598267E+03  0.17109088293E+04  0.17352890475E+04  0.80141756671E+02 0.  0.
        -11    1    5    5    0    0  0.11972962398E+02 -0.53014188985E+01  0.10931135590E+03  0.11009282174E+03  0.00000000000E+00 0.  1.
         12    1    5    5    0    0  0.15453928009E+03  0.22861740156E+03  0.16015974734E+04  0.16251962257E+04  0.00000000000E+00 0. -1.
         13    1    3    3    0    0  0.66295532861E+01  0.31070068294E+01  0.19944011791E+01  0.75882873083E+01  0.00000000000E+00 0. -1.
        -14    1    3    3    0    0  0.59909829013E+01 -0.23399671113E+02 -0.34282041455E+03  0.34367029712E+03  0.00000000000E+00 0.  1.
          5    1    4    4  501    0 -0.12201880663E+03 -0.10526257395E+03  0.99397705226E+02  0.18938367102E+03  0.41800000000E+01 0.  1.
         -5    1    4    4    0  501 -0.57113972052E+02 -0.97760744433E+02  0.22098176559E+03  0.24833361045E+03  0.41800000000E+01 0.  1.
</event>
<event>
11    1  0.1078607E-008  0.1537032E+03  0.7561462E-02  0.1093154E+00
         22   -1    0    0    0    0  0.00000000000E+00  0.00000000000E+00  0.11917456651E+04  0.11917456651E+04  0.00000000000E+00 0. -1.
         22   -1    0    0    0    0 -0.00000000000E+00 -0.00000000000E+00 -0.36328500525E+03  0.36328500525E+03  0.00000000000E+00 0. -1.
         24    2    1    2    0    0  0.26464247337E+02 -0.86755111117E+01 -0.33910863398E+03  0.34915471440E+03  0.78350035533E+02 0.  0.
         25    2    1    2    0    0  0.69273255730E+02  0.71600859756E+01  0.33879243739E+03  0.36780117806E+03  0.12508932872E+03 0.  0.
        -24    2    1    2    0    0 -0.95737503067E+02  0.15154251361E+01  0.82877685641E+03  0.83807477787E+03  0.79563116914E+02 0.  0.
        -11    1    3    3    0    0  0.17639339124E+02 -0.41119200230E+02 -0.13306960519E+03  0.14039036555E+03  0.00000000000E+00 0.  1.
         12    1    3    3    0    0  0.88249082130E+01  0.32443689118E+02 -0.20603902879E+03  0.20876434885E+03  0.00000000000E+00 0. -1.
         13    1    5    5    0    0 -0.68476480550E+02 -0.23812875797E+02  0.70782607361E+03  0.71152922071E+03  0.00000000000E+00 0. -1.
        -14    1    5    5    0    0 -0.27261022517E+02  0.25328300933E+02  0.12095078280E+03  0.12654555716E+03  0.00000000000E+00 0.  1.
          5    1    4    4  501    0  0.39615989869E+02  0.54780183318E+02  0.27280977161E+03  0.28109240300E+03  0.41800000000E+01 0.  1.
         -5    1    4    4    0  501  0.29657265861E+02 -0.47620097342E+02  0.65982665781E+02  0.86708775063E+02  0.41800000000E+01 0.  1.
</event>
<event>
11    1  0.1078607E-008  0.2176606E+03  0.7561462E-02  0.1042693E+00
         22   -1    0    0    0    0  0.00000000000E+00  0.00000000000E+00  0.35029451810E+03  0.35029451810E+03  0.00000000000E+00 0.  1.
         22   -1    0    0    0    0 -0.00000000000E+00 -0.00000000000E+00 -0.76980799423E+03  0.76980799423E+03  0.00000000000E+00 0. -1.
         24    2    1    2    0    0 -0.11094399927E+03 -0.67400156547E+02 -0.58178067385E+03  0.60146383215E+03  0.80241116871E+02 0.  0.
         25    2    1    2    0    0  0.45475200996E+02  0.22534183515E+03 -0.11227061145E+02  0.26195451960E+03  0.12508871597E+03 0.  0.
        -24    2    1    2    0    0  0.65468798278E+02 -0.15794167860E+03  0.17349425887E+03  0.25668416059E+03  0.80961491141E+02 0.  0.
        -13    1    3    3    0    0 -0.22253575864E+00  0.10525211300E+02 -0.11394039649E+03  0.11442571192E+03  0.00000000000E+00 0.  1.
         14    1    3    3    0    0 -0.11072146352E+03 -0.77925367847E+02 -0.46784027736E+03  0.48703812023E+03  0.00000000000E+00 0. -1.
         13    1    5    5    0    0  0.17624982753E+02 -0.33631699254E+02  0.18551602872E-01  0.37970140320E+02  0.00000000000E+00 0. -1.
        -14    1    5    5    0    0  0.47843815525E+02 -0.12430997935E+03  0.17347570727E+03  0.21871402027E+03  0.00000000000E+00 0.  1.
          5    1    4    4  501    0 -0.24254586224E+02  0.11611674175E+03 -0.46674168766E+02  0.12754345572E+03  0.41800000000E+01 0. -1.
         -5    1    4    4    0  501  0.69729787220E+02  0.10922509340E+03  0.35447107621E+02  0.13441106388E+03  0.41800000000E+01 0. -1.
</event>
<event>
11    1  0.1078607E-008  0.2716533E+03  0.7561462E-02  0.1012957E+00
         22   -1    0    0    0    0  0.00000000000E+00  0.00000000000E+00  0.35683824361E+03  0.35683824361E+03  0.00000000000E+00 0.  1.
         22   -1    0    0    0    0 -0.00000000000E+00 -0.00000000000E+00 -0.10695467916E+04  0.10695467916E+04  0.00000000000E+00 0. -1.
        -24    2    1    2    0    0  0.17714662665E+03 -0.28515483240E+02 -0.75342247962E+03  0.77871858754E+03  0.81013243790E+02 0.  0.
         25    2    1    2    0    0 -0.32381056335E+03 -0.13131657649E+03 -0.90313496563E+02  0.38197012388E+03  0.12508926282E+03 0.  0.
         24    2    1    2    0    0  0.14666393670E+03  0.15983205973E+03  0.13102742821E+03  0.26569632377E+03  0.79810725314E+02 0.  0.
        -11    1    5    5    0    0  0.91650073087E+02  0.14579141059E+03  0.11361643027E+03  0.20630939030E+03  0.00000000000E+00 0.  1.
         12    1    5    5    0    0  0.55013863613E+02  0.14040649146E+02  0.17410997940E+02  0.59386933473E+02  0.00000000000E+00 0. -1.
         11    1    3    3    0    0  0.15899692521E+03 -0.27539104358E+02 -0.73620742550E+03  0.75368414993E+03  0.00000000000E+00 0. -1.
        -12    1    3    3    0    0  0.18149701442E+02 -0.97637888178E+00 -0.17215054115E+02  0.25034437608E+02  0.00000000000E+00 0.  1.
          5    1    4    4  501    0 -0.89445480086E+02  0.14640776427E+02  0.21863287488E+01  0.90758463383E+02  0.41800000000E+01 0. -1.
         -5    1    4    4    0  501 -0.23436508327E+03 -0.14595735292E+03 -0.92499825312E+02  0.29121166050E+03  0.41800000000E+01 0. -1.
</event>
<event>
11    1  0.1078607E-008  0.1354032E+03  0.7561462E-02  0.1112803E+00
         22   -1    0    0    0    0  0.00000000000E+00  0.00000000000E+00  0.49964266532E+03  0.49964266532E+03  0.00000000000E+00 0. -1.
         22   -1    0    0    0    0 -0.00000000000E+00 -0.00000000000E+00 -0.23292661820E+03  0.23292661820E+03  0.00000000000E+00 0.  1.
         24    2    1    2    0    0  0.14748849564E+02 -0.55890688111E+02 -0.16490230425E+03  0.19160702914E+03  0.78607799167E+02 0.  0.
         25    2    1    2    0    0 -0.45011547039E+02  0.87012320296E+01  0.43202397005E+02  0.14005871166E+03  0.12509294465E+03 0.  0.
        -24    2    1    2    0    0  0.30262697475E+02  0.47189456081E+02  0.38841595436E+03  0.40090354272E+03  0.81939131922E+02 0.  0.
        -13    1    3    3    0    0 -0.98775676342E+01 -0.55571698778E+01 -0.11797288203E+03  0.11851603003E+03  0.00000000000E+00 0.  1.
         14    1    3    3    0    0  0.24626417199E+02 -0.50333518233E+02 -0.46929422216E+02  0.73090999113E+02  0.00000000000E+00 0. -1.
         11    1    5    5    0    0  0.22490657694E+02  0.23763715312E+02  0.36631448636E+03  0.36777281951E+03  0.00000000000E+00 0. -1.
        -12    1    5    5    0    0  0.77720397811E+01  0.23425740769E+02  0.22101467996E+02  0.33130723212E+02  0.00000000000E+00 0.  1.
          5    1    4    4  501    0 -0.59559687587E+02  0.56943108539E+02  0.23426760046E+02  0.85768056302E+02  0.41800000000E+01 0.  1.
         -5    1    4    4    0  501  0.14548140548E+02 -0.48241876509E+02  0.19775636959E+02  0.54290655362E+02  0.41800000000E+01 0.  1.
</event>
<event>
11    1  0.1078607E-008  0.1414209E+03  0.7561462E-02  0.1105982E+00
         22   -1    0    0    0    0  0.00000000000E+00  0.00000000000E+00  0.78164301254E+03  0.78164301254E+03  0.00000000000E+00 0. -1.
         22   -1    0    0    0    0 -0.00000000000E+00 -0.00000000000E+00 -0.38961057461E+03  0.38961057461E+03  0.00000000000E+00 0.  1.
         24    2    1    2    0    0 -0.11840217049E+02  0.36674679943E+02 -0.36146021106E+03  0.37200858573E+03  0.79067571018E+02 0.  0.
         25    2    1    2    0    0 -0.56645997238E+02 -0.32741414217E+02  0.26287399959E+03  0.29838041171E+03  0.12508941292E+03 0.  0.
        -24    2    1    2    0    0  0.68486214287E+02 -0.39332657252E+01  0.49061864940E+03  0.50086458971E+03  0.73843388059E+02 0.  0.
        -11    1    3    3    0    0  0.12896898285E+02  0.41756994202E+02 -0.32335286279E+03  0.32629289055E+03  0.00000000000E+00 0.  1.
         12    1    3    3    0    0 -0.24737115335E+02 -0.50823142596E+01 -0.38107348277E+02  0.45715695182E+02  0.00000000000E+00 0. -1.
         11    1    5    5    0    0  0.60444109183E+02 -0.20817352236E+02  0.46370645514E+03  0.46809243641E+03  0.00000000000E+00 0. -1.
        -12    1    5    5    0    0  0.80421051044E+01  0.16884086511E+02  0.26912194260E+02  0.32772153297E+02  0.00000000000E+00 0.  1.
          5    1    4    4  501    0  0.25942726862E+02 -0.30467525706E+02  0.16686659871E+03  0.17164856354E+03  0.41800000000E+01 0. -1.
         -5    1    4    4    0  501 -0.82588724100E+02 -0.22738885110E+01  0.96007400886E+02  0.12673184818E+03  0.41800000000E+01 0. -1.
</event>
<event>
11    1  0.1078607E-008  0.1401920E+03  0.7561462E-02  0.1107344E+00
         22   -1    0    0    0    0  0.00000000000E+00  0.00000000000E+00  0.27422131473E+03  0.27422131473E+03  0.00000000000E+00 0.  1.
         22   -1    0    0    0    0 -0.00000000000E+00 -0.00000000000E+00 -0.39762027324E+04  0.39762027324E+04  0.00000000000E+00 0.  1.
        -24    2    1    2    0    0  0.53758769911E+02  0.33909209806E+02 -0.38671497536E+04  0.38684707737E+04  0.78607064583E+02 0.  0.
         25    2    1    2    0    0 -0.27322955997E+02 -0.40572210045E+02 -0.55663162694E+02  0.14539435985E+03  0.12509390090E+03 0.  0.
         24    2    1    2    0    0 -0.26435813914E+02  0.66630002387E+01  0.22083149857E+03  0.23655891360E+03  0.80313890535E+02 0.  0.
        -13    1    5    5    0    0 -0.61476332764E+01  0.27754010261E+02  0.19637035345E+03  0.19841722253E+03  0.00000000000E+00 0.  1.
         14    1    5    5    0    0 -0.20288180637E+02 -0.21091010022E+02  0.24461145118E+02  0.38141691072E+02  0.00000000000E+00 0. -1.
         13    1    3    3    0    0 -0.47431156943E+01  0.20568655447E+02 -0.27113108081E+03  0.27195152089E+03  0.00000000000E+00 0. -1.
        -14    1    3    3    0    0  0.58501885605E+02  0.13340554359E+02 -0.35960186728E+04  0.35965192528E+04  0.00000000000E+00 0.  1.
          5    1    4    4  501    0 -0.73329799073E+02 -0.41443012158E+02 -0.19092524338E+02  0.86468373261E+02  0.41800000000E+01 0. -1.
         -5    1    4    4    0  501  0.46006843076E+02  0.87080211275E+00 -0.36570638356E+02  0.58925986592E+02  0.41800000000E+01 0. -1.
</event>
<event>
11    1  0.1078607E-008  0.1349722E+03  0.7561462E-02  0.1113306E+00
         22   -1    0    0    0    0  0.00000000000E+00  0.00000000000E+00  0.12487266711E+04  0.12487266711E+04  0.00000000000E+00 0. -1.
         22   -1    0    0    0    0 -0.00000000000E+00 -0.00000000000E+00 -0.26210246732E+04  0.26210246732E+04  0.00000000000E+00 0.  1.
        -24    2    1    2    0    0 -0.31273976744E+02 -0.16309160772E+02 -0.24258718799E+04  0.24274688101E+04  0.80662234888E+02 0.  0.
         25    2    1    2    0    0  0.81538841685E+02  0.12581158689E+02 -0.16334380482E+03  0.22166694530E+03  0.12509263690E+03 0.  0.
         24    2    1    2    0    0 -0.50264864941E+02  0.37280020826E+01  0.12169176826E+04  0.12206155889E+04  0.80456914257E+02 0.  0.
        -11    1    5    5    0    0  0.92297437975E+01 -0.18916621508E+02  0.11849929866E+03  0.12035410472E+03  0.00000000000E+00 0.  1.
         12    1    5    5    0    0 -0.59494608739E+02  0.22644623590E+02  0.10984183839E+04  0.11002614842E+04  0.00000000000E+00 0. -1.
         11    1    3    3    0    0 -0.20274945027E+02  0.32332223798E+02 -0.10627608186E+04  0.10634458161E+04  0.00000000000E+00 0. -1.
        -12    1    3    3    0    0 -0.10999031717E+02 -0.48641384569E+02 -0.13631110613E+04  0.13640229941E+04  0.00000000000E+00 0.  1.
          5    1    4    4  501    0  0.39944026309E+02 -0.11777425566E+02  0.88722486640E+01  0.42783433559E+02  0.41800000000E+01 0.  1.
         -5    1    4    4    0  501  0.41594815376E+02  0.24358584255E+02 -0.17221605349E+03  0.17888351174E+03  0.41800000000E+01 0.  1.
</event>
<event>
11    1  0.1078607E-008  0.1377392E+03  0.7561462E-02  0.1110109E+00
         22   -1    0    0    0    0  0.00000000000E+00  0.00000000000E+00  0.80711175933E+03  0.80711175933E+03  0.00000000000E+00 0. -1.
         22   -1    0    0    0    0 -0.00000000000E+00 -0.00000000000E+00 -0.13065553712E+03  0.13065553712E+03  0.00000000000E+00 0.  1.
        -24    2    1    2    0    0 -0.30261969815E+02  0.63035744686E+00 -0.92422221728E+02  0.12633521376E+03  0.80638297354E+02 0.  0.
         25    2    1    2    0    0  0.30486036790E+02 -0.57681903717E+02  0.28860565427E+03  0.32124340424E+03  0.12508997017E+03 0.  0.
         24    2    1    2    0    0 -0.22406697500E+00  0.57051546271E+02  0.48027278966E+03  0.49018867845E+03  0.79800118094E+02 0.  0.
        -13    1    5    5    0    0 -0.30907872065E+02  0.46285220913E+02  0.18666409498E+03  0.19478475963E+03  0.00000000000E+00 0.  1.
         14    1    5    5    0    0  0.30683805090E+02  0.10766325358E+02  0.29360869468E+03  0.29540391881E+03  0.00000000000E+00 0. -1.
         13    1    3    3    0    0  0.24334249497E+02 -0.15922300982E+02 -0.31517908183E+02  0.42884191765E+02  0.00000000000E+00 0. -1.
        -14    1    3    3    0    0 -0.54596219313E+02  0.16552658429E+02 -0.60904313545E+02  0.83451021999E+02  0.00000000000E+00 0.  1.
          5    1    4    4  501    0 -0.30919537513E+02 -0.33456331755E+01  0.13521729275E+02  0.34169000921E+02  0.41800000000E+01 0. -1.
         -5    1    4    4    0  501  0.61405574303E+02 -0.54336270542E+02  0.27508392499E+03  0.28707440332E+03  0.41800000000E+01 0. -1.
</event>
<event>
11    1  0.1078607E-008  0.1931889E+03  0.7561462E-02  0.1059447E+00
         22   -1    0    0    0    0  0.00000000000E+00  0.00000000000E+00  0.59593970085E+03  0.59593970085E+03  0.00000000000E+00 0. -1.
         22   -1    0    0    0    0 -0.00000000000E+00 -0.00000000000E+00 -0.46850098492E+04  0.46850098492E+04  0.00000000000E+00 0. -1.
        -24    2    1    2    0    0 -0.94406481241E+01 -0.10235294413E+03 -0.34926964199E+04  0.34951688880E+04  0.81926939015E+02 0.  0.
         25    2    1    2    0    0 -0.13685774525E+03  0.84044347349E+02 -0.11702676403E+04  0.11878417358E+04  0.12509254454E+03 0.  0.
         24    2    1    2    0    0  0.14629839337E+03  0.18308596779E+02  0.57389391175E+03  0.59793892627E+03  0.80239098861E+02 0.  0.
        -13    1    5    5    0    0  0.25906799048E+02  0.59619259949E+01  0.27291550179E+02  0.38099022424E+02  0.00000000000E+00 0.  1.
         14    1    5    5    0    0  0.12039159432E+03  0.12346670784E+02  0.54660236157E+03  0.55983990385E+03  0.00000000000E+00 0. -1.
         13    1    3    3    0    0 -0.37203762972E+02 -0.77765013478E+02 -0.29204276786E+04  0.29216997353E+04  0.00000000000E+00 0. -1.
        -14    1    3    3    0    0  0.27763114848E+02 -0.24587930650E+02 -0.57226874134E+03  0.57346915278E+03  0.00000000000E+00 0.  1.
          5    1    4    4  501    0 -0.11396827886E+02  0.71678964907E+02 -0.31222730467E+03  0.32057935660E+03  0.41800000000E+01 0.  1.
         -5    1    4    4    0  501 -0.12546091736E+03  0.12365382442E+02 -0.85804033558E+03  0.86726237919E+03  0.41800000000E+01 0.  1.
</event>
<event>
11    1  0.1078607E-008  0.1870040E+03  0.7561462E-02  0.1064114E+00
         22   -1    0    0    0    0  0.00000000000E+00  0.00000000000E+00  0.79812786439E+02  0.79812786439E+02  0.00000000000E+00 0.  1.
         22   -1    0    0    0    0 -0.00000000000E+00 -0.00000000000E+00 -0.23796413031E+04  0.23796413031E+04  0.00000000000E+00 0. -1.
        -24    2    1    2    0    0 -0.76208981796E+02 -0.82315172972E+02 -0.87417503961E+03  0.88549715651E+03  0.85671568880E+02 0.  0.
         25    2    1    2    0    0  0.18811953357E+03  0.59468027491E+02 -0.14144905868E+04  0.14336519370E+04  0.12509536826E+03 0.  0.
         24    2    1    2    0    0 -0.11191055177E+03  0.22847145481E+02 -0.11162890275E+02  0.14030499603E+03  0.80715042816E+02 0.  0.
        -13    1    5    5    0    0 -0.48239879906E+02 -0.13218012452E+02  0.27986257068E+02  0.57315202618E+02  0.00000000000E+00 0.  1.
         14    1    5    5    0    0 -0.63670671868E+02  0.36065157933E+02 -0.39149147343E+02  0.82989793411E+02  0.00000000000E+00 0. -1.
         11    1    3    3    0    0 -0.75740648170E+02 -0.20357308793E+02 -0.44220387503E+03  0.44910503549E+03  0.00000000000E+00 0. -1.
        -12    1    3    3    0    0 -0.46833362605E+00 -0.61957864179E+02 -0.43197116458E+03  0.43639212103E+03  0.00000000000E+00 0.  1.
          5    1    4    4  501    0  0.45834055929E+02  0.36577454613E+02 -0.81302549370E+03  0.81514820535E+03  0.41800000000E+01 0. -1.
         -5    1    4    4    0  501  0.14228547764E+03  0.22890572878E+02 -0.60146509307E+03  0.61850373164E+03  0.41800000000E+01 0. -1.
</event>
<event>
11    1  0.1078607E-008  0.1499849E+03  0.7561462E-02  0.1096894E+00
         22   -1    0    0    0    0  0.00000000000E+00  0.00000000000E+00  0.23086994086E+03  0.23086994086E+03  0.00000000000E+00 0.  1.
         22   -1    0    0    0    0 -0.00000000000E+00 -0.00000000000E+00 -0.12221635284E+04  0.12221635284E+04  0.00000000000E+00 0.  1.
        -24    2    1    2    0    0  0.22610044604E+02 -0.16405334370E+02 -0.79907030321E+03  0.80353774487E+03  0.79869949550E+02 0.  0.
         25    2    1    2    0    0  0.31345272015E+02  0.79241287214E+02 -0.39114635124E+03  0.41941152999E+03  0.12509538650E+03 0.  0.
         24    2    1    2    0    0 -0.53955316619E+02 -0.62835952844E+02  0.19892306690E+03  0.23008419440E+03  0.80677238473E+02 0.  0.
        -11    1    5    5    0    0 -0.35906930102E+01 -0.31777601705E+01  0.11633393850E+03  0.11643271226E+03  0.00000000000E+00 0.  1.
         12    1    5    5    0    0 -0.50364623609E+02 -0.59658192674E+02  0.82589128396E+02  0.11365148214E+03  0.00000000000E+00 0. -1.
         13    1    3    3    0    0  0.45339571511E+02 -0.31544172669E+02 -0.44475628655E+03  0.44817280819E+03  0.00000000000E+00 0. -1.
        -14    1    3    3    0    0 -0.22729526907E+02  0.15138838299E+02 -0.35431401666E+03  0.35536493668E+03  0.00000000000E+00 0.  1.
          5    1    4    4  501    0 -0.67775348330E+01 -0.23878679804E+02 -0.19554586026E+02  0.31874449992E+02  0.41800000000E+01 0. -1.
         -5    1    4    4    0  501  0.38122806848E+02  0.10311996702E+03 -0.37159176521E+03  0.38753708000E+03  0.41800000000E+01 0. -1.
</event>
<event>
11    1  0.1078607E-008  0.1311918E+03  0.7561462E-02  0.1117813E+00
         22   -1    0    0    0    0  0.00000000000E+00  0.00000000000E+00  0.29608942841E+03  0.29608942841E+03  0.00000000000E+00 0.  1.
         22   -1    0    0    0    0 -0.00000000000E+00 -0.00000000000E+00 -0.50320077806E+03  0.50320077806E+03  0.00000000000E+00 0.  1.
         24    2    1    2    0    0  0.38396542783E+02 -0.14364106027E+02 -0.42292045696E+03  0.43182727439E+03  0.77022463959E+02 0.  0.
         25    2    1    2    0    0 -0.15975635769E+02  0.11681887996E+02 -0.93562674546E+01  0.12701950871E+03  0.12511885712E+03 0.  0.
        -24    2    1    2    0    0 -0.22420907014E+02  0.26822180308E+01  0.22516537476E+03  0.24044342337E+03  0.81263168073E+02 0.  0.
        -11    1    3    3    0    0  0.94632551439E+01 -0.23109806604E+02 -0.37031756086E+03  0.37115860793E+03  0.00000000000E+00 0.  1.
         12    1    3    3    0    0  0.28933287639E+02  0.87457005770E+01 -0.52602896097E+02  0.60668666459E+02  0.00000000000E+00 0. -1.
         11    1    5    5    0    0 -0.14147826411E+02  0.37100591582E+02  0.63072051017E+02  0.74529849774E+02  0.00000000000E+00 0. -1.
        -12    1    5    5    0    0 -0.82730806028E+01 -0.34418373551E+02  0.16209332375E+03  0.16591357360E+03  0.00000000000E+00 0.  1.
          5    1    4    4  501    0 -0.67260492708E+02 -0.12700801328E+02 -0.13636082051E+02  0.69919234603E+02  0.41800000000E+01 0. -1.
         -5    1    4    4    0  501  0.51284856940E+02  0.24382689324E+02  0.42798145962E+01  0.57100274106E+02  0.41800000000E+01 0. -1.
</event>
<event>
11    1  0.1078607E-008  0.1741939E+03  0.7561462E-02  0.1074439E+00
         22   -1    0    0    0    0  0.00000000000E+00  0.00000000000E+00  0.61298890563E+03  0.61298890563E+03  0.00000000000E+00 0.  1.
         22   -1    0    0    0    0 -0.00000000000E+00 -0.00000000000E+00 -0.31668271649E+03  0.31668271649E+03  0.00000000000E+00 0. -1.
        -24    2    1    2    0    0 -0.42306775607E+02 -0.52432553099E+02 -0.20748347610E+03  0.23400869890E+03  0.84685550257E+02 0.  0.
         25    2    1    2    0    0 -0.40399908790E+02  0.13934032442E+03  0.22829553786E+02  0.19292657208E+03  0.12510633496E+03 0.  0.
         24    2    1    2    0    0  0.82706684397E+02 -0.86907771319E+02  0.48096011145E+03  0.50273635114E+03  0.83832294413E+02 0.  0.
        -13    1    5    5    0    0  0.99056294959E+02 -0.83698014564E+02  0.42851018603E+03  0.44770357017E+03  0.00000000000E+00 0.  1.
         14    1    5    5    0    0 -0.16349610562E+02 -0.32097567546E+01  0.52449925418E+02  0.55032780961E+02  0.00000000000E+00 0. -1.
         13    1    3    3    0    0  0.17834604286E+02 -0.43973991313E+02 -0.93730562051E+02  0.10505809481E+03  0.00000000000E+00 0. -1.
        -14    1    3    3    0    0 -0.60141379893E+02 -0.84585617859E+01 -0.11375291405E+03  0.12895060410E+03  0.00000000000E+00 0.  1.
          5    1    4    4  501    0 -0.37835655332E+01  0.47627449239E+02  0.68841791052E+02  0.83900857471E+02  0.41800000000E+01 0.  1.
         -5    1    4    4    0  501 -0.36616343257E+02  0.91712875179E+02 -0.46012237266E+02  0.10902571461E+03  0.41800000000E+01 0.  1.
</event>
<event>
11    1  0.1078607E-008  0.1444923E+03  0.7561462E-02  0.1102643E+00
         22   -1    0    0    0    0  0.00000000000E+00  0.00000000000E+00  0.86859688071E+03  0.86859688071E+03  0.00000000000E+00 0.  1.
         22   -1    0    0    0    0 -0.00000000000E+00 -0.00000000000E+00 -0.10723830611E+03  0.10723830611E+03  0.00000000000E+00 0. -1.
         24    2    1    2    0    0 -0.68521823519E+02 -0.20935655726E+02 -0.60773908027E+02  0.12075866109E+03  0.75865963065E+02 0.  0.
         25    2    1    2    0    0  0.85337060398E+02  0.52807999012E+01  0.49044509221E+03  0.51331910346E+03  0.12509921177E+03 0.  0.
        -24    2    1    2    0    0 -0.16815236879E+02  0.15654855825E+02  0.33168739042E+03  0.34175742228E+03  0.79080870106E+02 0.  0.
        -13    1    3    3    0    0 -0.26128910347E+02  0.94948023211E+01  0.12760695772E+02  0.30589321398E+02  0.00000000000E+00 0.  1.
         14    1    3    3    0    0 -0.42392913172E+02 -0.30430458047E+02 -0.73534603798E+02  0.90169339689E+02  0.00000000000E+00 0. -1.
         11    1    5    5    0    0 -0.37157510258E+02 -0.38453458446E+01  0.77719720933E+02  0.86231214042E+02  0.00000000000E+00 0. -1.
        -12    1    5    5    0    0  0.20342273379E+02  0.19500201669E+02  0.25396766948E+03  0.25552620823E+03  0.00000000000E+00 0.  1.
          5    1    4    4  501    0 -0.16852159759E+02  0.30244793740E+02  0.22623107478E+03  0.22890328620E+03  0.41800000000E+01 0.  1.
         -5    1    4    4    0  501  0.10218922016E+03 -0.24963993839E+02  0.26421401742E+03  0.28441581726E+03  0.41800000000E+01 0.  1.
</event>
<event>
11    1  0.1078607E-008  0.1801905E+03  0.7561462E-02  0.1069489E+00
         22   -1    0    0    0    0  0.00000000000E+00  0.00000000000E+00  0.81334902343E+03  0.81334902343E+03  0.00000000000E+00 0.  1.
         22   -1    0    0    0    0 -0.00000000000E+00 -0.00000000000E+00 -0.22160863682E+03  0.22160863682E+03  0.00000000000E+00 0. -1.
        -24    2    1    2    0    0  0.38906319310E+01  0.12775412812E+03 -0.15201016522E+03  0.21461227090E+03  0.81333155738E+02 0.  0.
         25    2    1    2    0    0 -0.18134107783E+02 -0.14510193130E+03  0.23048514033E+03  0.30025692347E+03  0.12508958329E+03 0.  0.
         24    2    1    2    0    0  0.14243475852E+02  0.17347803177E+02  0.51326541150E+03  0.52008846588E+03  0.80912340352E+02 0.  0.
        -13    1    5    5    0    0 -0.97757206651E+01  0.40690407607E+02  0.39378298218E+03  0.39600039273E+03  0.00000000000E+00 0.  1.
         14    1    5    5    0    0  0.24019196517E+02 -0.23342604430E+02  0.11948242932E+03  0.12408807316E+03  0.00000000000E+00 0. -1.
         11    1    3    3    0    0 -0.11634670840E+02  0.13352541397E+03 -0.12720216020E+03  0.18478309258E+03  0.00000000000E+00 0. -1.
        -12    1    3    3    0    0  0.15525302771E+02 -0.57712858525E+01 -0.24808005017E+02  0.29829178323E+02  0.00000000000E+00 0.  1.
          5    1    4    4  501    0 -0.13850853166E+02  0.15557677669E+02  0.26512891243E+01  0.21410025733E+02  0.41800000000E+01 0. -1.
         -5    1    4    4    0  501 -0.42832546167E+01 -0.16065960897E+03  0.22783385120E+03  0.27884689774E+03  0.41800000000E+01 0. -1.
</event>
<event>
11    1  0.1078607E-008  0.1932718E+03  0.7561462E-02  0.1059386E+00
         22   -1    0    0    0    0  0.00000000000E+00  0.00000000000E+00  0.22017545789E+04  0.22017545789E+04  0.00000000000E+00 0.  1.
         22   -1    0    0    0    0 -0.00000000000E+00 -0.00000000000E+00 -0.44091357129E+03  0.44091357129E+03  0.00000000000E+00 0.  1.
        -24    2    1    2    0    0 -0.59902467331E+02  0.72627137210E+02 -0.39216675048E+03  0.41186053141E+03  0.83494493787E+02 0.  0.
         25    2    1    2    0    0  0.15556509337E+03 -0.17224569128E+03  0.46042516005E+03  0.53056633657E+03  0.12506091739E+03 0.  0.
         24    2    1    2    0    0 -0.95662626043E+02  0.99618554067E+02  0.16925825980E+04  0.17002412822E+04  0.83122633651E+02 0.  0.
        -11    1    5    5    0    0 -0.35994097111E+02  0.90742801676E+02  0.12034194508E+04  0.12073724386E+04  0.00000000000E+00 0.  1.
         12    1    5    5    0    0 -0.59668528932E+02  0.88757523905E+01  0.48916314727E+03  0.49286884358E+03  0.00000000000E+00 0. -1.
         13    1    3    3    0    0 -0.27585150289E+02  0.81436643782E+02 -0.21500541297E+03  0.23156034866E+03  0.00000000000E+00 0. -1.
        -14    1    3    3    0    0 -0.32317317042E+02 -0.88095065727E+01 -0.17716133751E+03  0.18030018274E+03  0.00000000000E+00 0.  1.
          5    1    4    4  501    0  0.10916893188E+03 -0.77955188884E+02  0.36372804272E+03  0.38769888912E+03  0.41800000000E+01 0.  1.
         -5    1    4    4    0  501  0.46396161493E+02 -0.94290502393E+02  0.96697117333E+02  0.14286744746E+03  0.41800000000E+01 0.  1.
</event>
<event>
11    1  0.1078607E-008  0.1368491E+03  0.7561462E-02  0.1111129E+00
         22   -1    0    0    0    0  0.00000000000E+00  0.00000000000E+00  0.67734191142E+03  0.67734191142E+03  0.00000000000E+00 0. -1.
         22   -1    0    0    0    0 -0.00000000000E+00 -0.00000000000E+00 -0.40162457807E+04  0.40162457807E+04  0.00000000000E+00 0.  1.
        -24    2    1    2    0    0  0.26888650445E+02 -0.48557820883E+02 -0.39920866320E+04  0.39932488064E+04  0.78736845238E+02 0.  0.
         25    2    1    2    0    0 -0.16249571292E+02  0.50902057519E+02  0.21495986656E+03  0.25438252046E+03  0.12509058500E+03 0.  0.
         24    2    1    2    0    0 -0.10639079154E+02 -0.23442366361E+01  0.43822289614E+03  0.44595636529E+03  0.81970040843E+02 0.  0.
        -11    1    5    5    0    0 -0.39859712011E+02 -0.18448142259E+02  0.16661742580E+03  0.17230930670E+03  0.00000000000E+00 0.  1.
         12    1    5    5    0    0  0.29220632857E+02  0.16103905623E+02  0.27160547033E+03  0.27364705859E+03  0.00000000000E+00 0. -1.
         11    1    3    3    0    0  0.32537683323E+02 -0.59823511916E+01 -0.61507566199E+03  0.61596473871E+03  0.00000000000E+00 0. -1.
        -12    1    3    3    0    0 -0.56490328780E+01 -0.42575469691E+02 -0.33770109700E+04  0.33772840677E+04  0.00000000000E+00 0.  1.
          5    1    4    4  501    0 -0.41705075734E+02  0.12818805231E+02  0.20184874104E+03  0.20655270942E+03  0.41800000000E+01 0.  1.
         -5    1    4    4    0  501  0.25455504442E+02  0.38083252287E+02  0.13111125520E+02  0.47829811035E+02  0.41800000000E+01 0.  1.
</event>
<event>
11    1  0.1078607E-008  0.1281697E+03  0.7561462E-02  0.1121538E+00
         22   -1    0    0    0    0  0.00000000000E+00  0.00000000000E+00  0.52105981044E+03  0.52105981044E+03  0.00000000000E+00 0.  1.
         22   -1    0    0    0    0 -0.00000000000E+00 -0.00000000000E+00 -0.23921194947E+04  0.23921194947E+04  0.00000000000E+00 0.  1.
        -24    2    1    2    0    0  0.59470582265E+01  0.14699107228E+02 -0.22829644791E+04  0.22844370938E+04  0.80464845481E+02 0.  0.
         25    2    1    2    0    0 -0.24262227100E+02  0.67409952554E+01 -0.65527721480E+02  0.14343978556E+03  0.12508794154E+03 0.  0.
         24    2    1    2    0    0  0.18315168873E+02 -0.21440102484E+02  0.47743251631E+03  0.48530242581E+03  0.82349945083E+02 0.  0.
        -11    1    5    5    0    0 -0.12941071574E+02 -0.33190737268E+02  0.39138407620E+03  0.39300202477E+03  0.00000000000E+00 0.  1.
         12    1    5    5    0    0  0.31256240448E+02  0.11750634785E+02  0.86048440113E+02  0.92300401032E+02  0.00000000000E+00 0. -1.
         13    1    3    3    0    0  0.32292583961E+02  0.18119557608E+02 -0.53906580717E+03  0.54033607487E+03  0.00000000000E+00 0. -1.
        -14    1    3    3    0    0 -0.26345525735E+02 -0.34204503797E+01 -0.17438986719E+04  0.17441010189E+04  0.00000000000E+00 0.  1.
          5    1    4    4  501    0 -0.55764457337E+02 -0.41232600268E+02 -0.42583667853E+02  0.81490141702E+02  0.41800000000E+01 0.  1.
         -5    1    4    4    0  501  0.31502230237E+02  0.47973595523E+02 -0.22944053627E+02  0.61949643858E+02  0.41800000000E+01 0.  1.
</event>
<event>
11    1  0.1078607E-008  0.2175424E+03  0.7561462E-02  0.1042768E+00
         22   -1    0    0    0    0  0.00000000000E+00  0.00000000000E+00  0.16816007890E+03  0.16816007890E+03  0.00000000000E+00 0.  1.
         22   -1    0    0    0    0 -0.00000000000E+00 -0.00000000000E+00 -0.20559027952E+04  0.20559027952E+04  0.00000000000E+00 0. -1.
         24    2    1    2    0    0  0.55653522460E+02 -0.16914475620E+03 -0.18700697396E+04  0.18802617791E+04  0.80723379396E+02 0.  0.
         25    2    1    2    0    0 -0.12572400654E+03  0.14350082320E+03 -0.40965543508E+02  0.23178592970E+03  0.12509008503E+03 0.  0.
        -24    2    1    2    0    0  0.70070484081E+02  0.25643932996E+02  0.23292566786E+02  0.11201516529E+03  0.80233219735E+02 0.  0.
        -13    1    3    3    0    0 -0.14155301336E+02 -0.46433439838E+01 -0.23085415987E+03  0.23133433885E+03  0.00000000000E+00 0.  1.
         14    1    3    3    0    0  0.69808823795E+02 -0.16450141221E+03 -0.16392155797E+04  0.16489274402E+04  0.00000000000E+00 0. -1.
         11    1    5    5    0    0  0.42023478102E+00  0.36479989525E+02 -0.34040025105E+01  0.36640871525E+02  0.00000000000E+00 0. -1.
        -12    1    5    5    0    0  0.69650249300E+02 -0.10836056529E+02  0.26696569296E+02  0.75374293766E+02  0.00000000000E+00 0.  1.
          5    1    4    4  501    0 -0.98631754367E+02  0.16058949609E+03 -0.55292494907E+02  0.19644831793E+03  0.41800000000E+01 0.  1.
         -5    1    4    4    0  501 -0.27092252173E+02 -0.17088672893E+02  0.14326951398E+02  0.35337611768E+02  0.41800000000E+01 0.  1.
</event>
<event>
11    1  0.1078607E-008  0.1310572E+03  0.7561462E-02  0.1117977E+00
         22   -1    0    0    0    0  0.00000000000E+00  0.00000000000E+00  0.42896207644E+03  0.42896207644E+03  0.00000000000E+00 0.  1.
         22   -1    0    0    0    0 -0.00000000000E+00 -0.00000000000E+00 -0.17286166419E+03  0.17286166419E+03  0.00000000000E+00 0.  1.
        -24    2    1    2    0    0  0.96700607899E+01  0.18372157876E+02 -0.12881253107E+03  0.15353433891E+03  0.80926378906E+02 0.  0.
         25    2    1    2    0    0 -0.45832776117E+02 -0.17931647973E+02  0.17359998437E+03  0.21956070605E+03  0.12509101368E+03 0.  0.
         24    2    1    2    0    0  0.36162715328E+02 -0.44050990277E+00  0.21131295895E+03  0.22872869568E+03  0.79722729357E+02 0.  0.
        -11    1    5    5    0    0  0.46522618855E+02  0.37067967775E+01  0.21244626807E+03  0.21751209444E+03  0.00000000000E+00 0.  1.
         12    1    5    5    0    0 -0.10359903528E+02 -0.41473066803E+01 -0.11333091228E+01  0.11216601240E+02  0.00000000000E+00 0. -1.
         11    1    3    3    0    0 -0.33125519300E+02  0.86058488588E+01 -0.30403610909E+02  0.45779255343E+02  0.00000000000E+00 0. -1.
        -12    1    3    3    0    0  0.42795580090E+02  0.97663090172E+01 -0.98408920160E+02  0.10775508357E+03  0.00000000000E+00 0.  1.
          5    1    4    4  501    0 -0.20787903353E+02 -0.66531615012E+02  0.54963707436E+02  0.88865484059E+02  0.41800000000E+01 0. -1.
         -5    1    4    4    0  501 -0.25044872765E+02  0.48599967039E+02  0.11863627693E+03  0.13069522199E+03  0.41800000000E+01 0. -1.
</event>
<event>
11    1  0.1078607E-008  0.1324273E+03  0.7561462E-02  0.1116322E+00
         22   -1    0    0    0    0  0.00000000000E+00  0.00000000000E+00  0.98285685534E+02  0.98285685534E+02  0.00000000000E+00 0. -1.
         22   -1    0    0    0    0 -0.00000000000E+00 -0.00000000000E+00 -0.12528798820E+04  0.12528798820E+04  0.00000000000E+00 0. -1.
         24    2    1    2    0    0  0.25034157161E+02  0.57318285886E+01 -0.96905521743E+03  0.97302726892E+03  0.83991003934E+02 0.  0.
         25    2    1    2    0    0  0.12886445538E+02  0.19887077511E+02 -0.23865204693E+03  0.27049023184E+03  0.12509440310E+03 0.  0.
        -24    2    1    2    0    0 -0.37920602699E+02 -0.25618906099E+02  0.53113067878E+02  0.10764806680E+03  0.81687256329E+02 0.  0.
        -13    1    3    3    0    0  0.44471753913E+02 -0.12064612366E+02 -0.30614117176E+03  0.30958958124E+03  0.00000000000E+00 0.  1.
         14    1    3    3    0    0 -0.19437596751E+02  0.17796440955E+02 -0.66291404568E+03  0.66343768768E+03  0.00000000000E+00 0. -1.
         13    1    5    5    0    0 -0.62857421415E+02 -0.27126764309E+02  0.35832629030E+02  0.77271560564E+02  0.00000000000E+00 0. -1.
        -14    1    5    5    0    0  0.24936818716E+02  0.15078582093E+01  0.17280438847E+02  0.30376506231E+02  0.00000000000E+00 0.  1.
          5    1    4    4  501    0 -0.44410767450E+02  0.27767598212E+01 -0.18407546378E+03  0.18942353451E+03  0.41800000000E+01 0. -1.
         -5    1    4    4    0  501  0.57297212988E+02  0.17110317689E+02 -0.54576583153E+02  0.81066697332E+02  0.41800000000E+01 0. -1.
</event>
<event>
11    1  0.1078607E-008  0.1383275E+03  0.7561462E-02  0.1109441E+00
         22   -1    0    0    0    0  0.00000000000E+00  0.00000000000E+00  0.16574421513E+04  0.16574421513E+04  0.00000000000E+00 0. -1.
         22   -1    0    0    0    0 -0.00000000000E+00 -0.00000000000E+00 -0.39249249278E+02  0.39249249278E+02  0.00000000000E+00 0. -1.
         24    2    1    2    0    0  0.10090283094E+02 -0.65084532157E+02  0.89555228998E+02  0.13725210695E+03  0.80499637782E+02 0.  0.
         25    2    1    2    0    0  0.14103429077E+02  0.41746895600E+02  0.30328120640E+03  0.33101091555E+03  0.12508807320E+03 0.  0.
        -24    2    1    2    0    0 -0.24193712171E+02  0.23337636557E+02  0.12253564666E+04  0.12284283781E+04  0.80048914795E+02 0.  0.
        -11    1    3    3    0    0 -0.23134087641E+02  0.72498030552E+01  0.24269622876E+02  0.34303939276E+02  0.00000000000E+00 0.  1.
         12    1    3    3    0    0  0.33224370735E+02 -0.72334335212E+02  0.65285606122E+02  0.10294816768E+03  0.00000000000E+00 0. -1.
         11    1    5    5    0    0 -0.89857233728E+01  0.26021219407E+02  0.11833991811E+04  0.11837193370E+04  0.00000000000E+00 0. -1.
        -12    1    5    5    0    0 -0.15207988798E+02 -0.26835828499E+01  0.41957285543E+02  0.44709041035E+02  0.00000000000E+00 0.  1.
          5    1    4    4  501    0 -0.32794020814E+02  0.32048737693E+02  0.33401344219E+02  0.56883139721E+02  0.41800000000E+01 0.  1.
         -5    1    4    4    0  501  0.46897449891E+02  0.96981579065E+01  0.26987986218E+03  0.27412777583E+03  0.41800000000E+01 0.  1.
</event>
<event>
11    1  0.1078607E-008  0.4034670E+03  0.7561462E-02  0.9639583E-01
         22   -1    0    0    0    0  0.00000000000E+00  0.00000000000E+00  0.54556500763E+03  0.54556500763E+03  0.00000000000E+00 0. -1.
         22   -1    0    0    0    0 -0.00000000000E+00 -0.00000000000E+00 -0.61558092988E+03  0.61558092988E+03  0.00000000000E+00 0. -1.
         24    2    1    2    0    0 -0.37439494997E+02 -0.11247969049E+03 -0.27253839648E+03  0.30783479107E+03  0.80197783520E+02 0.  0.
         25    2    1    2    0    0 -0.25239249068E+03  0.33718522394E+03  0.31244924937E+02  0.44047584203E+03  0.12508747929E+03 0.  0.
        -24    2    1    2    0    0  0.28983198568E+03 -0.22470553345E+03  0.17127754929E+03  0.41283530441E+03  0.81251664540E+02 0.  0.
        -11    1    3    3    0    0 -0.45565664050E+02 -0.11894449893E+03 -0.26753337436E+03  0.29630749225E+03  0.00000000000E+00 0.  1.
         12    1    3    3    0    0  0.81261690536E+01  0.64648084447E+01 -0.50050221158E+01  0.11527298820E+02  0.00000000000E+00 0. -1.
         13    1    5    5    0    0  0.25014223457E+03 -0.19163397770E+03  0.11252455493E+03  0.33459900536E+03  0.00000000000E+00 0. -1.
        -14    1    5    5    0    0  0.39689751111E+02 -0.33071555751E+02  0.58752994363E+02  0.78236299054E+02  0.00000000000E+00 0.  1.
          5    1    4    4  501    0 -0.14709299151E+03  0.94828566037E+02  0.99843439849E+01  0.17534527257E+03  0.41800000000E+01 0.  1.
         -5    1    4    4    0  501 -0.10529949917E+03  0.24235665791E+03  0.21260580952E+02  0.26513056946E+03  0.41800000000E+01 0.  1.
</event>
<event>
11    1  0.1078607E-008  0.2624445E+03  0.7561462E-02  0.1017471E+00
         22   -1    0    0    0    0  0.00000000000E+00  0.00000000000E+00  0.12304556869E+03  0.12304556869E+03  0.00000000000E+00 0.  1.
         22   -1    0    0    0    0 -0.00000000000E+00 -0.00000000000E+00 -0.24743628981E+04  0.24743628981E+04  0.00000000000E+00 0.  1.
         24    2    1    2    0    0  0.18688276735E+03 -0.12470709155E+03 -0.18351346444E+04  0.18505340896E+04  0.79247877629E+02 0.  0.
         25    2    1    2    0    0 -0.17838216686E+03  0.19672035723E+03 -0.55978705920E+03  0.63207779630E+03  0.12506675226E+03 0.  0.
        -24    2    1    2    0    0 -0.85006004870E+01 -0.72013265682E+02  0.43604374173E+02  0.11479658095E+03  0.77580557545E+02 0.  0.
        -13    1    3    3    0    0  0.17287180315E+03 -0.13168749240E+03 -0.17801184144E+04  0.17933342760E+04  0.00000000000E+00 0.  1.
         14    1    3    3    0    0  0.14010964202E+02  0.69804008519E+01 -0.55016229993E+02  0.57199813606E+02  0.00000000000E+00 0. -1.
         13    1    5    5    0    0 -0.10200520583E+02  0.15221965771E+01 -0.16735705093E+02  0.19658370419E+02  0.00000000000E+00 0. -1.
        -14    1    5    5    0    0  0.16999200958E+01 -0.73535462259E+02  0.60340079266E+02  0.95138210535E+02  0.00000000000E+00 0.  1.
          5    1    4    4  501    0 -0.15178669569E+03  0.17544214534E+03 -0.54914226295E+03  0.59614917990E+03  0.41800000000E+01 0. -1.
         -5    1    4    4    0  501 -0.26595471176E+02  0.21278211897E+02 -0.10644796253E+02  0.35928616392E+02  0.41800000000E+01 0. -1.
</event>
<event>
11    1  0.1078607E-008  0.1337409E+03  0.7561462E-02  0.1114756E+00
         22   -1    0    0    0    0  0.00000000000E+00  0.00000000000E+00  0.16972338147E+03  0.16972338147E+03  0.00000000000E+00 0.  1.
         22   -1    0    0    0    0 -0.00000000000E+00 -0.00000000000E+00 -0.98344563510E+03  0.98344563510E+03  0.00000000000E+00 0.  1.
        -24    2    1    2    0    0 -0.21243927138E+02  0.23217235267E+02 -0.67177697979E+03  0.67717078138E+03  0.79281852461E+02 0.  0.
         25    2    1    2    0    0 -0.24491512746E+01 -0.63649611691E+02 -0.27772741307E+03  0.31118674085E+03  0.12508956911E+03 0.  0.
         24    2    1    2    0    0  0.23693078412E+02  0.40432376424E+02  0.13578213922E+03  0.16481149434E+03  0.80807798548E+02 0.  0.
        -11    1    5    5    0    0 -0.28475332231E+02  0.25355765401E+02  0.67994911659E+02  0.77955547566E+02  0.00000000000E+00 0.  1.
         12    1    5    5    0    0  0.52168410644E+02  0.15076611023E+02  0.67787227564E+02  0.86855946773E+02  0.00000000000E+00 0. -1.
         13    1    3    3    0    0 -0.45784679491E+02  0.15000843077E+01 -0.25301316940E+03  0.25712672172E+03  0.00000000000E+00 0. -1.
        -14    1    3    3    0    0  0.24540752353E+02  0.21717150959E+02 -0.41876381038E+03  0.42004405966E+03  0.00000000000E+00 0.  1.
          5    1    4    4  501    0  0.39276914966E+02  0.13211075142E+02 -0.39590202508E+02  0.57463597958E+02  0.41800000000E+01 0. -1.
         -5    1    4    4    0  501 -0.41726066241E+02 -0.76860686832E+02 -0.23813721056E+03  0.25372314289E+03  0.41800000000E+01 0. -1.
</event>
<event>
11    1  0.1078607E-008  0.2957295E+03  0.7561462E-02  0.1002015E+00
         22   -1    0    0    0    0  0.00000000000E+00  0.00000000000E+00  0.12008986955E+04  0.12008986955E+04  0.00000000000E+00 0.  1.
         22   -1    0    0    0    0 -0.00000000000E+00 -0.00000000000E+00 -0.10982104273E+03  0.10982104273E+03  0.00000000000E+00 0.  1.
        -24    2    1    2    0    0 -0.38818654135E+02  0.40841165280E+02  0.14313117198E+03  0.17407839532E+03  0.81497648014E+02 0.  0.
         25    2    1    2    0    0  0.29208412012E+03  0.13868679128E+02  0.31045841864E+03  0.44445232602E+03  0.12509183393E+03 0.  0.
         24    2    1    2    0    0 -0.25326546598E+03 -0.54709844408E+02  0.63748806218E+03  0.69218901692E+03  0.74820066796E+02 0.  0.
        -11    1    5    5    0    0 -0.10212005688E+03  0.84563094042E+01  0.30058689866E+03  0.31757282446E+03  0.00000000000E+00 0.  1.
         12    1    5    5    0    0 -0.15114540910E+03 -0.63166153812E+02  0.33690116351E+03  0.37461619246E+03  0.00000000000E+00 0. -1.
         11    1    3    3    0    0  0.18074205582E+02  0.35919217490E+02  0.43468392690E+02  0.59214594954E+02  0.00000000000E+00 0. -1.
        -12    1    3    3    0    0 -0.56892859717E+02  0.49219477892E+01  0.99662779294E+02  0.11486380036E+03  0.00000000000E+00 0.  1.
          5    1    4    4  501    0  0.28127033545E+03  0.27671204964E+02  0.23716890802E+03  0.36897867218E+03  0.41800000000E+01 0. -1.
         -5    1    4    4    0  501  0.10813784668E+02 -0.13802525835E+02  0.73289510615E+02  0.75473653843E+02  0.41800000000E+01 0. -1.
</event>
<event>
11    1  0.1078607E-008  0.2798332E+03  0.7561462E-02  0.1009107E+00
         22   -1    0    0    0    0  0.00000000000E+00  0.00000000000E+00  0.21641850729E+04  0.21641850729E+04  0.00000000000E+00 0.  1.
         22   -1    0    0    0    0 -0.00000000000E+00 -0.00000000000E+00 -0.20501708613E+03  0.20501708613E+03  0.00000000000E+00 0. -1.
        -24    2    1    2    0    0 -0.42900100392E+02  0.13603531236E+03 -0.11015364189E+03  0.20592751639E+03  0.99630780203E+02 0.  0.
         25    2    1    2    0    0  0.28086766425E+03 -0.12838960716E+03  0.75700822485E+03  0.82709087369E+03  0.12508926733E+03 0.  0.
         24    2    1    2    0    0 -0.23796756386E+03 -0.76457051922E+01  0.13123134038E+04  0.13361837690E+04  0.80830540984E+02 0.  0.
        -13    1    5    5    0    0 -0.17527171844E+03  0.12868053292E+02  0.10971137009E+04  0.11111004611E+04  0.00000000000E+00 0.  1.
         14    1    5    5    0    0 -0.62695845414E+02 -0.20513758484E+02  0.21519970296E+03  0.22508330785E+03  0.00000000000E+00 0. -1.
         13    1    3    3    0    0  0.53776035072E+01  0.91206071972E+02 -0.10596265876E+03  0.13991265574E+03  0.00000000000E+00 0. -1.
        -14    1    3    3    0    0 -0.48277703899E+02  0.44829240383E+02 -0.41909831258E+01  0.66014860650E+02  0.00000000000E+00 0.  1.
          5    1    4    4  501    0  0.11991923647E+03 -0.12332449520E+03  0.38425243603E+03  0.42101895608E+03  0.41800000000E+01 0. -1.
         -5    1    4    4    0  501  0.16094842778E+03 -0.50651119624E+01  0.37275578883E+03  0.40607191761E+03  0.41800000000E+01 0. -1.
</event>
<event>
11    1  0.1078607E-008  0.3731470E+03  0.7561462E-02  0.9732490E-01
         22   -1    0    0    0    0  0.00000000000E+00  0.00000000000E+00  0.13475957724E+04  0.13475957724E+04  0.00000000000E+00 0. -1.
         22   -1    0    0    0    0 -0.00000000000E+00 -0.00000000000E+00 -0.75095565548E+03  0.75095565548E+03  0.00000000000E+00 0. -1.
        -24    2    1    2    0    0 -0.23335068792E+03  0.26397987353E+03 -0.57920764351E+03  0.68278682507E+03  0.81107564379E+02 0.  0.
         25    2    1    2    0    0  0.27020821508E+03 -0.22365196643E+03  0.17716380540E+03  0.41238941320E+03  0.12508130390E+03 0.  0.
         24    2    1    2    0    0 -0.36857527162E+02 -0.40327907104E+02  0.99868395500E+03  0.10033751896E+04  0.80045684981E+02 0.  0.
        -11    1    5    5    0    0 -0.48316691262E+02 -0.49307214210E+02  0.53150588040E+03  0.53597033960E+03  0.00000000000E+00 0.  1.
         12    1    5    5    0    0  0.11459164099E+02  0.89793071064E+01  0.46717807460E+03  0.46740484998E+03  0.00000000000E+00 0. -1.
         13    1    3    3    0    0 -0.15922455834E+03  0.13231824344E+03 -0.38029832018E+03  0.43299814071E+03  0.00000000000E+00 0. -1.
        -14    1    3    3    0    0 -0.74126129583E+02  0.13166163009E+03 -0.19890932333E+03  0.24978868436E+03  0.00000000000E+00 0.  1.
          5    1    4    4  501    0  0.52248821102E+02 -0.61559600937E+01  0.67102027731E+02  0.85369723420E+02  0.41800000000E+01 0.  1.
         -5    1    4    4    0  501  0.21795939398E+03 -0.21749600633E+03  0.11006177767E+03  0.32701968978E+03  0.41800000000E+01 0.  1.
</event>
<event>
11    1  0.1078607E-008  0.1402499E+03  0.7561462E-02  0.1107280E+00
         22   -1    0    0    0    0  0.00000000000E+00  0.00000000000E+00  0.89470740579E+03  0.89470740579E+03  0.00000000000E+00 0. -1.
         22   -1    0    0    0    0 -0.00000000000E+00 -0.00000000000E+00 -0.12710024370E+04  0.12710024370E+04  0.00000000000E+00 0. -1.
         24    2    1    2    0    0  0.60660014407E+01  0.28911431037E+02 -0.11502532185E+04  0.11534526985E+04  0.80610134832E+02 0.  0.
         25    2    1    2    0    0  0.33934066089E+02  0.21169787216E+02 -0.78976254798E+02  0.15324647155E+03  0.12509017343E+03 0.  0.
        -24    2    1    2    0    0 -0.40000067530E+02 -0.50081218253E+02  0.85293444205E+03  0.85901067276E+03  0.79334983866E+02 0.  0.
        -13    1    3    3    0    0  0.19111485855E+01 -0.25508877484E+02 -0.58813815872E+03  0.58869418977E+03  0.00000000000E+00 0.  1.
         14    1    3    3    0    0  0.41548528552E+01  0.54420308521E+02 -0.56211505978E+03  0.56475850876E+03  0.00000000000E+00 0. -1.
         13    1    5    5    0    0 -0.53140033770E+02 -0.62279697098E+02  0.75708553030E+03  0.76149926070E+03  0.00000000000E+00 0. -1.
        -14    1    5    5    0    0  0.13139966240E+02  0.12198478844E+02  0.95848911745E+02  0.97511412058E+02  0.00000000000E+00 0.  1.
          5    1    4    4  501    0 -0.36305219038E+02 -0.93747321363E+00  0.97825354002E+01  0.37843337383E+02  0.41800000000E+01 0.  1.
         -5    1    4    4    0  501  0.70239285127E+02  0.22107260430E+02 -0.88758790198E+02  0.11540313417E+03  0.41800000000E+01 0.  1.
</event>
<event>
11    1  0.1078607E-008  0.1601664E+03  0.7561462E-02  0.1086921E+00
         22   -1    0    0    0    0  0.00000000000E+00  0.00000000000E+00  0.28422407138E+04  0.28422407138E+04  0.00000000000E+00 0.  1.
         22   -1    0    0    0    0 -0.00000000000E+00 -0.00000000000E+00 -0.39624635379E+02  0.39624635379E+02  0.00000000000E+00 0.  1.
         24    2    1    2    0    0  0.20557528897E+01  0.12695356056E+02  0.59725333451E+02  0.99951524719E+02  0.79106217533E+02 0.  0.
         25    2    1    2    0    0  0.11646270340E+02 -0.11063936301E+03  0.37779341312E+03  0.41322115091E+03  0.12508857781E+03 0.  0.
        -24    2    1    2    0    0 -0.13702023230E+02  0.97944006950E+02  0.23650973318E+04  0.23686926735E+04  0.85081247658E+02 0.  0.
        -11    1    3    3    0    0  0.12356877483E+02  0.40656837098E+02  0.12826855513E+02  0.44386924272E+02  0.00000000000E+00 0.  1.
         12    1    3    3    0    0 -0.10301124593E+02 -0.27961481042E+02  0.46898477938E+02  0.55564600447E+02  0.00000000000E+00 0. -1.
         11    1    5    5    0    0  0.33613653544E+02  0.23522617377E+02  0.91121006832E+03  0.91213320291E+03  0.00000000000E+00 0. -1.
        -12    1    5    5    0    0 -0.47315676774E+02  0.74421389573E+02  0.14538872635E+04  0.14565594706E+04  0.00000000000E+00 0.  1.
          5    1    4    4  501    0 -0.46980181953E+02 -0.64666500713E+01  0.98937007617E+02  0.10979507701E+03  0.41800000000E+01 0. -1.
         -5    1    4    4    0  501  0.58626452294E+02 -0.10417271293E+03  0.27885640551E+03  0.30342607390E+03  0.41800000000E+01 0. -1.
</event>
<event>
11    1  0.1078607E-008  0.1251027E+03  0.7561462E-02  0.1125437E+00
         22   -1    0    0    0    0  0.00000000000E+00  0.00000000000E+00  0.73662510827E+03  0.73662510827E+03  0.00000000000E+00 0.  1.
         22   -1    0    0    0    0 -0.00000000000E+00 -0.00000000000E+00 -0.15368998464E+03  0.15368998464E+03  0.00000000000E+00 0.  1.
         24    2    1    2    0    0 -0.26521665718E+01  0.36342844104E+01 -0.10733745536E+03  0.14532291402E+03  0.97863057410E+02 0.  0.
         25    2    1    2    0    0 -0.36970831707E+02  0.20257292070E+02  0.16538005497E+03  0.21160196454E+03  0.12509048140E+03 0.  0.
        -24    2    1    2    0    0  0.39622998279E+02 -0.23891576481E+02  0.52489252401E+03  0.53339021436E+03  0.82777832714E+02 0.  0.
        -13    1    3    3    0    0 -0.23783486108E+02 -0.10778673510E+02 -0.11554575893E+03  0.11845951384E+03  0.00000000000E+00 0.  1.
         14    1    3    3    0    0  0.21131319536E+02  0.14412957920E+02  0.82083035720E+01  0.26863400173E+02  0.00000000000E+00 0. -1.
         11    1    5    5    0    0  0.33169014192E+02 -0.49027234441E+02  0.23507295438E+03  0.24241111175E+03  0.00000000000E+00 0. -1.
        -12    1    5    5    0    0  0.64539840873E+01  0.25135657961E+02  0.28981956963E+03  0.29097910260E+03  0.00000000000E+00 0.  1.
          5    1    4    4  501    0 -0.34613826082E+02  0.52220298256E+02  0.25057134886E+02  0.67604799494E+02  0.41800000000E+01 0.  1.
         -5    1    4    4    0  501 -0.23570056253E+01 -0.31963006186E+02  0.14032292009E+03  0.14399716505E+03  0.41800000000E+01 0.  1.
</event>
<event>
11    1  0.1078607E-008  0.1391845E+03  0.7561462E-02  0.1108472E+00
         22   -1    0    0    0    0  0.00000000000E+00  0.00000000000E+00  0.43812196058E+03  0.43812196058E+03  0.00000000000E+00 0.  1.
         22   -1    0    0    0    0 -0.00000000000E+00 -0.00000000000E+00 -0.52747685306E+03  0.52747685306E+03  0.00000000000E+00 0.  1.
        -24    2    1    2    0    0  0.27194173513E+02  0.52463605980E+02 -0.43864982818E+03  0.45035564910E+03  0.83153989034E+02 0.  0.
         25    2    1    2    0    0 -0.32686712439E+02 -0.79385138424E+02 -0.46128098280E+01  0.15178219952E+03  0.12508451824E+03 0.  0.
         24    2    1    2    0    0  0.54925389266E+01  0.26921532444E+02  0.35390774553E+03  0.36346096502E+03  0.78091253361E+02 0.  0.
        -11    1    5    5    0    0 -0.36236859844E+02  0.13783095200E+02  0.15182880023E+03  0.15670056894E+03  0.00000000000E+00 0.  1.
         12    1    5    5    0    0  0.41729398771E+02  0.13138437244E+02  0.20207894530E+03  0.20676039608E+03  0.00000000000E+00 0. -1.
         13    1    3    3    0    0  0.25041598560E+02  0.10207265906E+02 -0.33732388892E+02  0.43233598000E+02  0.00000000000E+00 0. -1.
        -14    1    3    3    0    0  0.21525749530E+01  0.42256340074E+02 -0.40491743929E+03  0.40712205110E+03  0.00000000000E+00 0.  1.
          5    1    4    4  501    0 -0.12596530751E+02  0.24871210607E+02  0.28893629451E+02  0.40367857596E+02  0.41800000000E+01 0.  1.
         -5    1    4    4    0  501 -0.20090181688E+02 -0.10425634903E+03 -0.33506439279E+02  0.11141434193E+03  0.41800000000E+01 0.  1.
</event>
<event>
11    1  0.1078607E-008  0.1473546E+03  0.7561462E-02  0.1099613E+00
         22   -1    0    0    0    0  0.00000000000E+00  0.00000000000E+00  0.40803655899E+03  0.40803655899E+03  0.00000000000E+00 0.  1.
         22   -1    0    0    0    0 -0.00000000000E+00 -0.00000000000E+00 -0.37740754605E+03  0.37740754605E+03  0.00000000000E+00 0.  1.
         24    2    1    2    0    0  0.38807593370E+00  0.31467146715E+02 -0.27578831931E+03  0.28900826259E+03  0.80475131899E+02 0.  0.
         25    2    1    2    0    0  0.74756584118E+02 -0.48971466532E+02 -0.16951952533E+02  0.15467426317E+03  0.12509999037E+03 0.  0.
        -24    2    1    2    0    0 -0.75144660051E+02  0.17504319816E+02  0.32336928478E+03  0.34176157928E+03  0.79247470528E+02 0.  0.
        -13    1    3    3    0    0  0.20204208740E+02  0.95420549510E+01 -0.24612034091E+03  0.24713252128E+03  0.00000000000E+00 0.  1.
         14    1    3    3    0    0 -0.19816132806E+02  0.21925091764E+02 -0.29667978395E+02  0.41875741310E+02  0.00000000000E+00 0. -1.
         13    1    5    5    0    0 -0.40713905283E+02  0.35816377878E+02  0.89365493265E+02  0.10453050461E+03  0.00000000000E+00 0. -1.
        -14    1    5    5    0    0 -0.34430754768E+02 -0.18312058062E+02  0.23400379152E+03  0.23723107467E+03  0.00000000000E+00 0.  1.
          5    1    4    4  501    0  0.73795650870E+02  0.24035249104E+02  0.61841515144E+01  0.77969272260E+02  0.41800000000E+01 0. -1.
         -5    1    4    4    0  501  0.96093324792E+00 -0.73006715636E+02 -0.23136104048E+02  0.76704990914E+02  0.41800000000E+01 0. -1.
</event>
<event>
11    1  0.1078607E-008  0.1395435E+03  0.7561462E-02  0.1108069E+00
         22   -1    0    0    0    0  0.00000000000E+00  0.00000000000E+00  0.24269168634E+04  0.24269168634E+04  0.00000000000E+00 0. -1.
         22   -1    0    0    0    0 -0.00000000000E+00 -0.00000000000E+00 -0.19128576993E+04  0.19128576993E+04  0.00000000000E+00 0. -1.
        -24    2    1    2    0    0  0.47584206481E+01 -0.60022134529E+02 -0.17304076497E+04  0.17332854681E+04  0.79640320721E+02 0.  0.
         25    2    1    2    0    0 -0.38231806672E+01  0.10349779098E+03 -0.14354649707E+03  0.21674711647E+03  0.12508919309E+03 0.  0.
         24    2    1    2    0    0 -0.93523998089E+00 -0.43475656448E+02  0.23880133108E+04  0.23897419781E+04  0.79800639672E+02 0.  0.
        -11    1    5    5    0    0 -0.11813192805E+02  0.14231932791E+02  0.17997548470E+03  0.18092339409E+03  0.00000000000E+00 0.  1.
         12    1    5    5    0    0  0.10877952824E+02 -0.57707589240E+02  0.22080378261E+04  0.22088185840E+04  0.00000000000E+00 0. -1.
         11    1    3    3    0    0  0.27304690068E+01 -0.23420393595E+02 -0.14819995818E+04  0.14821871444E+04  0.00000000000E+00 0. -1.
        -12    1    3    3    0    0  0.20279516412E+01 -0.36601740934E+02 -0.24840806785E+03  0.25109832377E+03  0.00000000000E+00 0.  1.
          5    1    4    4  501    0  0.35802623863E+02  0.11518366876E+03 -0.10222096494E+03  0.15816353403E+03  0.41800000000E+01 0.  1.
         -5    1    4    4    0  501 -0.39625804530E+02 -0.11685877787E+02 -0.41325532134E+02  0.58583582432E+02  0.41800000000E+01 0.  1.
</event>
<event>
11    1  0.1078607E-008  0.7868375E+03  0.7561462E-02  0.8913291E-01
         22   -1    0    0    0    0  0.00000000000E+00  0.00000000000E+00  0.96856765040E+03  0.96856765040E+03  0.00000000000E+00 0. -1.
         22   -1    0    0    0    0 -0.00000000000E+00 -0.00000000000E+00 -0.10226784951E+04  0.10226784951E+04  0.00000000000E+00 0. -1.
         24    2    1    2    0    0  0.63694294759E+02  0.31925422072E+02 -0.37266322139E+03  0.38783471352E+03  0.80384654488E+02 0.  0.
         25    2    1    2    0    0  0.45321473946E+03 -0.62221074030E+03  0.10939430564E+03  0.78750459922E+03  0.12508626734E+03 0.  0.
        -24    2    1    2    0    0 -0.51690903422E+03  0.59028531823E+03  0.20915807104E+03  0.81590683277E+03  0.79530839948E+02 0.  0.
        -11    1    3    3    0    0  0.51686865429E+02 -0.10184309384E+02 -0.11519446835E+03  0.12666892971E+03  0.00000000000E+00 0.  1.
         12    1    3    3    0    0  0.12007429330E+02  0.42109731456E+02 -0.25746875304E+03  0.26116578381E+03  0.00000000000E+00 0. -1.
         13    1    5    5    0    0 -0.49837905069E+03  0.54196868060E+03  0.20326171834E+03  0.76382396864E+03  0.00000000000E+00 0. -1.
        -14    1    5    5    0    0 -0.18529983527E+02  0.48316637625E+02  0.58963527078E+01  0.52082864132E+02  0.00000000000E+00 0.  1.
          5    1    4    4  501    0  0.42731028282E+03 -0.62067722543E+03  0.10454860819E+03  0.76077735234E+03  0.41800000000E+01 0. -1.
         -5    1    4    4    0  501  0.25904456645E+02 -0.15335148744E+01  0.48456974516E+01  0.26727246879E+02  0.41800000000E+01 0. -1.
</event>
<event>
11    1  0.1078607E-008  0.1302562E+03  0.7561462E-02  0.1118955E+00
         22   -1    0    0    0    0  0.00000000000E+00  0.00000000000E+00  0.52434930717E+02  0.52434930717E+02  0.00000000000E+00 0.  1.
         22   -1    0    0    0    0 -0.00000000000E+00 -0.00000000000E+00 -0.18941406497E+04  0.18941406497E+04  0.00000000000E+00 0.  1.
        -24    2    1    2    0    0  0.18580645029E+02  0.10682427770E+02 -0.15818569203E+04  0.15840531384E+04  0.80583337364E+02 0.  0.
         25    2    1    2    0    0  0.14039465721E+02  0.13603327232E+02 -0.23142666024E+03  0.26379487469E+03  0.12508908717E+03 0.  0.
         24    2    1    2    0    0 -0.32620110750E+02 -0.24285755002E+02 -0.28422138377E+02  0.98727567295E+02  0.85354818685E+02 0.  0.
        -11    1    5    5    0    0 -0.29279936991E+02 -0.27375197406E+01  0.26530621467E+02  0.39606597935E+02  0.00000000000E+00 0.  1.
         12    1    5    5    0    0 -0.33401737587E+01 -0.21548235261E+02 -0.54952759844E+02  0.59120969360E+02  0.00000000000E+00 0. -1.
         13    1    3    3    0    0  0.37017282523E+02 -0.23001130131E+02 -0.69478467584E+03  0.69615018278E+03  0.00000000000E+00 0. -1.
        -14    1    3    3    0    0 -0.18436637494E+02  0.33683557901E+02 -0.88707224450E+03  0.88790295565E+03  0.00000000000E+00 0.  1.
          5    1    4    4  501    0 -0.40095576656E+02 -0.53977454974E+01 -0.21252266802E+02  0.45890327609E+02  0.41800000000E+01 0.  1.
         -5    1    4    4    0  501  0.54135042377E+02  0.19001072729E+02 -0.21017439344E+03  0.21790454708E+03  0.41800000000E+01 0.  1.
</event>
<event>
11    1  0.1078607E-008  0.2059216E+03  0.7561462E-02  0.1050413E+00
         22   -1    0    0    0    0  0.00000000000E+00  0.00000000000E+00  0.40227367271E+03  0.40227367271E+03  0.00000000000E+00 0.  1.
         22   -1    0    0    0    0 -0.00000000000E+00 -0.00000000000E+00 -0.47547759259E+03  0.47547759259E+03  0.00000000000E+00 0.  1.
         24    2    1    2    0    0 -0.24905376458E+02  0.14155066771E+03 -0.22008649768E+03  0.27449456510E+03  0.79071679527E+02 0.  0.
         25    2    1    2    0    0  0.31645355806E+02 -0.21299003416E+03 -0.14787906713E+03  0.28962421260E+03  0.12509109814E+03 0.  0.
        -24    2    1    2    0    0 -0.67399793477E+01  0.71439366450E+02  0.29476164494E+03  0.31363248759E+03  0.79573233857E+02 0.  0.
        -13    1    3    3    0    0 -0.27042816141E+02  0.11866773325E+03 -0.22010213348E+03  0.25151201558E+03  0.00000000000E+00 0.  1.
         14    1    3    3    0    0  0.21374396828E+01  0.22882934462E+02  0.15635799610E-01  0.22982549521E+02  0.00000000000E+00 0. -1.
         11    1    5    5    0    0  0.19383594605E+02 -0.97606288566E+01  0.53398519524E+02  0.57640224695E+02  0.00000000000E+00 0. -1.
        -12    1    5    5    0    0 -0.26123573953E+02  0.81199995307E+02  0.24136312541E+03  0.25599226290E+03  0.00000000000E+00 0.  1.
          5    1    4    4  501    0  0.66986833282E+02 -0.61221553869E+02 -0.35867647757E+02  0.97669212380E+02  0.41800000000E+01 0. -1.
         -5    1    4    4    0  501 -0.35341477476E+02 -0.15176848029E+03 -0.11201141937E+03  0.19195500022E+03  0.41800000000E+01 0. -1.
</event>
<event>
11    1  0.1078607E-008  0.1492185E+03  0.7561462E-02  0.1097680E+00
         22   -1    0    0    0    0  0.00000000000E+00  0.00000000000E+00  0.42649481979E+03  0.42649481979E+03  0.00000000000E+00 0. -1.
         22   -1    0    0    0    0 -0.00000000000E+00 -0.00000000000E+00 -0.10891307819E+04  0.10891307819E+04  0.00000000000E+00 0.  1.
         24    2    1    2    0    0  0.33656264224E+02  0.73365846796E+02 -0.96545450830E+03  0.97267127168E+03  0.86439016365E+02 0.  0.
         25    2    1    2    0    0 -0.68474088273E+01 -0.96545654649E+02 -0.60292966872E+02  0.16926326841E+03  0.12508741640E+03 0.  0.
        -24    2    1    2    0    0 -0.26808855397E+02  0.23179807852E+02  0.36311151305E+03  0.37369106162E+03  0.80864209656E+02 0.  0.
        -11    1    3    3    0    0 -0.10079121928E+02  0.72248875969E+02 -0.52382883545E+03  0.52888386025E+03  0.00000000000E+00 0.  1.
         12    1    3    3    0    0  0.43735386152E+02  0.11169708270E+01 -0.44162567285E+03  0.44378741143E+03  0.00000000000E+00 0. -1.
         11    1    5    5    0    0  0.48191052699E+01  0.20264580691E+02  0.31708881203E+03  0.31777223246E+03  0.00000000000E+00 0. -1.
        -12    1    5    5    0    0 -0.31627960667E+02  0.29152271616E+01  0.46022701016E+02  0.55918829156E+02  0.00000000000E+00 0.  1.
          5    1    4    4  501    0 -0.39242230394E+02 -0.61834143895E+02 -0.87659262043E+02  0.11430237364E+03  0.41800000000E+01 0. -1.
         -5    1    4    4    0  501  0.32394821567E+02 -0.34711510754E+02  0.27366295171E+02  0.54960894776E+02  0.41800000000E+01 0. -1.
</event>
<event>
11    1  0.1078607E-008  0.2062090E+03  0.7561462E-02  0.1050218E+00
         22   -1    0    0    0    0  0.00000000000E+00  0.00000000000E+00  0.85160129014E+03  0.85160129014E+03  0.00000000000E+00 0.  1.
         22   -1    0    0    0    0 -0.00000000000E+00 -0.00000000000E+00 -0.66240776927E+03  0.66240776927E+03  0.00000000000E+00 0.  1.
        -24    2    1    2    0    0 -0.10067712848E+03 -0.28091418250E+01 -0.59286473728E+03  0.60660558430E+03  0.79611322762E+02 0.  0.
         25    2    1    2    0    0  0.48760724808E+02  0.16353613916E+03  0.18319865828E+03  0.27987640130E+03  0.12508946604E+03 0.  0.
         24    2    1    2    0    0  0.51916403669E+02 -0.16072699734E+03  0.59885959987E+03  0.62752707380E+03  0.81418224939E+02 0.  0.
        -11    1    5    5    0    0  0.55138747015E+02 -0.16945312542E+03  0.56986996051E+03  0.59708158155E+03  0.00000000000E+00 0.  1.
         12    1    5    5    0    0 -0.32223433460E+01  0.87261280834E+01  0.28989639364E+02  0.30445492251E+02  0.00000000000E+00 0. -1.
         13    1    3    3    0    0 -0.38012188052E+02 -0.29353128275E+02 -0.38257909161E+03  0.38558176036E+03  0.00000000000E+00 0. -1.
        -14    1    3    3    0    0 -0.62664940425E+02  0.26543986450E+02 -0.21028564567E+03  0.22102382394E+03  0.00000000000E+00 0.  1.
          5    1    4    4  501    0 -0.31514675440E+02  0.27501881641E+02  0.60020253362E+01  0.42462041519E+02  0.41800000000E+01 0.  1.
         -5    1    4    4    0  501  0.80275400248E+02  0.13603425752E+03  0.17719663294E+03  0.23741435978E+03  0.41800000000E+01 0.  1.
</event>
<event>
11    1  0.1078607E-008  0.1365672E+03  0.7561462E-02  0.1111453E+00
         22   -1    0    0    0    0  0.00000000000E+00  0.00000000000E+00  0.34685276946E+03  0.34685276946E+03  0.00000000000E+00 0.  1.
         22   -1    0    0    0    0 -0.00000000000E+00 -0.00000000000E+00 -0.11176808171E+04  0.11176808171E+04  0.00000000000E+00 0. -1.
        -24    2    1    2    0    0  0.49407372437E+02 -0.24033609352E+02 -0.10728889357E+04  0.10773513616E+04  0.81096147660E+02 0.  0.
         25    2    1    2    0    0 -0.52139651058E+02 -0.48981791041E+00  0.10759445498E+03  0.17303557836E+03  0.12508381790E+03 0.  0.
         24    2    1    2    0    0  0.27322786203E+01  0.24523427262E+02  0.19446643309E+03  0.21414664659E+03  0.86213275167E+02 0.  0.
        -11    1    5    5    0    0  0.18102611494E+02  0.50100397712E+02  0.15959424748E+03  0.16825004672E+03  0.00000000000E+00 0.  1.
         12    1    5    5    0    0 -0.15370332874E+02 -0.25576970449E+02  0.34872185616E+02  0.45896599871E+02  0.00000000000E+00 0. -1.
         13    1    3    3    0    0  0.47233644197E+02  0.15669570677E+02 -0.80396063937E+03  0.80549938687E+03  0.00000000000E+00 0. -1.
        -14    1    3    3    0    0  0.21737282405E+01 -0.39703180029E+02 -0.26892829637E+03  0.27185197478E+03  0.00000000000E+00 0.  1.
          5    1    4    4  501    0 -0.39744281384E+01 -0.16632848366E+01  0.12233211142E+03  0.12247930634E+03  0.41800000000E+01 0. -1.
         -5    1    4    4    0  501 -0.48165222919E+02  0.11734669262E+01 -0.14737656438E+02  0.50556272022E+02  0.41800000000E+01 0. -1.
</event>
<event>
11    1  0.1078607E-008  0.1392561E+03  0.7561462E-02  0.1108392E+00
         22   -1    0    0    0    0  0.00000000000E+00  0.00000000000E+00  0.21405853958E+03  0.21405853958E+03  0.00000000000E+00 0. -1.
         22   -1    0    0    0    0 -0.00000000000E+00 -0.00000000000E+00 -0.58112512070E+03  0.58112512070E+03  0.00000000000E+00 0. -1.
        -24    2    1    2    0    0  0.33689237537E+02 -0.35420268284E+02 -0.22055048270E+03  0.24005505758E+03  0.81205634783E+02 0.  0.
         25    2    1    2    0    0 -0.51268012411E+02  0.63992283203E+02 -0.32645025762E+03  0.35907939048E+03  0.12507924111E+03 0.  0.
         24    2    1    2    0    0  0.17578774874E+02 -0.28572014919E+02  0.17993415920E+03  0.19604921222E+03  0.70239722387E+02 0.  0.
        -11    1    5    5    0    0 -0.12143842062E+02  0.16818419273E+02  0.28970291594E+02  0.35631586014E+02  0.00000000000E+00 0.  1.
         12    1    5    5    0    0  0.29722616936E+02 -0.45390434193E+02  0.15096386761E+03  0.16041762620E+03  0.00000000000E+00 0. -1.
         11    1    3    3    0    0  0.26254781386E+02  0.19192316776E+02 -0.13037121283E+03  0.13436633397E+03  0.00000000000E+00 0. -1.
        -12    1    3    3    0    0  0.74344561503E+01 -0.54612585060E+02 -0.90179269868E+02  0.10568872361E+03  0.00000000000E+00 0.  1.
          5    1    4    4  501    0 -0.69031579141E+02  0.41316603318E+02 -0.89775104341E+02  0.12062115232E+03  0.41800000000E+01 0.  1.
         -5    1    4    4    0  501  0.17763566730E+02  0.22675679885E+02 -0.23667515328E+03  0.23845823815E+03  0.41800000000E+01 0.  1.
</event>
<event>
11    1  0.1078607E-008  0.4804032E+03  0.7561462E-02  0.9438410E-01
         22   -1    0    0    0    0  0.00000000000E+00  0.00000000000E+00  0.18168991655E+04  0.18168991655E+04  0.00000000000E+00 0. -1.
         22   -1    0    0    0    0 -0.00000000000E+00 -0.00000000000E+00 -0.33405566795E+04  0.33405566795E+04  0.00000000000E+00 0.  1.
         24    2    1    2    0    0  0.45768570635E+02 -0.72683678949E+02 -0.30213632682E+04  0.30236801315E+04  0.81411668659E+02 0.  0.
         25    2    1    2    0    0 -0.63578020982E+01  0.52734870975E+03 -0.24488287317E+02  0.54257189261E+03  0.12508996406E+03 0.  0.
        -24    2    1    2    0    0 -0.39410768537E+02 -0.45466503080E+03  0.15221940415E+04  0.15912038209E+04  0.81125834346E+02 0.  0.
        -13    1    3    3    0    0  0.47490425413E+02 -0.14380996236E+02 -0.20272521422E+04  0.20278593151E+04  0.00000000000E+00 0.  1.
         14    1    3    3    0    0 -0.17218547771E+01 -0.58302682713E+02 -0.99411112597E+03  0.99582081640E+03  0.00000000000E+00 0. -1.
         13    1    5    5    0    0  0.40558672550E+01 -0.34005266837E+03  0.10745377448E+04  0.11270686014E+04  0.00000000000E+00 0. -1.
        -14    1    5    5    0    0 -0.43466635792E+02 -0.11461236243E+03  0.44765629670E+03  0.46413521955E+03  0.00000000000E+00 0.  1.
          5    1    4    4  501    0 -0.14088576952E+02  0.50428255136E+03 -0.50128625168E+02  0.50698099675E+03  0.41800000000E+01 0. -1.
         -5    1    4    4    0  501  0.77307748535E+01  0.23066158393E+02  0.25640337851E+02  0.35590895858E+02  0.41800000000E+01 0. -1.
</event>
<event>
11    1  0.1078607E-008  0.2851370E+03  0.7561462E-02  0.1006685E+00
         22   -1    0    0    0    0  0.00000000000E+00  0.00000000000E+00  0.88068952062E+02  0.88068952062E+02  0.00000000000E+00 0.  1.
         22   -1    0    0    0    0 -0.00000000000E+00 -0.00000000000E+00 -0.22480926921E+04  0.22480926921E+04  0.00000000000E+00 0.  1.
         24    2    1    2    0    0 -0.26252580603E+03 -0.58717225140E+02 -0.17883714237E+04  0.18109644833E+04  0.94617648727E+02 0.  0.
         25    2    1    2    0    0  0.20301821934E+03  0.60508193258E+02 -0.34224217196E+03  0.42148949263E+03  0.12508416884E+03 0.  0.
        -24    2    1    2    0    0  0.59507586687E+02 -0.17909681177E+01 -0.29410144416E+02  0.10370766823E+03  0.79661555439E+02 0.  0.
        -13    1    3    3    0    0 -0.25310991408E+03 -0.70656778445E+02 -0.15508371246E+04  0.15729439901E+04  0.00000000000E+00 0.  1.
         14    1    3    3    0    0 -0.94158919443E+01  0.11939553305E+02 -0.23753429904E+03  0.23802049318E+03  0.00000000000E+00 0. -1.
         11    1    5    5    0    0  0.67233980567E+02  0.13642989983E+02 -0.43665751170E+02  0.81321812227E+02  0.00000000000E+00 0. -1.
        -12    1    5    5    0    0 -0.77263938803E+01 -0.15433958100E+02  0.14255606755E+02  0.22385856003E+02  0.00000000000E+00 0.  1.
          5    1    4    4  501    0  0.97119478060E+02  0.48284891840E+01 -0.25618638660E+03  0.27405190093E+03  0.41800000000E+01 0. -1.
         -5    1    4    4    0  501  0.10589874128E+03  0.55679704074E+02 -0.86055785357E+02  0.14743759169E+03  0.41800000000E+01 0. -1.
</event>
<event>
11    1  0.1078607E-008  0.1696487E+03  0.7561462E-02  0.1078338E+00
         22   -1    0    0    0    0  0.00000000000E+00  0.00000000000E+00  0.11172412307E+04  0.11172412307E+04  0.00000000000E+00 0.  1.
         22   -1    0    0    0    0 -0.00000000000E+00 -0.00000000000E+00 -0.39117143777E+03  0.39117143777E+03  0.00000000000E+00 0.  1.
         24    2    1    2    0    0 -0.76042603211E+02 -0.85244579759E+02 -0.36022845967E+03  0.38627501144E+03  0.79967027122E+02 0.  0.
         25    2    1    2    0    0  0.10797625151E+03  0.79682805907E+02  0.57502616582E+03  0.60358088886E+03  0.12508628053E+03 0.  0.
        -24    2    1    2    0    0 -0.31933648300E+02  0.55617738516E+01  0.51127208673E+03  0.51855676814E+03  0.80319884726E+02 0.  0.
        -11    1    3    3    0    0 -0.80494861459E+02 -0.57298484523E+02 -0.33165456733E+03  0.34605966405E+03  0.00000000000E+00 0.  1.
         12    1    3    3    0    0  0.44522582479E+01 -0.27946095236E+02 -0.28573892333E+02  0.40215347388E+02  0.00000000000E+00 0. -1.
         13    1    5    5    0    0  0.64591981589E+01  0.33179189273E+02  0.12840091118E+03  0.13277565226E+03  0.00000000000E+00 0. -1.
        -14    1    5    5    0    0 -0.38392846459E+02 -0.27617415421E+02  0.38287117555E+03  0.38578111587E+03  0.00000000000E+00 0.  1.
          5    1    4    4  501    0 -0.10532543070E+01  0.50738128607E+02  0.72905799687E+02  0.88928033078E+02  0.41800000000E+01 0. -1.
         -5    1    4    4    0  501  0.10902950582E+03  0.28944677300E+02  0.50212036613E+03  0.51465285578E+03  0.41800000000E+01 0. -1.
</event>
<event>
11    1  0.1078607E-008  0.1354027E+03  0.7561462E-02  0.1112803E+00
         22   -1    0    0    0    0  0.00000000000E+00  0.00000000000E+00  0.10274022585E+04  0.10274022585E+04  0.00000000000E+00 0. -1.
         22   -1    0    0    0    0 -0.00000000000E+00 -0.00000000000E+00 -0.22789028001E+03  0.22789028001E+03  0.00000000000E+00 0.  1.
        -24    2    1    2    0    0  0.40858800056E+02 -0.27243086504E+02 -0.15570209625E+03  0.18244047621E+03  0.81423321483E+02 0.  0.
         25    2    1    2    0    0 -0.52232212810E+02  0.48406450193E+02  0.34195180308E+02  0.14794232207E+03  0.12508489848E+03 0.  0.
         24    2    1    2    0    0  0.11373412754E+02 -0.21163363689E+02  0.92101889442E+03  0.92490974021E+03  0.81271035253E+02 0.  0.
        -11    1    5    5    0    0  0.16541298372E+02 -0.47001852938E+01  0.37859820348E+02  0.41582115031E+02  0.00000000000E+00 0.  1.
         12    1    5    5    0    0 -0.51678856177E+01 -0.16463178395E+02  0.88315907408E+03  0.88332762518E+03  0.00000000000E+00 0. -1.
         13    1    3    3    0    0  0.20581874399E+02 -0.52560647907E+02 -0.64869690233E+02  0.85990185330E+02  0.00000000000E+00 0. -1.
        -14    1    3    3    0    0  0.20276925657E+02  0.25317561402E+02 -0.90832406014E+02  0.96450290885E+02  0.00000000000E+00 0.  1.
          5    1    4    4  501    0  0.25252632757E+01  0.62932187899E+02 -0.23142525020E+02  0.67230098116E+02  0.41800000000E+01 0. -1.
         -5    1    4    4    0  501 -0.54757476086E+02 -0.14525737706E+02  0.57337705328E+02  0.80712223953E+02  0.41800000000E+01 0. -1.
</event>
<event>
11    1  0.1078607E-008  0.1509675E+03  0.7561462E-02  0.1095894E+00
         22   -1    0    0    0    0  0.00000000000E+00  0.00000000000E+00  0.69587693804E+03  0.69587693804E+03  0.00000000000E+00 0. -1.
         22   -1    0    0    0    0 -0.00000000000E+00 -0.00000000000E+00 -0.37097932858E+03  0.37097932858E+03  0.00000000000E+00 0.  1.
        -24    2    1    2    0    0 -0.50729105414E+02 -0.66824603121E+02 -0.28776472668E+03  0.30950326267E+03  0.77102282493E+02 0.  0.
         25    2    1    2    0    0  0.47022935161E+02  0.76548842076E+02  0.15896531985E+02  0.15482273371E+03  0.12508596040E+03 0.  0.
         24    2    1    2    0    0  0.37061702536E+01 -0.97242389544E+01  0.59676580415E+03  0.60253027025E+03  0.82492454466E+02 0.  0.
        -13    1    5    5    0    0  0.10604158463E+02  0.34392098793E+02  0.34121241302E+03  0.34310519588E+03  0.00000000000E+00 0.  1.
         14    1    5    5    0    0 -0.68979882095E+01 -0.44116337747E+02  0.25555339113E+03  0.25942507437E+03  0.00000000000E+00 0. -1.
         11    1    3    3    0    0  0.15613346691E+02 -0.19923316959E+02 -0.30077623305E+02  0.39311303428E+02  0.00000000000E+00 0. -1.
        -12    1    3    3    0    0 -0.66342452105E+02 -0.46901286162E+02 -0.25768710337E+03  0.27019195924E+03  0.00000000000E+00 0.  1.
          5    1    4    4  501    0  0.27181650647E+02  0.10872757580E+03 -0.33378882024E+01  0.11220134477E+03  0.41800000000E+01 0.  1.
         -5    1    4    4    0  501  0.19841284514E+02 -0.32178733720E+02  0.19234420188E+02  0.42621388937E+02  0.41800000000E+01 0.  1.
</event>
<event>
11    1  0.1078607E-008  0.3363528E+03  0.7561462E-02  0.9858809E-01
         22   -1    0    0    0    0  0.00000000000E+00  0.00000000000E+00  0.31602435751E+04  0.31602435751E+04  0.00000000000E+00 0.  1.
         22   -1    0    0    0    0 -0.00000000000E+00 -0.00000000000E+00 -0.34294996529E+03  0.34294996529E+03  0.00000000000E+00 0. -1.
         24    2    1    2    0    0 -0.30714338447E+02  0.42515850075E+02 -0.28763126436E+03  0.30323497295E+03  0.80428455720E+02 0.  0.
         25    2    1    2    0    0  0.27456638603E+03 -0.21836020128E+03  0.91414840144E+03  0.98710815094E+03  0.12508926400E+03 0.  0.
        -24    2    1    2    0    0 -0.24385204758E+03  0.17584435120E+03  0.21907764727E+04  0.22128504165E+04  0.82585442876E+02 0.  0.
        -11    1    3    3    0    0 -0.33809928203E+02  0.52408101013E+01 -0.39315464121E+02  0.52117972473E+02  0.00000000000E+00 0.  1.
         12    1    3    3    0    0  0.30955897558E+01  0.37275039974E+02 -0.24831580024E+03  0.25111700048E+03  0.00000000000E+00 0. -1.
         11    1    5    5    0    0 -0.71594391164E+02  0.10096022509E+03  0.83381970377E+03  0.84295552806E+03  0.00000000000E+00 0. -1.
        -12    1    5    5    0    0 -0.17225765642E+03  0.74884126108E+02  0.13569567690E+04  0.13698948885E+04  0.00000000000E+00 0.  1.
          5    1    4    4  501    0  0.23496358531E+03 -0.22530886141E+03  0.74204716168E+03  0.81032304176E+03  0.41800000000E+01 0. -1.
         -5    1    4    4    0  501  0.39602800717E+02  0.69486601332E+01  0.17210123976E+03  0.17678510918E+03  0.41800000000E+01 0. -1.
</event>
<event>
11    1  0.1078607E-008  0.2073542E+03  0.7561462E-02  0.1049442E+00
         22   -1    0    0    0    0  0.00000000000E+00  0.00000000000E+00  0.43407917989E+03  0.43407917989E+03  0.00000000000E+00 0. -1.
         22   -1    0    0    0    0 -0.00000000000E+00 -0.00000000000E+00 -0.12847722877E+04  0.12847722877E+04  0.00000000000E+00 0. -1.
         24    2    1    2    0    0 -0.10935084634E+03  0.12504133688E+03 -0.12026248943E+04  0.12167386913E+04  0.80953462141E+02 0.  0.
         25    2    1    2    0    0  0.29123477955E+02 -0.16734463820E+03  0.12574729846E+03  0.24558432636E+03  0.12508746293E+03 0.  0.
        -24    2    1    2    0    0  0.80227368384E+02  0.42303301319E+02  0.22618448796E+03  0.25652845000E+03  0.80133782675E+02 0.  0.
        -13    1    3    3    0    0 -0.77050460942E+01 -0.83356864125E+01 -0.28152478395E+02  0.30354792753E+02  0.00000000000E+00 0.  1.
         14    1    3    3    0    0 -0.10164580024E+03  0.13337702329E+03 -0.11744724159E+04  0.11863838985E+04  0.00000000000E+00 0. -1.
         11    1    5    5    0    0  0.34013145953E+02  0.59554354997E+02  0.15916405578E+03  0.17331131512E+03  0.00000000000E+00 0. -1.
        -12    1    5    5    0    0  0.46214222431E+02 -0.17251053678E+02  0.67020432176E+02  0.83217134876E+02  0.00000000000E+00 0.  1.
          5    1    4    4  501    0  0.14466673811E+02 -0.16563065517E+03  0.14522335289E+03  0.22079423273E+03  0.41800000000E+01 0. -1.
         -5    1    4    4    0  501  0.14656804144E+02 -0.17139830294E+01 -0.19476054437E+02  0.24790093626E+02  0.41800000000E+01 0. -1.
</event>
<event>
11    1  0.1078607E-008  0.1388764E+03  0.7561462E-02  0.1108820E+00
         22   -1    0    0    0    0  0.00000000000E+00  0.00000000000E+00  0.66609202915E+02  0.66609202915E+02  0.00000000000E+00 0. -1.
         22   -1    0    0    0    0 -0.00000000000E+00 -0.00000000000E+00 -0.38206346543E+04  0.38206346543E+04  0.00000000000E+00 0. -1.
         24    2    1    2    0    0 -0.43620963238E+02 -0.10225578714E+02 -0.30446864926E+04  0.30461105007E+04  0.81645537259E+02 0.  0.
         25    2    1    2    0    0  0.33388788153E+02 -0.50103342220E+02 -0.72818096052E+03  0.74129660069E+03  0.12509189767E+03 0.  0.
        -24    2    1    2    0    0  0.10232175085E+02  0.60328920934E+02  0.18842001728E+02  0.99836755762E+02  0.76603398514E+02 0.  0.
        -13    1    3    3    0    0 -0.78919517773E+01 -0.39851525997E+02 -0.89318121869E+03  0.89410464514E+03  0.00000000000E+00 0.  1.
         14    1    3    3    0    0 -0.35729011461E+02  0.29625947283E+02 -0.21515052739E+04  0.21520058556E+04  0.00000000000E+00 0. -1.
         13    1    5    5    0    0  0.95330717349E+01  0.73486592578E+02  0.32449101899E+02  0.80895630039E+02  0.00000000000E+00 0. -1.
        -14    1    5    5    0    0  0.69910335064E+00 -0.13157671644E+02 -0.13607100171E+02  0.18941125723E+02  0.00000000000E+00 0.  1.
          5    1    4    4  501    0 -0.67841790716E+01 -0.44281536368E+02 -0.66212823365E+03  0.66365514369E+03  0.41800000000E+01 0.  1.
         -5    1    4    4    0  501  0.40172967225E+02 -0.58218058518E+01 -0.66052726869E+02  0.77641457005E+02  0.41800000000E+01 0.  1.
</event>
<event>
11    1  0.1078607E-008  0.3045464E+03  0.7561462E-02  0.9982852E-01
         22   -1    0    0    0    0  0.00000000000E+00  0.00000000000E+00  0.96437044085E+03  0.96437044085E+03  0.00000000000E+00 0. -1.
         22   -1    0    0    0    0 -0.00000000000E+00 -0.00000000000E+00 -0.10347280116E+04  0.10347280116E+04  0.00000000000E+00 0.  1.
        -24    2    1    2    0    0  0.27825666983E+03  0.57132801086E+01 -0.97270499076E+03  0.10149636648E+04  0.80850639661E+02 0.  0.
         25    2    1    2    0    0 -0.25899359970E+03 -0.28185112119E+02  0.55868032955E+03  0.62900187806E+03  0.12509023438E+03 0.  0.
         24    2    1    2    0    0 -0.19263070128E+02  0.22471832010E+02  0.34366709046E+03  0.35513290960E+03  0.84476418643E+02 0.  0.
        -13    1    5    5    0    0  0.67956200872E+01  0.29005916005E+02  0.37992240412E+02  0.48279746760E+02  0.00000000000E+00 0.  1.
         14    1    5    5    0    0 -0.26058690215E+02 -0.65340839951E+01  0.30567485005E+03  0.30685316284E+03  0.00000000000E+00 0. -1.
         13    1    3    3    0    0  0.10913230439E+03 -0.37184990561E+02 -0.37805634495E+03  0.39524572527E+03  0.00000000000E+00 0. -1.
        -14    1    3    3    0    0  0.16912436543E+03  0.42898270669E+02 -0.59464864580E+03  0.61971793952E+03  0.00000000000E+00 0.  1.
          5    1    4    4  501    0 -0.18313502515E+03 -0.22631890904E+02  0.49958412721E+03  0.53259028575E+03  0.41800000000E+01 0.  1.
         -5    1    4    4    0  501 -0.75858574549E+02 -0.55532212147E+01  0.59096202348E+02  0.96411592303E+02  0.41800000000E+01 0.  1.
</event>
<event>
11    1  0.1078607E-008  0.1252816E+03  0.7561462E-02  0.1125206E+00
         22   -1    0    0    0    0  0.00000000000E+00  0.00000000000E+00  0.17978928692E+03  0.17978928692E+03  0.00000000000E+00 0. -1.
         22   -1    0    0    0    0 -0.00000000000E+00 -0.00000000000E+00 -0.63758170085E+03  0.63758170085E+03  0.00000000000E+00 0.  1.
         24    2    1    2    0    0  0.89549310175E+01 -0.11739093513E+02 -0.53833719927E+03  0.54475531556E+03  0.82057398244E+02 0.  0.
         25    2    1    2    0    0 -0.70823419111E+00  0.10672105656E+02 -0.34707561512E+02  0.13025124838E+03  0.12508548054E+03 0.  0.
        -24    2    1    2    0    0 -0.82466968264E+01  0.10669878573E+01  0.11525234686E+03  0.14236442384E+03  0.83158759297E+02 0.  0.
        -13    1    3    3    0    0 -0.18705617900E+02  0.35589834295E+01 -0.45840264533E+03  0.45879794218E+03  0.00000000000E+00 0.  1.
         14    1    3    3    0    0  0.27660548918E+02 -0.15298076943E+02 -0.79934553945E+02  0.85957373383E+02  0.00000000000E+00 0. -1.
         13    1    5    5    0    0 -0.24307357764E+02 -0.16938037265E+02  0.11445145042E+03  0.11822385229E+03  0.00000000000E+00 0. -1.
        -14    1    5    5    0    0  0.16060660938E+02  0.18005025123E+02  0.80089643495E+00  0.24140571545E+02  0.00000000000E+00 0.  1.
          5    1    4    4  501    0 -0.50067045739E+02  0.39873088343E+02 -0.34325596994E+02  0.72748135729E+02  0.41800000000E+01 0. -1.
         -5    1    4    4    0  501  0.49358811547E+02 -0.29200982687E+02 -0.38196451819E+00  0.57503112648E+02  0.41800000000E+01 0. -1.
</event>
<event>
11    1  0.1078607E-008  0.1437750E+03  0.7561462E-02  0.1103415E+00
         22   -1    0    0    0    0  0.00000000000E+00  0.00000000000E+00  0.18019826236E+03  0.18019826236E+03  0.00000000000E+00 0.  1.
         22   -1    0    0    0    0 -0.00000000000E+00 -0.00000000000E+00 -0.49544788384E+03  0.49544788384E+03  0.00000000000E+00 0.  1.
         24    2    1    2    0    0 -0.30801009358E+02  0.22169205606E+02 -0.39583436270E+03  0.40527435115E+03  0.78245007193E+02 0.  0.
         25    2    1    2    0    0 -0.49820137417E+02 -0.24924899784E+02  0.12477751317E+02  0.13750677420E+03  0.12509645059E+03 0.  0.
        -24    2    1    2    0    0  0.80621146775E+02  0.27556941780E+01  0.68106989910E+02  0.13286502086E+03  0.80667146562E+02 0.  0.
        -11    1    3    3    0    0 -0.47794461976E+02  0.35638498135E+02 -0.21392950868E+03  0.22208162425E+03  0.00000000000E+00 0.  1.
         12    1    3    3    0    0  0.16993452618E+02 -0.13469292529E+02 -0.18190485403E+03  0.18319272691E+03  0.00000000000E+00 0. -1.
         13    1    5    5    0    0  0.97181741154E+01 -0.12177385184E+02 -0.15672237498E+02  0.22098657114E+02  0.00000000000E+00 0. -1.
        -14    1    5    5    0    0  0.70902972660E+02  0.14933079362E+02  0.83779227409E+02  0.11076636374E+03  0.00000000000E+00 0.  1.
          5    1    4    4  501    0  0.28920802743E+02  0.14452120976E+02  0.33661243318E+02  0.46859666385E+02  0.41800000000E+01 0. -1.
         -5    1    4    4    0  501 -0.78740940161E+02 -0.39377020760E+02 -0.21183492001E+02  0.90647107812E+02  0.41800000000E+01 0. -1.
</event>
<event>
11    1  0.1078607E-008  0.1294459E+03  0.7561462E-02  0.1119952E+00
         22   -1    0    0    0    0  0.00000000000E+00  0.00000000000E+00  0.19061267615E+03  0.19061267615E+03  0.00000000000E+00 0. -1.
         22   -1    0    0    0    0 -0.00000000000E+00 -0.00000000000E+00 -0.42660488495E+03  0.42660488495E+03  0.00000000000E+00 0.  1.
        -24    2    1    2    0    0 -0.14206855484E+01 -0.74332938101E+00 -0.23568766525E+03  0.24951803730E+03  0.81902408393E+02 0.  0.
         25    2    1    2    0    0 -0.31917816269E+02 -0.36869192674E+00 -0.14824884171E+03  0.19658641976E+03  0.12509843499E+03 0.  0.
         24    2    1    2    0    0  0.33338501818E+02  0.11120213077E+01  0.14794429817E+03  0.17111310403E+03  0.79243212433E+02 0.  0.
        -13    1    5    5    0    0 -0.90891532693E+01 -0.29292795039E+02  0.34044657058E+02  0.45822693314E+02  0.00000000000E+00 0.  1.
         14    1    5    5    0    0  0.42427655087E+02  0.30404816346E+02  0.11389964111E+03  0.12529041072E+03  0.00000000000E+00 0. -1.
         11    1    3    3    0    0  0.39314972874E+01 -0.10314248725E+02  0.23022099840E+01  0.11275662663E+02  0.00000000000E+00 0. -1.
        -12    1    3    3    0    0 -0.53521828358E+01  0.95709193438E+01 -0.23798987524E+03  0.23824237464E+03  0.00000000000E+00 0.  1.
          5    1    4    4  501    0  0.39966607969E+02  0.28966400166E+02 -0.74192976043E+02  0.89210157411E+02  0.41800000000E+01 0. -1.
         -5    1    4    4    0  501 -0.71884424238E+02 -0.29335092093E+02 -0.74055865671E+02  0.10737626235E+03  0.41800000000E+01 0. -1.
</event>
<event>
11    1  0.1078607E-008  0.3933561E+03  0.7561462E-02  0.9669567E-01
         22   -1    0    0    0    0  0.00000000000E+00  0.00000000000E+00  0.41178646278E+03  0.41178646278E+03  0.00000000000E+00 0.  1.
         22   -1    0    0    0    0 -0.00000000000E+00 -0.00000000000E+00 -0.62818998451E+03  0.62818998451E+03  0.00000000000E+00 0.  1.
        -24    2    1    2    0    0 -0.61977378964E+01 -0.25502981461E+02 -0.92749445661E+02  0.13444200490E+03  0.93719683057E+02 0.  0.
         25    2    1    2    0    0  0.34955225669E+03  0.16127289950E+03 -0.28466805297E+03  0.49485546900E+03  0.12510118522E+03 0.  0.
         24    2    1    2    0    0 -0.34335451879E+03 -0.13576991804E+03  0.16101397690E+03  0.41067897340E+03  0.80037005323E+02 0.  0.
        -11    1    5    5    0    0 -0.18602880543E+03 -0.11482970856E+03  0.83143954042E+02  0.23389205953E+03  0.00000000000E+00 0.  1.
         12    1    5    5    0    0 -0.15732571336E+03 -0.20940209481E+02  0.77870022860E+02  0.17678691388E+03  0.00000000000E+00 0. -1.
         13    1    3    3    0    0 -0.45009694225E+02 -0.33069782851E+02 -0.67124766249E+02  0.87322490551E+02  0.00000000000E+00 0. -1.
        -14    1    3    3    0    0  0.38811956329E+02  0.75668013899E+01 -0.25624679413E+02  0.47119514348E+02  0.00000000000E+00 0.  1.
          5    1    4    4  501    0  0.38154248020E+02  0.41218603047E+02 -0.21803012137E+00  0.56322640353E+02  0.41800000000E+01 0.  1.
         -5    1    4    4    0  501  0.31139800867E+03  0.12005429645E+03 -0.28445002285E+03  0.43853282864E+03  0.41800000000E+01 0.  1.
</event>
<event>
11    1  0.1078607E-008  0.2287407E+03  0.7561462E-02  0.1035876E+00
         22   -1    0    0    0    0  0.00000000000E+00  0.00000000000E+00  0.75964210003E+03  0.75964210003E+03  0.00000000000E+00 0. -1.
         22   -1    0    0    0    0 -0.00000000000E+00 -0.00000000000E+00 -0.10063580726E+04  0.10063580726E+04  0.00000000000E+00 0. -1.
         24    2    1    2    0    0  0.11236119654E+03  0.15895765899E+03 -0.96190362107E+03  0.98470516099E+03  0.80579786600E+02 0.  0.
         25    2    1    2    0    0 -0.97483764815E+02 -0.63208928153E+02  0.27730757389E+03  0.32564737439E+03  0.12509304101E+03 0.  0.
        -24    2    1    2    0    0 -0.14877431726E+02 -0.95748730836E+02  0.43788007462E+03  0.45564763724E+03  0.80539755051E+02 0.  0.
        -13    1    3    3    0    0  0.13237684647E+02  0.65378049066E+02 -0.45194650680E+03  0.45684261032E+03  0.00000000000E+00 0.  1.
         14    1    3    3    0    0  0.99123511894E+02  0.93579609923E+02 -0.50995711427E+03  0.52786255067E+03  0.00000000000E+00 0. -1.
         13    1    5    5    0    0 -0.18637029070E+02  0.15795027579E+01  0.16204520527E+03  0.16312106618E+03  0.00000000000E+00 0. -1.
        -14    1    5    5    0    0  0.37595973436E+01 -0.97328233594E+02  0.27583486935E+03  0.29252657106E+03  0.00000000000E+00 0.  1.
          5    1    4    4  501    0 -0.11605949896E+03 -0.78069093437E+02  0.26206790326E+03  0.29708862140E+03  0.41800000000E+01 0.  1.
         -5    1    4    4    0  501  0.18575734141E+02  0.14860165285E+02  0.15239670631E+02  0.28558752986E+02  0.41800000000E+01 0.  1.
</event>
<event>
11    1  0.1078607E-008  0.1625586E+03  0.7561462E-02  0.1084695E+00
         22   -1    0    0    0    0  0.00000000000E+00  0.00000000000E+00  0.36076501972E+03  0.36076501972E+03  0.00000000000E+00 0.  1.
         22   -1    0    0    0    0 -0.00000000000E+00 -0.00000000000E+00 -0.10598294757E+04  0.10598294757E+04  0.00000000000E+00 0.  1.
        -24    2    1    2    0    0 -0.39949060067E+02 -0.71588028795E+01 -0.65540741035E+03  0.66177150748E+03  0.82069962323E+02 0.  0.
         25    2    1    2    0    0  0.44596585678E+02  0.11058429004E+03 -0.36959250777E+03  0.40800026264E+03  0.12509137404E+03 0.  0.
         24    2    1    2    0    0 -0.46475256118E+01 -0.10342548716E+03  0.32593546211E+03  0.35082272534E+03  0.78257448622E+02 0.  0.
        -13    1    5    5    0    0 -0.40102754768E+02 -0.71904110090E+02  0.20504761457E+03  0.22095917321E+03  0.00000000000E+00 0.  1.
         14    1    5    5    0    0  0.35455229156E+02 -0.31521377069E+02  0.12088784754E+03  0.12986355212E+03  0.00000000000E+00 0. -1.
         11    1    3    3    0    0 -0.40157311487E+02 -0.35246876491E+02 -0.26373037138E+03  0.26908857418E+03  0.00000000000E+00 0. -1.
        -12    1    3    3    0    0  0.20825142028E+00  0.28088073611E+02 -0.39167703897E+03  0.39268293330E+03  0.00000000000E+00 0.  1.
          5    1    4    4  501    0  0.49788576230E+02  0.11288797143E+03 -0.37763641795E+03  0.39730257107E+03  0.41800000000E+01 0. -1.
         -5    1    4    4    0  501 -0.51919905518E+01 -0.23036813958E+01  0.80439101827E+01  0.10697691568E+02  0.41800000000E+01 0. -1.
</event>
<event>
11    1  0.1078607E-008  0.1412210E+03  0.7561462E-02  0.1106203E+00
         22   -1    0    0    0    0  0.00000000000E+00  0.00000000000E+00  0.10092352602E+04  0.10092352602E+04  0.00000000000E+00 0. -1.
         22   -1    0    0    0    0 -0.00000000000E+00 -0.00000000000E+00 -0.18039154945E+03  0.18039154945E+03  0.00000000000E+00 0.  1.
        -24    2    1    2    0    0  0.18866125875E+02 -0.67851057820E+02 -0.13832907378E+03  0.17407130102E+03  0.78779365525E+02 0.  0.
         25    2    1    2    0    0 -0.21319107641E+02  0.77248364736E+01  0.17072075836E+03  0.21284908130E+03  0.12507988098E+03 0.  0.
         24    2    1    2    0    0  0.24529817663E+01  0.60126221346E+02  0.79645202616E+03  0.80270642733E+03  0.79878651026E+02 0.  0.
        -13    1    5    5    0    0  0.41118850009E+02  0.29117423369E+02  0.38753497350E+03  0.39079654534E+03  0.00000000000E+00 0.  1.
         14    1    5    5    0    0 -0.38665868243E+02  0.31008797977E+02  0.40891705266E+03  0.41190988199E+03  0.00000000000E+00 0. -1.
         13    1    3    3    0    0  0.28882582400E+02 -0.47467285403E+02 -0.29523236545E+02  0.62920332531E+02  0.00000000000E+00 0. -1.
        -14    1    3    3    0    0 -0.10016456525E+02 -0.20383772416E+02 -0.10880583723E+03  0.11115096849E+03  0.00000000000E+00 0.  1.
          5    1    4    4  501    0 -0.45403625053E+02  0.51539507100E+02  0.13412766812E+03  0.15074983820E+03  0.41800000000E+01 0. -1.
         -5    1    4    4    0  501  0.24084517412E+02 -0.43814670627E+02  0.36593090240E+02  0.62099243106E+02  0.41800000000E+01 0. -1.
</event>
<event>
11    1  0.1078607E-008  0.1420034E+03  0.7561462E-02  0.1105342E+00
         22   -1    0    0    0    0  0.00000000000E+00  0.00000000000E+00  0.76210323827E+03  0.76210323827E+03  0.00000000000E+00 0.  1.
         22   -1    0    0    0    0 -0.00000000000E+00 -0.00000000000E+00 -0.18832433042E+03  0.18832433042E+03  0.00000000000E+00 0.  1.
         24    2    1    2    0    0 -0.43382927900E+02  0.16832292091E+01 -0.11092752104E+03  0.14205139960E+03  0.77387166314E+02 0.  0.
         25    2    1    2    0    0  0.93088663977E+02 -0.43494164063E+02  0.55540999169E+02  0.17114202516E+03  0.12509016155E+03 0.  0.
        -24    2    1    2    0    0 -0.49705736077E+02  0.41810934854E+02  0.62916542972E+03  0.63723414393E+03  0.77455805226E+02 0.  0.
        -11    1    3    3    0    0 -0.56089642638E+02  0.24681886278E+02 -0.66452367254E+02  0.90394472370E+02  0.00000000000E+00 0.  1.
         12    1    3    3    0    0  0.12706714737E+02 -0.22998657069E+02 -0.44475153787E+02  0.51656927229E+02  0.00000000000E+00 0. -1.
         11    1    5    5    0    0  0.15453196772E+01  0.47722066067E+02  0.36176954468E+03  0.36490681970E+03  0.00000000000E+00 0. -1.
        -12    1    5    5    0    0 -0.51251055754E+02 -0.59111312134E+01  0.26739588504E+03  0.27232732423E+03  0.00000000000E+00 0.  1.
          5    1    4    4  501    0  0.35437027282E+02  0.43869126122E+02  0.12647310503E+02  0.57945750424E+02  0.41800000000E+01 0. -1.
         -5    1    4    4    0  501  0.57651636696E+02 -0.87363290185E+02  0.42893688666E+02  0.11319627473E+03  0.41800000000E+01 0. -1.
</event>
<event>
11    1  0.1078607E-008  0.1887965E+03  0.7561462E-02  0.1062742E+00
         22   -1    0    0    0    0  0.00000000000E+00  0.00000000000E+00  0.16800750220E+04  0.16800750220E+04  0.00000000000E+00 0.  1.
         22   -1    0    0    0    0 -0.00000000000E+00 -0.00000000000E+00 -0.18513955112E+03  0.18513955112E+03  0.00000000000E+00 0.  1.
         24    2    1    2    0    0 -0.96619238865E+01 -0.62705545328E+02 -0.14278978855E+03  0.17550850285E+03  0.79931049493E+02 0.  0.
         25    2    1    2    0    0 -0.12225426251E+03 -0.67659447591E+01  0.35481524216E+03  0.39564226452E+03  0.12508821964E+03 0.  0.
        -24    2    1    2    0    0  0.13191618640E+03  0.69471490087E+02  0.12829100173E+04  0.12940638058E+04  0.80714637877E+02 0.  0.
        -11    1    3    3    0    0 -0.42950220453E+01  0.14659581111E+02 -0.28825919776E+01  0.15545413125E+02  0.00000000000E+00 0.  1.
         12    1    3    3    0    0 -0.53669018412E+01 -0.77365126438E+02 -0.13990719657E+03  0.15996308973E+03  0.00000000000E+00 0. -1.
         11    1    5    5    0    0  0.56901449363E+00  0.27441611980E+02  0.12547932026E+03  0.12844619753E+03  0.00000000000E+00 0. -1.
        -12    1    5    5    0    0  0.13134717190E+03  0.42029878107E+02  0.11574306970E+04  0.11656176082E+04  0.00000000000E+00 0.  1.
          5    1    4    4  501    0 -0.14295277105E+03  0.12590155994E+02  0.31871341356E+03  0.34955646062E+03  0.41800000000E+01 0. -1.
         -5    1    4    4    0  501  0.20698508544E+02 -0.19356100753E+02  0.36101828606E+02  0.46085803899E+02  0.41800000000E+01 0. -1.
</event>
<event>
11    1  0.1078607E-008  0.1620901E+03  0.7561462E-02  0.1085128E+00
         22   -1    0    0    0    0  0.00000000000E+00  0.00000000000E+00  0.14726921884E+04  0.14726921884E+04  0.00000000000E+00 0.  1.
         22   -1    0    0    0    0 -0.00000000000E+00 -0.00000000000E+00 -0.75700236062E+02  0.75700236062E+02  0.00000000000E+00 0.  1.
         24    2    1    2    0    0 -0.29423816054E+02 -0.10223700660E+03  0.83083685693E+01  0.13437417308E+03  0.81665310468E+02 0.  0.
         25    2    1    2    0    0  0.51715831812E+02  0.65157426881E+02  0.54222480808E+03  0.56265032890E+03  0.12509049754E+03 0.  0.
        -24    2    1    2    0    0 -0.22292015758E+02  0.37079579717E+02  0.84645877573E+03  0.85136792252E+03  0.80393104743E+02 0.  0.
        -13    1    3    3    0    0 -0.16136444856E+02 -0.90405860068E+02 -0.26243441311E+02  0.95510850687E+02  0.00000000000E+00 0.  1.
         14    1    3    3    0    0 -0.13287371199E+02 -0.11831146531E+02  0.34551809880E+02  0.38863322395E+02  0.00000000000E+00 0. -1.
         11    1    5    5    0    0  0.26934132007E+02  0.17233955783E+02  0.18157300739E+03  0.18436706244E+03  0.00000000000E+00 0. -1.
        -12    1    5    5    0    0 -0.49226147765E+02  0.19845623935E+02  0.66488576834E+03  0.66700086009E+03  0.00000000000E+00 0.  1.
          5    1    4    4  501    0 -0.20752788191E+02 -0.22133918946E+02  0.19354832289E+03  0.19595666429E+03  0.41800000000E+01 0.  1.
         -5    1    4    4    0  501  0.72468620002E+02  0.87291345828E+02  0.34867648519E+03  0.36669366461E+03  0.41800000000E+01 0.  1.
</event>
<event>
11    1  0.1078607E-008  0.2301681E+03  0.7561462E-02  0.1035028E+00
         22   -1    0    0    0    0  0.00000000000E+00  0.00000000000E+00  0.15845503067E+04  0.15845503067E+04  0.00000000000E+00 0. -1.
         22   -1    0    0    0    0 -0.00000000000E+00 -0.00000000000E+00 -0.35461676202E+03  0.35461676202E+03  0.00000000000E+00 0. -1.
         24    2    1    2    0    0 -0.92193819354E+02  0.35921841485E+02 -0.24075768966E+03  0.27255785729E+03  0.80829706290E+02 0.  0.
         25    2    1    2    0    0  0.25965214455E+03 -0.11398349485E+03  0.17851710329E+03  0.35766930245E+03  0.12508996952E+03 0.  0.
        -24    2    1    2    0    0 -0.16745832520E+03  0.78061653366E+02  0.12921741311E+04  0.13089399090E+04  0.97333385643E+02 0.  0.
        -11    1    3    3    0    0  0.97159179937E+01 -0.51070847151E+01 -0.42317275580E+01  0.11763880944E+02  0.00000000000E+00 0.  1.
         12    1    3    3    0    0 -0.10190973735E+03  0.41028926200E+02 -0.23652596210E+03  0.26079397635E+03  0.00000000000E+00 0. -1.
         11    1    5    5    0    0 -0.17653782569E+03  0.81993779669E+02  0.11444820615E+04  0.11609167813E+04  0.00000000000E+00 0. -1.
        -12    1    5    5    0    0  0.90795004901E+01 -0.39321263029E+01  0.14769206953E+03  0.14802312775E+03  0.00000000000E+00 0.  1.
          5    1    4    4  501    0  0.22458170768E+03 -0.11902085263E+03  0.10324734480E+03  0.27437272713E+03  0.41800000000E+01 0. -1.
         -5    1    4    4    0  501  0.35070436879E+02  0.50373577822E+01  0.75269758494E+02  0.83296575320E+02  0.41800000000E+01 0. -1.
</event>
<event>
11    1  0.1078607E-008  0.1761152E+03  0.7561462E-02  0.1072829E+00
         22   -1    0    0    0    0  0.00000000000E+00  0.00000000000E+00  0.16788109374E+04  0.16788109374E+04  0.00000000000E+00 0. -1.
         22   -1    0    0    0    0 -0.00000000000E+00 -0.00000000000E+00 -0.16066403115E+04  0.16066403115E+04  0.00000000000E+00 0.  1.
        -24    2    1    2    0    0 -0.12558405807E+03 -0.45078167025E+02 -0.13360391474E+04  0.13451561751E+04  0.81493161370E+02 0.  0.
         25    2    1    2    0    0  0.72006799843E+02  0.37144331623E+02 -0.24361014202E+03  0.28558578887E+03  0.12509460784E+03 0.  0.
         24    2    1    2    0    0  0.53577258224E+02  0.79338354023E+01  0.16518199153E+04  0.16547092850E+04  0.81365329480E+02 0.  0.
        -11    1    5    5    0    0  0.37886645590E+02 -0.34006361035E+02  0.10450247095E+04  0.10462640556E+04  0.00000000000E+00 0.  1.
         12    1    5    5    0    0  0.15690612634E+02  0.41940196437E+02  0.60679520578E+03  0.60844522938E+03  0.00000000000E+00 0. -1.
         13    1    3    3    0    0 -0.57839249600E+02  0.21102667700E+02 -0.54653032070E+03  0.54998735697E+03  0.00000000000E+00 0. -1.
        -14    1    3    3    0    0 -0.67744808467E+02 -0.66180834725E+02 -0.78950882667E+03  0.79516881814E+03  0.00000000000E+00 0.  1.
          5    1    4    4  501    0 -0.18821144890E+02  0.50591280188E+02 -0.11907415788E+03  0.13080458937E+03  0.41800000000E+01 0. -1.
         -5    1    4    4    0  501  0.90827944732E+02 -0.13446948566E+02 -0.12453598415E+03  0.15478119950E+03  0.41800000000E+01 0. -1.
</event>
<event>
11    1  0.1078607E-008  0.2013567E+03  0.7561462E-02  0.1053568E+00
         22   -1    0    0    0    0  0.00000000000E+00  0.00000000000E+00  0.11899874083E+03  0.11899874083E+03  0.00000000000E+00 0. -1.
         22   -1    0    0    0    0 -0.00000000000E+00 -0.00000000000E+00 -0.50751145427E+03  0.50751145427E+03  0.00000000000E+00 0. -1.
         24    2    1    2    0    0  0.12687903684E+03  0.95191624124E+02 -0.26481641861E+03  0.31872974719E+03  0.79379977880E+02 0.  0.
         25    2    1    2    0    0 -0.12956566327E+03 -0.86961768174E+02 -0.10276488017E+03  0.22485348762E+03  0.12509540389E+03 0.  0.
        -24    2    1    2    0    0  0.26866264360E+01 -0.82298559492E+01 -0.20931414666E+02  0.82926960282E+02  0.79773480125E+02 0.  0.
        -11    1    3    3    0    0  0.99956240618E+01  0.49790192588E+02 -0.93859138005E+02  0.10671697881E+03  0.00000000000E+00 0.  1.
         12    1    3    3    0    0  0.11688341278E+03  0.45401431536E+02 -0.17095728061E+03  0.21201276839E+03  0.00000000000E+00 0. -1.
         11    1    5    5    0    0 -0.24132906026E+02 -0.41481896881E+01 -0.41973832573E+02  0.48594312958E+02  0.00000000000E+00 0. -1.
        -12    1    5    5    0    0  0.26819532462E+02 -0.40816662611E+01  0.21042417907E+02  0.34332647325E+02  0.00000000000E+00 0.  1.
          5    1    4    4  501    0 -0.28769217168E+02  0.27442205400E+02  0.16426275574E+01  0.40011412359E+02  0.41800000000E+01 0. -1.
         -5    1    4    4    0  501 -0.10079644611E+03 -0.11440397357E+03 -0.10440750773E+03  0.18484207526E+03  0.41800000000E+01 0. -1.
</event>
<event>
11    1  0.1078607E-008  0.1899975E+03  0.7561462E-02  0.1061831E+00
         22   -1    0    0    0    0  0.00000000000E+00  0.00000000000E+00  0.10337908276E+03  0.10337908276E+03  0.00000000000E+00 0.  1.
         22   -1    0    0    0    0 -0.00000000000E+00 -0.00000000000E+00 -0.19936815940E+04  0.19936815940E+04  0.00000000000E+00 0. -1.
         24    2    1    2    0    0 -0.95386737866E+02  0.11515535267E+03 -0.17861570912E+04  0.17943100334E+04  0.82655649990E+02 0.  0.
         25    2    1    2    0    0  0.25540376302E+02 -0.84196371060E+02 -0.11367463256E+03  0.19055320101E+03  0.12508901074E+03 0.  0.
        -24    2    1    2    0    0  0.69846361565E+02 -0.30958981614E+02  0.95292125279E+01  0.11219744236E+03  0.81611809277E+02 0.  0.
        -13    1    3    3    0    0 -0.18021017706E+02 -0.15455481778E+00 -0.56433015468E+03  0.56461783930E+03  0.00000000000E+00 0.  1.
         14    1    3    3    0    0 -0.77365720161E+02  0.11530990749E+03 -0.12218269365E+04  0.12296921941E+04  0.00000000000E+00 0. -1.
         13    1    5    5    0    0 -0.59041693774E+01 -0.38539518712E+01 -0.24016543938E+02  0.25030112741E+02  0.00000000000E+00 0. -1.
        -14    1    5    5    0    0  0.75750530942E+02 -0.27105029743E+02  0.33545756466E+02  0.87167329615E+02  0.00000000000E+00 0.  1.
          5    1    4    4  501    0 -0.55853218873E+01 -0.36862525070E+02  0.21982745929E+02  0.43482813774E+02  0.41800000000E+01 0. -1.
         -5    1    4    4    0  501  0.31125698189E+02 -0.47333845990E+02 -0.13565737849E+03  0.14707038724E+03  0.41800000000E+01 0. -1.
</event>
<event>
11    1  0.1078607E-008  0.1369504E+03  0.7561462E-02  0.1111012E+00
         22   -1    0    0    0    0  0.00000000000E+00  0.00000000000E+00  0.25895625600E+04  0.25895625600E+04  0.00000000000E+00 0. -1.
         22   -1    0    0    0    0 -0.00000000000E+00 -0.00000000000E+00 -0.35056325577E+03  0.35056325577E+03  0.00000000000E+00 0. -1.
         24    2    1    2    0    0  0.27012042731E+02  0.48724904170E+02 -0.33553148701E+03  0.34932895917E+03  0.79659125006E+02 0.  0.
         25    2    1    2    0    0 -0.33440799397E+02 -0.50296471010E+02  0.65549929879E+03  0.67005509845E+03  0.12508589919E+03 0.  0.
        -24    2    1    2    0    0  0.64287566654E+01  0.15715668400E+01  0.19190314925E+04  0.19207417582E+04  0.80766538938E+02 0.  0.
        -13    1    3    3    0    0 -0.21715604007E+02 -0.60467423232E+01 -0.10616503074E+03  0.10853176633E+03  0.00000000000E+00 0.  1.
         14    1    3    3    0    0  0.48727646738E+02  0.54771646493E+02 -0.22936645627E+03  0.24079719284E+03  0.00000000000E+00 0. -1.
         11    1    5    5    0    0  0.39887780959E+02 -0.14996191162E+02  0.11776257168E+04  0.11783964739E+04  0.00000000000E+00 0. -1.
        -12    1    5    5    0    0 -0.33459024294E+02  0.16567758002E+02  0.74140577567E+03  0.74234528429E+03  0.00000000000E+00 0.  1.
          5    1    4    4  501    0 -0.72999718712E+02 -0.11165096055E+01  0.28722079067E+03  0.29638397480E+03  0.41800000000E+01 0. -1.
         -5    1    4    4    0  501  0.39558919316E+02 -0.49179961404E+02  0.36827850813E+03  0.37367112365E+03  0.41800000000E+01 0. -1.
</event>
<event>
11    1  0.1078607E-008  0.5323704E+03  0.7561462E-02  0.9323962E-01
         22   -1    0    0    0    0  0.00000000000E+00  0.00000000000E+00  0.66036716262E+03  0.66036716262E+03  0.00000000000E+00 0. -1.
         22   -1    0    0    0    0 -0.00000000000E+00 -0.00000000000E+00 -0.11352683964E+04  0.11352683964E+04  0.00000000000E+00 0. -1.
        -24    2    1    2    0    0 -0.79042268390E+02  0.43903439827E+03 -0.41048095194E+03  0.61160811477E+03  0.81061649965E+02 0.  0.
         25    2    1    2    0    0 -0.46724418022E+03 -0.27298706212E+03 -0.20179385224E+03  0.59093717504E+03  0.12508767331E+03 0.  0.
         24    2    1    2    0    0  0.54628644861E+03 -0.16604733616E+03  0.13737357040E+03  0.59309026921E+03  0.82969680061E+02 0.  0.
        -11    1    5    5    0    0  0.14134232469E+02  0.37022916875E+01 -0.69442315269E+01  0.16177324956E+02  0.00000000000E+00 0.  1.
         12    1    5    5    0    0  0.53215221614E+03 -0.16974962784E+03  0.14431780192E+03  0.57691294426E+03  0.00000000000E+00 0. -1.
         11    1    3    3    0    0 -0.81140002777E+02  0.24644527972E+03 -0.21219147777E+03  0.33517786202E+03  0.00000000000E+00 0. -1.
        -12    1    3    3    0    0  0.20977343866E+01  0.19258911855E+03 -0.19828947417E+03  0.27643025276E+03  0.00000000000E+00 0.  1.
          5    1    4    4  501    0 -0.41793235373E+03 -0.22218196544E+03 -0.13192779705E+03  0.49138039653E+03  0.41800000000E+01 0.  1.
         -5    1    4    4    0  501 -0.49311826491E+02 -0.50805096680E+02 -0.69866055186E+02  0.99556778513E+02  0.41800000000E+01 0.  1.
</event>
<event>
11    1  0.1078607E-008  0.1876992E+03  0.7561462E-02  0.1063580E+00
         22   -1    0    0    0    0  0.00000000000E+00  0.00000000000E+00  0.16386585333E+03  0.16386585333E+03  0.00000000000E+00 0.  1.
         22   -1    0    0    0    0 -0.00000000000E+00 -0.00000000000E+00 -0.33281385363E+04  0.33281385363E+04  0.00000000000E+00 0. -1.
        -24    2    1    2    0    0  0.13351990713E+03  0.75321443914E+02 -0.24434421502E+04  0.24497691085E+04  0.86361205976E+02 0.  0.
         25    2    1    2    0    0 -0.47407364378E+02 -0.11300273924E+03 -0.84768192703E+03  0.86558200040E+03  0.12510184945E+03 0.  0.
         24    2    1    2    0    0 -0.86112542751E+02  0.37681295330E+02  0.12685139425E+03  0.17665328077E+03  0.79245538337E+02 0.  0.
        -13    1    5    5    0    0 -0.53836009718E+02  0.53052737801E+02  0.46588029524E+02  0.88788250492E+02  0.00000000000E+00 0.  1.
         14    1    5    5    0    0 -0.32276533033E+02 -0.15371442472E+02  0.80263364726E+02  0.87865030276E+02  0.00000000000E+00 0. -1.
         13    1    3    3    0    0  0.32903247124E+02  0.55301329104E+02 -0.13475697121E+04  0.13491052553E+04  0.00000000000E+00 0. -1.
        -14    1    3    3    0    0  0.10061666000E+03  0.20020114809E+02 -0.10958724381E+04  0.11006638532E+04  0.00000000000E+00 0.  1.
          5    1    4    4  501    0  0.13909741297E+02  0.21817116269E+02 -0.15852983129E+03  0.16068181999E+03  0.41800000000E+01 0.  1.
         -5    1    4    4    0  501 -0.61317105675E+02 -0.13481985551E+03 -0.68915209574E+03  0.70490018042E+03  0.41800000000E+01 0.  1.
</event>
<event>
11    1  0.1078607E-008  0.1720753E+03  0.7561462E-02  0.1076240E+00
         22   -1    0    0    0    0  0.00000000000E+00  0.00000000000E+00  0.82282768404E+03  0.82282768404E+03  0.00000000000E+00 0.  1.
         22   -1    0    0    0    0 -0.00000000000E+00 -0.00000000000E+00 -0.55220583589E+03  0.55220583589E+03  0.00000000000E+00 0. -1.
         24    2    1    2    0    0 -0.57722308738E+02 -0.95693131718E+02 -0.42381746007E+03  0.44556912660E+03  0.80134678721E+02 0.  0.
         25    2    1    2    0    0  0.51960697069E+02  0.18788142963E+03  0.76957968362E+01  0.23174625254E+03  0.12509098543E+03 0.  0.
        -24    2    1    2    0    0  0.57616116684E+01 -0.92188297915E+02  0.68674351140E+03  0.69771814079E+03  0.81621535790E+02 0.  0.
        -11    1    3    3    0    0 -0.12316266574E+02  0.84953282755E+01 -0.14762384773E+02  0.21018778009E+02  0.00000000000E+00 0.  1.
         12    1    3    3    0    0 -0.45406042164E+02 -0.10418845999E+03 -0.40905507530E+03  0.42455034859E+03  0.00000000000E+00 0. -1.
         11    1    5    5    0    0  0.36092626401E+02 -0.17451510216E+02  0.16644912615E+03  0.17120906660E+03  0.00000000000E+00 0. -1.
        -12    1    5    5    0    0 -0.30331014732E+02 -0.74736787699E+02  0.52029438524E+03  0.52650907419E+03  0.00000000000E+00 0.  1.
          5    1    4    4  501    0 -0.15558227015E+02  0.13595174641E+02 -0.34181603394E+02  0.40158954318E+02  0.41800000000E+01 0. -1.
         -5    1    4    4    0  501  0.67518924084E+02  0.17428625499E+03  0.41877400230E+02  0.19158729822E+03  0.41800000000E+01 0. -1.
</event>
<event>
11    1  0.1078607E-008  0.1604430E+03  0.7561462E-02  0.1086661E+00
         22   -1    0    0    0    0  0.00000000000E+00  0.00000000000E+00  0.21959108636E+03  0.21959108636E+03  0.00000000000E+00 0.  1.
         22   -1    0    0    0    0 -0.00000000000E+00 -0.00000000000E+00 -0.55471188148E+03  0.55471188148E+03  0.00000000000E+00 0.  1.
         24    2    1    2    0    0  0.98752680633E+02  0.14570133905E+02 -0.43510035013E+03  0.45388688018E+03  0.82076821270E+02 0.  0.
         25    2    1    2    0    0 -0.11409848259E+03  0.57988036855E+02  0.67027092456E+01  0.17908947807E+03  0.12508812373E+03 0.  0.
        -24    2    1    2    0    0  0.15345801954E+02 -0.72558170760E+02  0.93276845763E+02  0.14132660959E+03  0.75976699329E+02 0.  0.
        -13    1    3    3    0    0  0.29709623356E+02 -0.12796112585E+02 -0.28064751791E+03  0.28250563096E+03  0.00000000000E+00 0.  1.
         14    1    3    3    0    0  0.69043057277E+02  0.27366246489E+02 -0.15445283222E+03  0.17138124923E+03  0.00000000000E+00 0. -1.
         11    1    5    5    0    0 -0.25269347581E+02 -0.78088007600E+01  0.40763288602E+02  0.48591799659E+02  0.00000000000E+00 0. -1.
        -12    1    5    5    0    0  0.40615149535E+02 -0.64749370000E+02  0.52513557161E+02  0.92734809930E+02  0.00000000000E+00 0.  1.
          5    1    4    4  501    0 -0.46361197053E+02  0.25069151778E+02  0.64979142217E+02  0.83771022951E+02  0.41800000000E+01 0.  1.
         -5    1    4    4    0  501 -0.67737285534E+02  0.32918885078E+02 -0.58276432972E+02  0.95318455118E+02  0.41800000000E+01 0.  1.
</event>
<event>
11    1  0.1078607E-008  0.1420923E+03  0.7561462E-02  0.1105244E+00
         22   -1    0    0    0    0  0.00000000000E+00  0.00000000000E+00  0.45070258170E+03  0.45070258170E+03  0.00000000000E+00 0.  1.
         22   -1    0    0    0    0 -0.00000000000E+00 -0.00000000000E+00 -0.37820785799E+03  0.37820785799E+03  0.00000000000E+00 0.  1.
         24    2    1    2    0    0 -0.29899821590E+02  0.16508451401E+02 -0.33705656777E+03  0.34849599132E+03  0.81705555463E+02 0.  0.
         25    2    1    2    0    0 -0.14942305823E+02  0.47329399581E+02  0.17440780394E+03  0.22029252000E+03  0.12508943890E+03 0.  0.
        -24    2    1    2    0    0  0.44842127413E+02 -0.63837850982E+02  0.23514348753E+03  0.26012192837E+03  0.79277173780E+02 0.  0.
        -13    1    3    3    0    0 -0.39862901332E+02 -0.34838294156E+01 -0.31345968494E+03  0.31600342095E+03  0.00000000000E+00 0.  1.
         14    1    3    3    0    0  0.99630797421E+01  0.19992280816E+02 -0.23596882830E+02  0.32492570373E+02  0.00000000000E+00 0. -1.
         13    1    5    5    0    0 -0.22867640882E+02 -0.17317034517E+02  0.70783215854E+02  0.76374552899E+02  0.00000000000E+00 0. -1.
        -14    1    5    5    0    0  0.67709768295E+02 -0.46520816465E+02  0.16436027168E+03  0.18374737547E+03  0.00000000000E+00 0.  1.
          5    1    4    4  501    0 -0.70025570357E+01 -0.24547121687E+02 -0.54168536293E+01  0.26427479853E+02  0.41800000000E+01 0. -1.
         -5    1    4    4    0  501 -0.79397487874E+01  0.71876521267E+02  0.17982465757E+03  0.19386504015E+03  0.41800000000E+01 0. -1.
</event>
<event>
11    1  0.1078607E-008  0.2153814E+03  0.7561462E-02  0.1044150E+00
         22   -1    0    0    0    0  0.00000000000E+00  0.00000000000E+00  0.76432957472E+03  0.76432957472E+03  0.00000000000E+00 0. -1.
         22   -1    0    0    0    0 -0.00000000000E+00 -0.00000000000E+00 -0.35761539594E+03  0.35761539594E+03  0.00000000000E+00 0. -1.
        -24    2    1    2    0    0 -0.10114917852E+03 -0.38135073973E+02 -0.25038000319E+03  0.28424207118E+03  0.80112226580E+02 0.  0.
         25    2    1    2    0    0  0.79175612829E+02 -0.14418055361E+03  0.71006248237E+02  0.21849128164E+03  0.12505895873E+03 0.  0.
         24    2    1    2    0    0  0.21973565691E+02  0.18231562759E+03  0.58608793374E+03  0.61921161784E+03  0.78753640831E+02 0.  0.
        -11    1    5    5    0    0 -0.10928704238E+02  0.12730814385E+03  0.30083914508E+03  0.32685010521E+03  0.00000000000E+00 0.  1.
         12    1    5    5    0    0  0.32902269929E+02  0.55007483737E+02  0.28524878866E+03  0.29236151263E+03  0.00000000000E+00 0. -1.
         13    1    3    3    0    0 -0.90652139167E+02  0.32768237308E+01 -0.15240603393E+03  0.17735880888E+03  0.00000000000E+00 0. -1.
        -14    1    3    3    0    0 -0.10497039353E+02 -0.41411897704E+02 -0.97973969261E+02  0.10688326230E+03  0.00000000000E+00 0.  1.
          5    1    4    4  501    0  0.56285141533E+02 -0.80402035478E+02 -0.24566463624E+02  0.10125950820E+03  0.41800000000E+01 0.  1.
         -5    1    4    4    0  501  0.22890471296E+02 -0.63778518136E+02  0.95572711861E+02  0.11723177344E+03  0.41800000000E+01 0.  1.
</event>
<event>
11    1  0.1078607E-008  0.1392983E+03  0.7561462E-02  0.1108345E+00
         22   -1    0    0    0    0  0.00000000000E+00  0.00000000000E+00  0.10065071357E+03  0.10065071357E+03  0.00000000000E+00 0.  1.
         22   -1    0    0    0    0 -0.00000000000E+00 -0.00000000000E+00 -0.91280228740E+03  0.91280228740E+03  0.00000000000E+00 0.  1.
         24    2    1    2    0    0  0.19720806944E+02  0.35606533513E+02 -0.46004514876E+03  0.47022406139E+03  0.88387745543E+02 0.  0.
         25    2    1    2    0    0  0.35220306745E+02 -0.62909994416E+02 -0.39904123662E+03  0.42435744127E+03  0.12508873662E+03 0.  0.
        -24    2    1    2    0    0 -0.54941113689E+02  0.27303460902E+02  0.46934811549E+02  0.11887149831E+03  0.90352374764E+02 0.  0.
        -13    1    3    3    0    0  0.19526052535E-01  0.18896564207E+02 -0.43075496727E+03  0.43116925024E+03  0.00000000000E+00 0.  1.
         14    1    3    3    0    0  0.19701280891E+02  0.16709969307E+02 -0.29290181484E+02  0.39054811155E+02  0.00000000000E+00 0. -1.
         13    1    5    5    0    0 -0.69094672442E+02  0.42065046187E+02  0.17066603997E+02  0.82672914807E+02  0.00000000000E+00 0. -1.
        -14    1    5    5    0    0  0.14153558753E+02 -0.14761585285E+02  0.29868207552E+02  0.36198583507E+02  0.00000000000E+00 0.  1.
          5    1    4    4  501    0  0.54820064075E+02  0.18638064787E+02 -0.20180615194E+03  0.20999002892E+03  0.41800000000E+01 0. -1.
         -5    1    4    4    0  501 -0.19599757329E+02 -0.81548059203E+02 -0.19723508468E+03  0.21436741235E+03  0.41800000000E+01 0. -1.
</event>
<event>
11    1  0.1078607E-008  0.1412611E+03  0.7561462E-02  0.1106158E+00
         22   -1    0    0    0    0  0.00000000000E+00  0.00000000000E+00  0.17149689147E+03  0.17149689147E+03  0.00000000000E+00 0.  1.
         22   -1    0    0    0    0 -0.00000000000E+00 -0.00000000000E+00 -0.46354831124E+03  0.46354831124E+03  0.00000000000E+00 0. -1.
         24    2    1    2    0    0 -0.57567701648E+02 -0.24042441657E+02 -0.29315164934E+03  0.31054002147E+03  0.81271988710E+02 0.  0.
         25    2    1    2    0    0  0.71170196661E+02  0.35895078521E+02 -0.11039291633E+03  0.18489732208E+03  0.12508705042E+03 0.  0.
        -24    2    1    2    0    0 -0.13602495013E+02 -0.11852636864E+02  0.11149314590E+03  0.13960785916E+03  0.82061683419E+02 0.  0.
        -11    1    3    3    0    0 -0.54499809049E+01 -0.45481444183E+01  0.40511061828E+01  0.81730882057E+01  0.00000000000E+00 0.  1.
         12    1    3    3    0    0 -0.52117720743E+02 -0.19494297239E+02 -0.29720275552E+03  0.30236693326E+03  0.00000000000E+00 0. -1.
         11    1    5    5    0    0  0.28234378146E+02 -0.25724765453E+02  0.66058808515E+02  0.76306682862E+02  0.00000000000E+00 0. -1.
        -12    1    5    5    0    0 -0.41836873159E+02  0.13872128589E+02  0.45434337389E+02  0.63301176302E+02  0.00000000000E+00 0.  1.
          5    1    4    4  501    0  0.44278864548E+02  0.49821144221E+02  0.35945533199E+01  0.66881667673E+02  0.41800000000E+01 0. -1.
         -5    1    4    4    0  501  0.26891332113E+02 -0.13926065700E+02 -0.11398746965E+03  0.11801565441E+03  0.41800000000E+01 0. -1.
</event>
<event>
11    1  0.1078607E-008  0.1518138E+03  0.7561462E-02  0.1095040E+00
         22   -1    0    0    0    0  0.00000000000E+00  0.00000000000E+00  0.52391323919E+03  0.52391323919E+03  0.00000000000E+00 0. -1.
         22   -1    0    0    0    0 -0.00000000000E+00 -0.00000000000E+00 -0.11167669214E+04  0.11167669214E+04  0.00000000000E+00 0. -1.
        -24    2    1    2    0    0  0.58011673379E+02  0.63325709533E+02 -0.10807151618E+04  0.10871136109E+04  0.80593065206E+02 0.  0.
         25    2    1    2    0    0 -0.99255860722E+02 -0.45490054085E+02  0.30131373675E+03  0.34403195306E+03  0.12508775264E+03 0.  0.
         24    2    1    2    0    0  0.41244187343E+02 -0.17835655447E+02  0.18654774288E+03  0.20953459667E+03  0.84175371884E+02 0.  0.
        -11    1    5    5    0    0  0.31057274642E+02 -0.17762314412E+02  0.16877612919E+02  0.39558917317E+02  0.00000000000E+00 0.  1.
         12    1    5    5    0    0  0.10186912701E+02 -0.73341035501E-01  0.16967012996E+03  0.16997567935E+03  0.00000000000E+00 0. -1.
         11    1    3    3    0    0  0.23585738458E+01 -0.75724972296E+01 -0.44191077437E+03  0.44198194317E+03  0.00000000000E+00 0. -1.
        -12    1    3    3    0    0  0.55653099533E+02  0.70898206762E+02 -0.63880438748E+03  0.64513166770E+03  0.00000000000E+00 0.  1.
          5    1    4    4  501    0 -0.10007084748E+02  0.37949389487E+02  0.11128218230E+03  0.11807410557E+03  0.41800000000E+01 0.  1.
         -5    1    4    4    0  501 -0.89248775974E+02 -0.83439443572E+02  0.19003155445E+03  0.22595784749E+03  0.41800000000E+01 0.  1.
</event>
<event>
11    1  0.1078607E-008  0.1678491E+03  0.7561462E-02  0.1079919E+00
         22   -1    0    0    0    0  0.00000000000E+00  0.00000000000E+00  0.38433092730E+03  0.38433092730E+03  0.00000000000E+00 0.  1.
         22   -1    0    0    0    0 -0.00000000000E+00 -0.00000000000E+00 -0.65455780492E+03  0.65455780492E+03  0.00000000000E+00 0.  1.
        -24    2    1    2    0    0  0.11308000156E+03 -0.12109483106E+02 -0.60193622090E+03  0.61784062035E+03  0.80412012703E+02 0.  0.
         25    2    1    2    0    0 -0.78430261721E+02 -0.10173782982E+02  0.11893117224E+03  0.18985584363E+03  0.12508319557E+03 0.  0.
         24    2    1    2    0    0 -0.34649739843E+02  0.22283266088E+02  0.21277817103E+03  0.23119226824E+03  0.80487057384E+02 0.  0.
        -13    1    5    5    0    0 -0.26385433282E+01 -0.14175894594E+02  0.15532776861E+03  0.15599562045E+03  0.00000000000E+00 0.  1.
         14    1    5    5    0    0 -0.32011196515E+02  0.36459160682E+02  0.57450402424E+02  0.75196647789E+02  0.00000000000E+00 0. -1.
         13    1    3    3    0    0  0.39770553353E+02 -0.38352324080E+02 -0.16456035922E+03  0.17358775735E+03  0.00000000000E+00 0. -1.
        -14    1    3    3    0    0  0.73309448211E+02  0.26242840974E+02 -0.43737586168E+03  0.44425286300E+03  0.00000000000E+00 0.  1.
          5    1    4    4  501    0 -0.60728922049E+02 -0.64381249585E+02  0.87870787591E+02  0.12478659777E+03  0.41800000000E+01 0. -1.
         -5    1    4    4    0  501 -0.17701339672E+02  0.54207466603E+02  0.31060384653E+02  0.65069245857E+02  0.41800000000E+01 0. -1.
</event>
<event>
11    1  0.1078607E-008  0.1896658E+03  0.7561462E-02  0.1062082E+00
         22   -1    0    0    0    0  0.00000000000E+00  0.00000000000E+00  0.64499605489E+03  0.64499605489E+03  0.00000000000E+00 0.  1.
         22   -1    0    0    0    0 -0.00000000000E+00 -0.00000000000E+00 -0.93577828814E+03  0.93577828814E+03  0.00000000000E+00 0. -1.
         24    2    1    2    0    0 -0.51143906310E+02  0.13845698957E+02 -0.83079470951E+03  0.83768977099E+03  0.93257174278E+02 0.  0.
         25    2    1    2    0    0  0.16588520725E+03 -0.87328111875E+02  0.53998175360E+02  0.23174741203E+03  0.12508780489E+03 0.  0.
        -24    2    1    2    0    0 -0.11474130094E+03  0.73482412918E+02  0.48601430090E+03  0.51133716000E+03  0.81795839568E+02 0.  0.
        -11    1    3    3    0    0 -0.42282944057E+02 -0.11671520230E+02 -0.14806129435E+03  0.15442220898E+03  0.00000000000E+00 0.  1.
         12    1    3    3    0    0 -0.88609622530E+01  0.25517219187E+02 -0.68273341516E+03  0.68326756201E+03  0.00000000000E+00 0. -1.
         11    1    5    5    0    0 -0.10009957850E+03  0.42314665887E+02  0.24694396925E+03  0.26979951911E+03  0.00000000000E+00 0. -1.
        -12    1    5    5    0    0 -0.14641722441E+02  0.31167747031E+02  0.23907033165E+03  0.24153764089E+03  0.00000000000E+00 0.  1.
          5    1    4    4  501    0  0.22778124110E+02 -0.72964395001E+02  0.42112811992E+02  0.87370516822E+02  0.41800000000E+01 0. -1.
         -5    1    4    4    0  501  0.14310708314E+03 -0.14363716875E+02  0.11885363368E+02  0.14437689521E+03  0.41800000000E+01 0. -1.
</event>
<event>
11    1  0.1078607E-008  0.1329266E+03  0.7561462E-02  0.1115725E+00
         22   -1    0    0    0    0  0.00000000000E+00  0.00000000000E+00  0.73637928066E+03  0.73637928066E+03  0.00000000000E+00 0. -1.
         22   -1    0    0    0    0 -0.00000000000E+00 -0.00000000000E+00 -0.69983797825E+03  0.69983797825E+03  0.00000000000E+00 0. -1.
         24    2    1    2    0    0  0.52490239899E+02  0.15670767787E+02 -0.62752497442E+03  0.63494153176E+03  0.79764384175E+02 0.  0.
         25    2    1    2    0    0 -0.44232992298E+02  0.29953554756E+02  0.73028707073E+01  0.13621575883E+03  0.12509047918E+03 0.  0.
        -24    2    1    2    0    0 -0.82572476018E+01 -0.45624322543E+02  0.65676340612E+03  0.66505996833E+03  0.93897970772E+02 0.  0.
        -13    1    3    3    0    0  0.15492717762E+02  0.16412660681E+02 -0.37577091649E+02  0.43834205263E+02  0.00000000000E+00 0.  1.
         14    1    3    3    0    0  0.36997522137E+02 -0.74189289432E+00 -0.58994788277E+03  0.59110732649E+03  0.00000000000E+00 0. -1.
         13    1    5    5    0    0  0.30192752070E+02  0.96036589418E-01  0.41226893410E+03  0.41337305854E+03  0.00000000000E+00 0. -1.
        -14    1    5    5    0    0 -0.38449999672E+02 -0.45720359133E+02  0.24449447202E+03  0.25168690979E+03  0.00000000000E+00 0.  1.
          5    1    4    4  501    0  0.15578764812E+02 -0.40093353686E+02  0.83037463954E+01  0.44006812280E+02  0.41800000000E+01 0. -1.
         -5    1    4    4    0  501 -0.59811757110E+02  0.70046908443E+02 -0.10008756881E+01  0.92208946546E+02  0.41800000000E+01 0. -1.
</event>
<event>
11    1  0.1078607E-008  0.1361585E+03  0.7561462E-02  0.1111926E+00
         22   -1    0    0    0    0  0.00000000000E+00  0.00000000000E+00  0.37100545471E+03  0.37100545471E+03  0.00000000000E+00 0. -1.
         22   -1    0    0    0    0 -0.00000000000E+00 -0.00000000000E+00 -0.32353181736E+03  0.32353181736E+03  0.00000000000E+00 0.  1.
         24    2    1    2    0    0  0.53442231586E+02 -0.73008974596E+01 -0.21838069638E+03  0.24137885439E+03  0.87545688497E+02 0.  0.
         25    2    1    2    0    0 -0.53736611471E+02 -0.40489052862E+01 -0.35850752166E+02  0.14085103813E+03  0.12509884678E+03 0.  0.
        -24    2    1    2    0    0  0.29437988519E+00  0.11349802746E+02  0.30170508589E+03  0.31230737954E+03  0.79881385707E+02 0.  0.
        -11    1    3    3    0    0  0.32830046118E+02 -0.41556187957E+02 -0.17287986680E+03  0.18080978135E+03  0.00000000000E+00 0.  1.
         12    1    3    3    0    0  0.20612185467E+02  0.34255290497E+02 -0.45500829579E+02  0.60569073042E+02  0.00000000000E+00 0. -1.
         13    1    5    5    0    0  0.22313110810E+02  0.17676895197E+02  0.27758660294E+03  0.27904241554E+03  0.00000000000E+00 0. -1.
        -14    1    5    5    0    0 -0.22018730925E+02 -0.63270924507E+01  0.24118482955E+02  0.33264964008E+02  0.00000000000E+00 0.  1.
          5    1    4    4  501    0 -0.86120155625E+02  0.45336783472E+01 -0.54675215982E+02  0.10219631641E+03  0.41800000000E+01 0. -1.
         -5    1    4    4    0  501  0.32383544154E+02 -0.85825836334E+01  0.18824463815E+02  0.38654721726E+02  0.41800000000E+01 0. -1.
</event>
<event>
11    1  0.1078607E-008  0.1319759E+03  0.7561462E-02  0.1116865E+00
         22   -1    0    0    0    0  0.00000000000E+00  0.00000000000E+00  0.16500909712E+03  0.16500909712E+03  0.00000000000E+00 0. -1.
         22   -1    0    0    0    0 -0.00000000000E+00 -0.00000000000E+00 -0.72599309856E+03  0.72599309856E+03  0.00000000000E+00 0. -1.
         24    2    1    2    0    0  0.20566953084E+02  0.53881063591E+02 -0.27453710944E+03  0.29205106089E+03  0.81222097591E+02 0.  0.
         25    2    1    2    0    0 -0.53300710218E+02 -0.76832329223E+02 -0.40903803323E+03  0.43783920625E+03  0.12508751088E+03 0.  0.
        -24    2    1    2    0    0  0.32733757135E+02  0.22951265632E+02  0.12259114124E+03  0.16111192854E+03  0.96592992271E+02 0.  0.
        -13    1    3    3    0    0  0.72543421647E+00 -0.19759849406E+02 -0.94146046672E+02  0.96200083199E+02  0.00000000000E+00 0.  1.
         14    1    3    3    0    0  0.19841518867E+02  0.73640912997E+02 -0.18039106276E+03  0.19585097769E+03  0.00000000000E+00 0. -1.
         11    1    5    5    0    0  0.61324126474E+02  0.38086452009E+02  0.84315162839E+02  0.11099672517E+03  0.00000000000E+00 0. -1.
        -12    1    5    5    0    0 -0.28590369339E+02 -0.15135186377E+02  0.38275978401E+02  0.50115203363E+02  0.00000000000E+00 0.  1.
          5    1    4    4  501    0 -0.57105328873E+02 -0.11355249226E+01 -0.29724041143E+03  0.30270718952E+03  0.41800000000E+01 0. -1.
         -5    1    4    4    0  501  0.38046186543E+01 -0.75696804301E+02 -0.11179762181E+03  0.13513201673E+03  0.41800000000E+01 0. -1.
</event>
<event>
11    1  0.1078607E-008  0.1275009E+03  0.7561462E-02  0.1122378E+00
         22   -1    0    0    0    0  0.00000000000E+00  0.00000000000E+00  0.94536662825E+03  0.94536662825E+03  0.00000000000E+00 0.  1.
         22   -1    0    0    0    0 -0.00000000000E+00 -0.00000000000E+00 -0.13322990208E+03  0.13322990208E+03  0.00000000000E+00 0. -1.
        -24    2    1    2    0    0 -0.26770813916E+02  0.89737262893E+01 -0.73016409666E+02  0.11309688167E+03  0.81622939924E+02 0.  0.
         25    2    1    2    0    0  0.10955815450E+02  0.19712649887E+02  0.68659767638E+02  0.14446694574E+03  0.12509163146E+03 0.  0.
         24    2    1    2    0    0  0.15814998465E+02 -0.28686376176E+02  0.81649336820E+03  0.82103270293E+03  0.79751216955E+02 0.  0.
        -11    1    5    5    0    0 -0.16333432769E+02 -0.32502639549E+02  0.67080985856E+03  0.67179540706E+03  0.00000000000E+00 0.  1.
         12    1    5    5    0    0  0.32148431234E+02  0.38162633735E+01  0.14568350964E+03  0.14923729587E+03  0.00000000000E+00 0. -1.
         11    1    3    3    0    0 -0.44350377331E+02 -0.52774265666E+01 -0.78038781101E+02  0.89915841520E+02  0.00000000000E+00 0. -1.
        -12    1    3    3    0    0  0.17579563415E+02  0.14251152856E+02  0.50223714353E+01  0.23181040150E+02  0.00000000000E+00 0.  1.
          5    1    4    4  501    0 -0.69143434078E+01  0.21356686257E+02 -0.33564596258E+02  0.40595205562E+02  0.41800000000E+01 0. -1.
         -5    1    4    4    0  501  0.17870158858E+02 -0.16440363699E+01  0.10222436390E+03  0.10387174018E+03  0.41800000000E+01 0. -1.
</event>
<event>
11    1  0.1078607E-008  0.4564020E+03  0.7561462E-02  0.9496593E-01
         22   -1    0    0    0    0  0.00000000000E+00  0.00000000000E+00  0.25551527714E+04  0.25551527714E+04  0.00000000000E+00 0. -1.
         22   -1    0    0    0    0 -0.00000000000E+00 -0.00000000000E+00 -0.22393135129E+03  0.22393135129E+03  0.00000000000E+00 0. -1.
        -24    2    1    2    0    0 -0.19366049423E+03 -0.38977911283E+03  0.93540204945E+02  0.45238027086E+03  0.80411415257E+02 0.  0.
         25    2    1    2    0    0  0.17874456139E+03  0.42110974691E+03  0.12809945823E+04  0.13659712074E+04  0.12508869786E+03 0.  0.
         24    2    1    2    0    0  0.14915932837E+02 -0.31330634080E+02  0.95668663283E+03  0.96073264442E+03  0.80955586166E+02 0.  0.
        -11    1    5    5    0    0  0.66089037606E+01 -0.50140301226E+02  0.34367175084E+03  0.34737299800E+03  0.00000000000E+00 0.  1.
         12    1    5    5    0    0  0.83070290765E+01  0.18809667146E+02  0.61301488199E+03  0.61335964641E+03  0.00000000000E+00 0. -1.
         11    1    3    3    0    0 -0.18167931114E+03 -0.33895025485E+03  0.10555560311E+03  0.39879397276E+03  0.00000000000E+00 0. -1.
        -12    1    3    3    0    0 -0.11981183090E+02 -0.50828857977E+02 -0.12015398169E+02  0.53586298106E+02  0.00000000000E+00 0.  1.
          5    1    4    4  501    0  0.66385352914E+02  0.25453740202E+03  0.86234750224E+03  0.90158582017E+03  0.41800000000E+01 0. -1.
         -5    1    4    4    0  501  0.11235920848E+03  0.16657234489E+03  0.41864708009E+03  0.46438538724E+03  0.41800000000E+01 0. -1.
</event>
<event>
11    1  0.1078607E-008  0.1557868E+03  0.7561462E-02  0.1091108E+00
         22   -1    0    0    0    0  0.00000000000E+00  0.00000000000E+00  0.63688060424E+03  0.63688060424E+03  0.00000000000E+00 0.  1.
         22   -1    0    0    0    0 -0.00000000000E+00 -0.00000000000E+00 -0.21649616801E+03  0.21649616801E+03  0.00000000000E+00 0.  1.
        -24    2    1    2    0    0 -0.82910553659E+02 -0.43103102392E+02 -0.16638571459E+03  0.20487538157E+03  0.74549839769E+02 0.  0.
         25    2    1    2    0    0  0.87900005959E+02  0.16602371325E+02  0.19969872758E+03  0.25204968402E+03  0.12508961442E+03 0.  0.
         24    2    1    2    0    0 -0.49894523009E+01  0.26500731067E+02  0.38707142324E+03  0.39645170666E+03  0.81378655948E+02 0.  0.
        -11    1    5    5    0    0  0.12610837873E+02  0.39320694403E+02  0.35669507856E+03  0.35907733054E+03  0.00000000000E+00 0.  1.
         12    1    5    5    0    0 -0.17600290174E+02 -0.12819963336E+02  0.30376344679E+02  0.37374376118E+02  0.00000000000E+00 0. -1.
         13    1    3    3    0    0 -0.24993862387E+02  0.21243536486E+02 -0.50624768543E+02  0.60322866224E+02  0.00000000000E+00 0. -1.
        -14    1    3    3    0    0 -0.57916691271E+02 -0.64346638878E+02 -0.11576094605E+03  0.14455251535E+03  0.00000000000E+00 0.  1.
          5    1    4    4  501    0  0.70035470707E+02  0.53844027762E+02  0.61426133350E+02  0.10767910076E+03  0.41800000000E+01 0. -1.
         -5    1    4    4    0  501  0.17864535252E+02 -0.37241656437E+02  0.13827259423E+03  0.14437058326E+03  0.41800000000E+01 0. -1.
</event>
<event>
11    1  0.1078607E-008  0.1716175E+03  0.7561462E-02  0.1076633E+00
         22   -1    0    0    0    0  0.00000000000E+00  0.00000000000E+00  0.13627782346E+04  0.13627782346E+04  0.00000000000E+00 0.  1.
         22   -1    0    0    0    0 -0.00000000000E+00 -0.00000000000E+00 -0.93566153432E+03  0.93566153432E+03  0.00000000000E+00 0. -1.
        -24    2    1    2    0    0 -0.75472814443E+02 -0.90937266956E+02 -0.89791971255E+03  0.90928142201E+03  0.81038027989E+02 0.  0.
         25    2    1    2    0    0  0.41565099190E+02  0.86241335070E+02  0.17351677816E+03  0.23435257731E+03  0.12509129803E+03 0.  0.
         24    2    1    2    0    0  0.33907715253E+02  0.46959318858E+01  0.11515196346E+04  0.11548057696E+04  0.80044434676E+02 0.  0.
        -11    1    5    5    0    0 -0.62788983711E+01 -0.19984749144E+02  0.78307914806E+03  0.78335928340E+03  0.00000000000E+00 0.  1.
         12    1    5    5    0    0  0.40186613624E+02  0.24680681030E+02  0.36844048658E+03  0.37144648616E+03  0.00000000000E+00 0. -1.
         13    1    3    3    0    0 -0.48502513691E+02 -0.18770678487E+02 -0.57289247608E+03  0.57524831278E+03  0.00000000000E+00 0. -1.
        -14    1    3    3    0    0 -0.26970300751E+02 -0.72166588469E+02 -0.32502723648E+03  0.33403310924E+03  0.00000000000E+00 0.  1.
          5    1    4    4  501    0  0.29395166894E+02  0.76595079133E+02  0.26293740527E+02  0.86253783540E+02  0.41800000000E+01 0.  1.
         -5    1    4    4    0  501  0.12169932296E+02  0.96462559374E+01  0.14722303763E+03  0.14809879377E+03  0.41800000000E+01 0.  1.
</event>
<event>
11    1  0.1078607E-008  0.1300758E+03  0.7561462E-02  0.1119176E+00
         22   -1    0    0    0    0  0.00000000000E+00  0.00000000000E+00  0.10082881474E+03  0.10082881474E+03  0.00000000000E+00 0.  1.
         22   -1    0    0    0    0 -0.00000000000E+00 -0.00000000000E+00 -0.13797759206E+04  0.13797759206E+04  0.00000000000E+00 0. -1.
         24    2    1    2    0    0  0.40584294590E+02  0.11258081563E+02 -0.11864744654E+04  0.11888773700E+04  0.62720925300E+02 0.  0.
         25    2    1    2    0    0 -0.36208834077E+02  0.25940781805E+02 -0.13846261353E+03  0.19184656331E+03  0.12509678127E+03 0.  0.
        -24    2    1    2    0    0 -0.43754605130E+01 -0.37198863368E+02  0.45989973133E+02  0.99880801966E+02  0.80362907376E+02 0.  0.
        -11    1    3    3    0    0  0.18538262442E+02  0.32763166063E+02 -0.39126314519E+03  0.39306989329E+03  0.00000000000E+00 0.  1.
         12    1    3    3    0    0  0.22046032149E+02 -0.21505084500E+02 -0.79521132025E+03  0.79580747675E+03  0.00000000000E+00 0. -1.
         11    1    5    5    0    0 -0.26226792631E+02 -0.48708559985E+02  0.50348393592E+02  0.74801933163E+02  0.00000000000E+00 0. -1.
        -12    1    5    5    0    0  0.21851332118E+02  0.11509696617E+02 -0.43584204590E+01  0.25078868803E+02  0.00000000000E+00 0.  1.
          5    1    4    4  501    0 -0.68400767350E+02 -0.22958415917E+02 -0.60448945926E+02  0.94219431643E+02  0.41800000000E+01 0.  1.
         -5    1    4    4    0  501  0.32191933273E+02  0.48899197722E+02 -0.78013667602E+02  0.97627131672E+02  0.41800000000E+01 0.  1.
</event>
<event>
11    1  0.1078607E-008  0.1464588E+03  0.7561462E-02  0.1100553E+00
         22   -1    0    0    0    0  0.00000000000E+00  0.00000000000E+00  0.81194054996E+03  0.81194054996E+03  0.00000000000E+00 0. -1.
         22   -1    0    0    0    0 -0.00000000000E+00 -0.00000000000E+00 -0.12615526790E+03  0.12615526790E+03  0.00000000000E+00 0. -1.
         24    2    1    2    0    0  0.45002173560E+01  0.67908145054E+02 -0.77451811987E+02  0.12231917656E+03  0.65813597780E+02 0.  0.
         25    2    1    2    0    0  0.43658313189E+02  0.94374390512E+01  0.20620580597E+03  0.24528213129E+03  0.12508947178E+03 0.  0.
        -24    2    1    2    0    0 -0.48158530545E+02 -0.77345584106E+02  0.55703128808E+03  0.57049451001E+03  0.82937003851E+02 0.  0.
        -13    1    3    3    0    0  0.89355830074E+01  0.37850367817E+02 -0.82790910904E+02  0.91470377259E+02  0.00000000000E+00 0.  1.
         14    1    3    3    0    0 -0.44353656515E+01  0.30057777237E+02  0.53390989174E+01  0.30848799298E+02  0.00000000000E+00 0. -1.
         11    1    5    5    0    0 -0.34129751247E+02 -0.93640456244E+02  0.41233132532E+03  0.42420572463E+03  0.00000000000E+00 0. -1.
        -12    1    5    5    0    0 -0.14028779298E+02  0.16294872138E+02  0.14469996275E+03  0.14628878538E+03  0.00000000000E+00 0.  1.
          5    1    4    4  501    0 -0.27589685245E+02  0.42131623263E+02  0.53584414837E+02  0.73654778013E+02  0.41800000000E+01 0. -1.
         -5    1    4    4    0  501  0.71247998434E+02 -0.32694184212E+02  0.15262139113E+03  0.17162735328E+03  0.41800000000E+01 0. -1.
</event>
<event>
11    1  0.1078607E-008  0.1684793E+03  0.7561462E-02  0.1079363E+00
         22   -1    0    0    0    0  0.00000000000E+00  0.00000000000E+00  0.10659299663E+03  0.10659299663E+03  0.00000000000E+00 0. -1.
         22   -1    0    0    0    0 -0.00000000000E+00 -0.00000000000E+00 -0.98928988347E+03  0.98928988347E+03  0.00000000000E+00 0. -1.
        -24    2    1    2    0    0  0.51772894005E+02  0.77279713482E+01 -0.68688807635E+03  0.69361379000E+03  0.80899358155E+02 0.  0.
         25    2    1    2    0    0 -0.28835793551E+02 -0.11827743684E+03 -0.19774609237E+03  0.26376473341E+03  0.12508901826E+03 0.  0.
         24    2    1    2    0    0 -0.22937100455E+02  0.11054946549E+03  0.19372818878E+01  0.13850435668E+03  0.80202299602E+02 0.  0.
        -11    1    5    5    0    0 -0.43830915161E+02  0.55308197024E+02  0.25332046331E+02  0.74979052763E+02  0.00000000000E+00 0.  1.
         12    1    5    5    0    0  0.20893814707E+02  0.55241268468E+02 -0.23394764443E+02  0.63525303921E+02  0.00000000000E+00 0. -1.
         13    1    3    3    0    0  0.53205449040E+02 -0.15192904874E+02 -0.62757999047E+03  0.63001451460E+03  0.00000000000E+00 0. -1.
        -14    1    3    3    0    0 -0.14325550347E+01  0.22920876222E+02 -0.59308085877E+02  0.63599275398E+02  0.00000000000E+00 0.  1.
          5    1    4    4  501    0  0.22031602966E+02 -0.52629405115E+02 -0.95272969975E+01  0.57995582591E+02  0.41800000000E+01 0.  1.
         -5    1    4    4    0  501 -0.50867396517E+02 -0.65648031726E+02 -0.18821879537E+03  0.20576915082E+03  0.41800000000E+01 0.  1.
</event>
<event>
11    1  0.1078607E-008  0.1351649E+03  0.7561462E-02  0.1113081E+00
         22   -1    0    0    0    0  0.00000000000E+00  0.00000000000E+00  0.16843798494E+03  0.16843798494E+03  0.00000000000E+00 0. -1.
         22   -1    0    0    0    0 -0.00000000000E+00 -0.00000000000E+00 -0.26482325553E+03  0.26482325553E+03  0.00000000000E+00 0. -1.
         24    2    1    2    0    0 -0.55805055087E+02 -0.18739209920E+02 -0.15425434650E+03  0.18291770131E+03  0.78734489761E+02 0.  0.
         25    2    1    2    0    0  0.27444227833E+02 -0.12046884824E+02 -0.25766101576E+02  0.13118558368E+03  0.12508977696E+03 0.  0.
        -24    2    1    2    0    0  0.28360827254E+02  0.30786094744E+02  0.83635177491E+02  0.11915795548E+03  0.73835325479E+02 0.  0.
        -13    1    3    3    0    0 -0.10105615612E+02 -0.15290956557E+02  0.34838362764E+01  0.18656739655E+02  0.00000000000E+00 0.  1.
         14    1    3    3    0    0 -0.45699439475E+02 -0.34482533627E+01 -0.15773818277E+03  0.16426096166E+03  0.00000000000E+00 0. -1.
         11    1    5    5    0    0  0.63868615876E+01 -0.51931783072E+01  0.75838929924E+02  0.76284365330E+02  0.00000000000E+00 0. -1.
        -12    1    5    5    0    0  0.21973965667E+02  0.35979273051E+02  0.77962475675E+01  0.42873590152E+02  0.00000000000E+00 0.  1.
          5    1    4    4  501    0 -0.32305024518E+02  0.33820861465E+02  0.95013790761E+01  0.47908390536E+02  0.41800000000E+01 0.  1.
         -5    1    4    4    0  501  0.59749252351E+02 -0.45867746289E+02 -0.35267480652E+02  0.83277193142E+02  0.41800000000E+01 0.  1.
</event>
<event>
11    1  0.1078607E-008  0.2734605E+03  0.7561462E-02  0.1012094E+00
         22   -1    0    0    0    0  0.00000000000E+00  0.00000000000E+00  0.28500158647E+04  0.28500158647E+04  0.00000000000E+00 0.  1.
         22   -1    0    0    0    0 -0.00000000000E+00 -0.00000000000E+00 -0.14125244881E+03  0.14125244881E+03  0.00000000000E+00 0. -1.
         24    2    1    2    0    0 -0.51006737450E+02 -0.24508354444E+03  0.11465826235E+02  0.26390048073E+03  0.82730692850E+02 0.  0.
         25    2    1    2    0    0 -0.38171010764E+02  0.19567427904E+03  0.11033247183E+04  0.11281480981E+04  0.12508895879E+03 0.  0.
        -24    2    1    2    0    0  0.89177748214E+02  0.49409265401E+02  0.15939728714E+04  0.15992197347E+04  0.79751482717E+02 0.  0.
        -11    1    3    3    0    0 -0.53648907931E+02 -0.69230522284E+02 -0.95129050130E+00  0.87589813857E+02  0.00000000000E+00 0.  1.
         12    1    3    3    0    0  0.26421704813E+01 -0.17585302215E+03  0.12417116737E+02  0.17631066687E+03  0.00000000000E+00 0. -1.
         13    1    5    5    0    0 -0.11919620259E+02 -0.49583613861E+01  0.97529893567E+02  0.98380601919E+02  0.00000000000E+00 0. -1.
        -14    1    5    5    0    0  0.10109736847E+03  0.54367626787E+02  0.14964429778E+04  0.15008391328E+04  0.00000000000E+00 0.  1.
          5    1    4    4  501    0  0.35994125528E+02  0.26559042753E+02  0.13254453709E+03  0.13995172931E+03  0.41800000000E+01 0. -1.
         -5    1    4    4    0  501 -0.74165136292E+02  0.16911523628E+03  0.97078018121E+03  0.98819636875E+03  0.41800000000E+01 0. -1.
</event>
<event>
11    1  0.1078607E-008  0.1483414E+03  0.7561462E-02  0.1098586E+00
         22   -1    0    0    0    0  0.00000000000E+00  0.00000000000E+00  0.28680016276E+04  0.28680016276E+04  0.00000000000E+00 0. -1.
         22   -1    0    0    0    0 -0.00000000000E+00 -0.00000000000E+00 -0.30766244004E+03  0.30766244004E+03  0.00000000000E+00 0.  1.
        -24    2    1    2    0    0 -0.77889498229E+02 -0.17647915268E+02 -0.28924708971E+03  0.31029250165E+03  0.78989460216E+02 0.  0.
         25    2    1    2    0    0  0.64508921213E+02  0.33308139176E+02  0.73068225178E+03  0.74485958123E+03  0.12509360346E+03 0.  0.
         24    2    1    2    0    0  0.13380577015E+02 -0.15660223907E+02  0.21189040255E+04  0.21205119847E+04  0.79953272451E+02 0.  0.
        -13    1    5    5    0    0  0.40552608772E+02  0.37784429461E+00  0.64695567841E+03  0.64822550603E+03  0.00000000000E+00 0.  1.
         14    1    5    5    0    0 -0.27172031756E+02 -0.16038068202E+02  0.14719483471E+04  0.14722864787E+04  0.00000000000E+00 0. -1.
         13    1    3    3    0    0  0.10412513700E+02 -0.93754189974E+01 -0.10366184752E+03  0.10460448152E+03  0.00000000000E+00 0. -1.
        -14    1    3    3    0    0 -0.88302011928E+02 -0.82724962711E+01 -0.18558524220E+03  0.20568802013E+03  0.00000000000E+00 0.  1.
          5    1    4    4  501    0 -0.16762251307E+02  0.29525316912E+02  0.58569279541E+02  0.67827356676E+02  0.41800000000E+01 0. -1.
         -5    1    4    4    0  501  0.81271172521E+02  0.37828222635E+01  0.67211297224E+03  0.67703222455E+03  0.41800000000E+01 0. -1.
</event>
<event>
11    1  0.1078607E-008  0.1274186E+03  0.7561462E-02  0.1122482E+00
         22   -1    0    0    0    0  0.00000000000E+00  0.00000000000E+00  0.20390297225E+03  0.20390297225E+03  0.00000000000E+00 0.  1.
         22   -1    0    0    0    0 -0.00000000000E+00 -0.00000000000E+00 -0.10477565656E+04  0.10477565656E+04  0.00000000000E+00 0.  1.
         24    2    1    2    0    0 -0.10553329136E+01  0.61286319149E+00 -0.78102298184E+03  0.78518137301E+03  0.80693252713E+02 0.  0.
         25    2    1    2    0    0 -0.18405831616E+02 -0.15165326180E+02 -0.23940298196E+03  0.27116112457E+03  0.12508319611E+03 0.  0.
        -24    2    1    2    0    0  0.19461164530E+02  0.14552462988E+02  0.17657237049E+03  0.19531704022E+03  0.79877613116E+02 0.  0.
        -13    1    3    3    0    0  0.25274092814E+02  0.47712861374E+01 -0.68623103014E+03  0.68671287425E+03  0.00000000000E+00 0.  1.
         14    1    3    3    0    0 -0.26329425727E+02 -0.41584229459E+01 -0.94791951701E+02  0.98468498759E+02  0.00000000000E+00 0. -1.
         11    1    5    5    0    0 -0.64630295409E+01  0.43876210783E+02  0.93050320362E+02  0.10307887632E+03  0.00000000000E+00 0. -1.
        -12    1    5    5    0    0  0.25924194071E+02 -0.29323747795E+02  0.83522050127E+02  0.92238163904E+02  0.00000000000E+00 0.  1.
          5    1    4    4  501    0 -0.69507703743E+02  0.97800017147E+01 -0.13169093180E+03  0.14928812154E+03  0.41800000000E+01 0. -1.
         -5    1    4    4    0  501  0.51101872127E+02 -0.24945327895E+02 -0.10771205016E+03  0.12187300303E+03  0.41800000000E+01 0. -1.
</event>
<event>
11    1  0.1078607E-008  0.2140054E+03  0.7561462E-02  0.1045039E+00
         22   -1    0    0    0    0  0.00000000000E+00  0.00000000000E+00  0.49503018103E+03  0.49503018103E+03  0.00000000000E+00 0.  1.
         22   -1    0    0    0    0 -0.00000000000E+00 -0.00000000000E+00 -0.12628664653E+04  0.12628664653E+04  0.00000000000E+00 0. -1.
        -24    2    1    2    0    0 -0.23493726392E+02  0.17344272308E+03 -0.99772296831E+03  0.10162898782E+04  0.82217161150E+02 0.  0.
         25    2    1    2    0    0 -0.50781266736E+02 -0.17232084666E+03 -0.20102647419E+03  0.29720707006E+03  0.12508872019E+03 0.  0.
         24    2    1    2    0    0  0.74274993128E+02 -0.11218764169E+01  0.43091315824E+03  0.44439969812E+03  0.79290027951E+02 0.  0.
        -13    1    5    5    0    0  0.16106549477E+02 -0.11561703885E+02  0.30127305383E+03  0.30192473714E+03  0.00000000000E+00 0.  1.
         14    1    5    5    0    0  0.58168443651E+02  0.10439827468E+02  0.12964010441E+03  0.14247496097E+03  0.00000000000E+00 0. -1.
         11    1    3    3    0    0 -0.45837755033E+02  0.12989865030E+03 -0.83769539787E+03  0.84894542743E+03  0.00000000000E+00 0. -1.
        -12    1    3    3    0    0  0.22344028641E+02  0.43544072782E+02 -0.16002757044E+03  0.16734445074E+03  0.00000000000E+00 0.  1.
          5    1    4    4  501    0 -0.66667288350E+01 -0.16809762460E+03 -0.12699277157E+03  0.21082194644E+03  0.41800000000E+01 0. -1.
         -5    1    4    4    0  501 -0.44114537901E+02 -0.42232220656E+01 -0.74033702620E+02  0.86385123617E+02  0.41800000000E+01 0. -1.
</event>
<event>
11    1  0.1078607E-008  0.1890870E+03  0.7561462E-02  0.1062521E+00
         22   -1    0    0    0    0  0.00000000000E+00  0.00000000000E+00  0.69913237395E+03  0.69913237395E+03  0.00000000000E+00 0. -1.
         22   -1    0    0    0    0 -0.00000000000E+00 -0.00000000000E+00 -0.49163131429E+03  0.49163131429E+03  0.00000000000E+00 0. -1.
         24    2    1    2    0    0  0.20329849082E+02 -0.17169717268E+02 -0.44054244510E+03  0.44844506229E+03  0.79480978885E+02 0.  0.
         25    2    1    2    0    0  0.43731589815E+02  0.14095550267E+03  0.27864646565E+03  0.33922417698E+03  0.12509310034E+03 0.  0.
        -24    2    1    2    0    0 -0.64061438897E+02 -0.12378578540E+03  0.36939703912E+03  0.40309444896E+03  0.81266067028E+02 0.  0.
        -11    1    3    3    0    0  0.34078562038E+02  0.13062603368E+02 -0.10304063590E+03  0.10931309456E+03  0.00000000000E+00 0.  1.
         12    1    3    3    0    0 -0.13748712956E+02 -0.30232320635E+02 -0.33750180921E+03  0.33913196773E+03  0.00000000000E+00 0. -1.
         11    1    5    5    0    0 -0.30369190839E+02 -0.11272606040E+03  0.33023243862E+03  0.35026121104E+03  0.00000000000E+00 0. -1.
        -12    1    5    5    0    0 -0.33692248059E+02 -0.11059725002E+02  0.39164600505E+02  0.52833237920E+02  0.00000000000E+00 0.  1.
          5    1    4    4  501    0 -0.41704500718E+02  0.23156118816E+02  0.68354324629E+02  0.83458117126E+02  0.41800000000E+01 0.  1.
         -5    1    4    4    0  501  0.85436090534E+02  0.11779938385E+03  0.21029214102E+03  0.25576605986E+03  0.41800000000E+01 0.  1.
</event>
<event>
11    1  0.1078607E-008  0.1346535E+03  0.7561462E-02  0.1113680E+00
         22   -1    0    0    0    0  0.00000000000E+00  0.00000000000E+00  0.12368449344E+04  0.12368449344E+04  0.00000000000E+00 0.  1.
         22   -1    0    0    0    0 -0.00000000000E+00 -0.00000000000E+00 -0.13417928243E+03  0.13417928243E+03  0.00000000000E+00 0. -1.
         24    2    1    2    0    0  0.37418469594E+02 -0.22041470471E+02 -0.10090110061E+03  0.13552014987E+03  0.79364416646E+02 0.  0.
         25    2    1    2    0    0 -0.33280191047E+02 -0.31363583167E+02  0.31872750341E+03  0.34543649549E+03  0.12509158855E+03 0.  0.
        -24    2    1    2    0    0 -0.41382785471E+01  0.53405053638E+02  0.88483924915E+03  0.89006757143E+03  0.80065971452E+02 0.  0.
        -13    1    3    3    0    0  0.84708220063E+01 -0.32495152245E+02 -0.39637399249E+01  0.33814212679E+02  0.00000000000E+00 0.  1.
         14    1    3    3    0    0  0.28947647587E+02  0.10453681774E+02 -0.96937360687E+02  0.10170593719E+03  0.00000000000E+00 0. -1.
         11    1    5    5    0    0 -0.37686698469E+02  0.23229687699E+02  0.27295823193E+03  0.27652504771E+03  0.00000000000E+00 0. -1.
        -12    1    5    5    0    0  0.33548419922E+02  0.30175365940E+02  0.61188101722E+03  0.61354252373E+03  0.00000000000E+00 0.  1.
          5    1    4    4  501    0  0.50507741357E+01  0.43616078236E+02  0.15664694017E+03  0.16273785320E+03  0.41800000000E+01 0. -1.
         -5    1    4    4    0  501 -0.38330965182E+02 -0.74979661404E+02  0.16208056324E+03  0.18269864229E+03  0.41800000000E+01 0. -1.
</event>
<event>
11    1  0.1078607E-008  0.1555186E+03  0.7561462E-02  0.1091370E+00
         22   -1    0    0    0    0  0.00000000000E+00  0.00000000000E+00  0.16440266967E+03  0.16440266967E+03  0.00000000000E+00 0.  1.
         22   -1    0    0    0    0 -0.00000000000E+00 -0.00000000000E+00 -0.53834615275E+03  0.53834615275E+03  0.00000000000E+00 0. -1.
         24    2    1    2    0    0  0.35873461212E+02  0.80872287152E+02 -0.37319704258E+03  0.39089870032E+03  0.75488603584E+02 0.  0.
         25    2    1    2    0    0 -0.98610897713E+01 -0.12383673918E+03 -0.74364679977E+02  0.19133741597E+03  0.12508845694E+03 0.  0.
        -24    2    1    2    0    0 -0.26012371441E+02  0.42964452028E+02  0.73618239475E+02  0.12051270613E+03  0.81123853145E+02 0.  0.
        -13    1    3    3    0    0 -0.23712069180E+02  0.19258749647E+02 -0.10262776212E+03  0.10707763175E+03  0.00000000000E+00 0.  1.
         14    1    3    3    0    0  0.59585530392E+02  0.61613537504E+02 -0.27056928046E+03  0.28382106857E+03  0.00000000000E+00 0. -1.
         11    1    5    5    0    0 -0.46822398114E+02  0.26689761660E+02  0.14578746180E+02  0.55832071275E+02  0.00000000000E+00 0. -1.
        -12    1    5    5    0    0  0.20810026673E+02  0.16274690368E+02  0.59039493295E+02  0.64680634854E+02  0.00000000000E+00 0.  1.
          5    1    4    4  501    0 -0.29748682871E+02 -0.87775108311E+02  0.13937469478E+02  0.93814600287E+02  0.41800000000E+01 0. -1.
         -5    1    4    4    0  501  0.19887593100E+02 -0.36061630868E+02 -0.88302149456E+02  0.97522815683E+02  0.41800000000E+01 0. -1.
</event>
<event>
11    1  0.1078607E-008  0.3506457E+03  0.7561462E-02  0.9807771E-01
         22   -1    0    0    0    0  0.00000000000E+00  0.00000000000E+00  0.32883652377E+03  0.32883652377E+03  0.00000000000E+00 0. -1.
         22   -1    0    0    0    0 -0.00000000000E+00 -0.00000000000E+00 -0.10553098495E+04  0.10553098495E+04  0.00000000000E+00 0.  1.
        -24    2    1    2    0    0 -0.38045646717E+01  0.95551579415E+02 -0.48890609828E+03  0.50464960324E+03  0.80606886022E+02 0.  0.
         25    2    1    2    0    0  0.14393393784E+03 -0.37160078877E+03 -0.34525251587E+03  0.54189644088E+03  0.12509327817E+03 0.  0.
         24    2    1    2    0    0 -0.14012937317E+03  0.27604920936E+03  0.10768528841E+03  0.33760032916E+03  0.80860705536E+02 0.  0.
        -11    1    5    5    0    0 -0.18684074525E+02  0.38683308159E+02 -0.13065397797E+02  0.44902088933E+02  0.00000000000E+00 0.  1.
         12    1    5    5    0    0 -0.12144529865E+03  0.23736590120E+03  0.12075068621E+03  0.29269824023E+03  0.00000000000E+00 0. -1.
         11    1    3    3    0    0  0.96428876311E+01  0.17351537803E+02 -0.17048759421E+02  0.26167180662E+02  0.00000000000E+00 0. -1.
        -12    1    3    3    0    0 -0.13447452303E+02  0.78200041613E+02 -0.47185733886E+03  0.47848242258E+03  0.00000000000E+00 0.  1.
          5    1    4    4  501    0  0.10082409545E+03 -0.35416545902E+03 -0.32438254646E+03  0.49075470393E+03  0.41800000000E+01 0. -1.
         -5    1    4    4    0  501  0.43109842393E+02 -0.17435329755E+02 -0.20869969411E+02  0.51141736947E+02  0.41800000000E+01 0. -1.
</event>
<event>
11    1  0.1078607E-008  0.2047359E+03  0.7561462E-02  0.1051224E+00
         22   -1    0    0    0    0  0.00000000000E+00  0.00000000000E+00  0.29770929359E+04  0.29770929359E+04  0.00000000000E+00 0.  1.
         22   -1    0    0    0    0 -0.00000000000E+00 -0.00000000000E+00 -0.78477931948E+03  0.78477931948E+03  0.00000000000E+00 0. -1.
         24    2    1    2    0    0  0.16133358698E+03  0.66054204025E+01 -0.72107897198E+03  0.74323645459E+03  0.79833487563E+02 0.  0.
         25    2    1    2    0    0 -0.18071878398E+03  0.10044503716E+03  0.23545788263E+03  0.33739720526E+03  0.12509186724E+03 0.  0.
        -24    2    1    2    0    0  0.19385197000E+02 -0.10705045756E+03  0.26779347058E+04  0.26812385955E+04  0.76619393154E+02 0.  0.
        -13    1    3    3    0    0  0.32389838255E+02 -0.23765700983E+02 -0.92455319622E+02  0.10080623141E+03  0.00000000000E+00 0.  1.
         14    1    3    3    0    0  0.12894374873E+03  0.30371121385E+02 -0.62862365236E+03  0.64243022318E+03  0.00000000000E+00 0. -1.
         13    1    5    5    0    0  0.74733464118E+01 -0.58471654636E+01  0.10881572123E+04  0.10881985843E+04  0.00000000000E+00 0. -1.
        -14    1    5    5    0    0  0.11911850588E+02 -0.10120329210E+03  0.15897774935E+04  0.15930400112E+04  0.00000000000E+00 0.  1.
          5    1    4    4  501    0 -0.87531265090E+02 -0.17094724073E+02  0.11094692905E+03  0.14241013104E+03  0.41800000000E+01 0. -1.
         -5    1    4    4    0  501 -0.93187518892E+02  0.11753976123E+03  0.12451095359E+03  0.19498707422E+03  0.41800000000E+01 0. -1.
</event>
<event>
11    1  0.1078607E-008  0.1950653E+03  0.7561462E-02  0.1058069E+00
         22   -1    0    0    0    0  0.00000000000E+00  0.00000000000E+00  0.14436365830E+04  0.14436365830E+04  0.00000000000E+00 0. -1.
         22   -1    0    0    0    0 -0.00000000000E+00 -0.00000000000E+00 -0.10660049386E+03  0.10660049386E+03  0.00000000000E+00 0. -1.
         24    2    1    2    0    0 -0.21675038801E+02 -0.27535561878E+02 -0.30691805967E+02  0.94245809118E+02  0.81928451150E+02 0.  0.
         25    2    1    2    0    0  0.22220056530E+02  0.17327286722E+03  0.26670825009E+03  0.34248840303E+03  0.12509115922E+03 0.  0.
        -24    2    1    2    0    0 -0.54501772913E+00 -0.14573730534E+03  0.11010196450E+04  0.11135028647E+04  0.80029443457E+02 0.  0.
        -11    1    3    3    0    0  0.30849626697E+02 -0.17975550145E+02 -0.13178389310E+02  0.38059030665E+02  0.00000000000E+00 0.  1.
         12    1    3    3    0    0 -0.52524665497E+02 -0.95600117335E+01 -0.17513416656E+02  0.56186778453E+02  0.00000000000E+00 0. -1.
         13    1    5    5    0    0  0.26064866493E+02 -0.34344188186E+02  0.16650513846E+03  0.17199669084E+03  0.00000000000E+00 0. -1.
        -14    1    5    5    0    0 -0.26609884222E+02 -0.11139311716E+03  0.93451450654E+03  0.94150617386E+03  0.00000000000E+00 0.  1.
          5    1    4    4  501    0  0.23666544615E+02  0.19080284015E+03  0.21890585177E+03  0.29138131972E+03  0.41800000000E+01 0.  1.
         -5    1    4    4    0  501 -0.14464880856E+01 -0.17529972931E+02  0.47802398322E+02  0.51107083307E+02  0.41800000000E+01 0.  1.
</event>
<event>
11    1  0.1078607E-008  0.2231663E+03  0.7561462E-02  0.1039252E+00
         22   -1    0    0    0    0  0.00000000000E+00  0.00000000000E+00  0.28610639857E+03  0.28610639857E+03  0.00000000000E+00 0.  1.
         22   -1    0    0    0    0 -0.00000000000E+00 -0.00000000000E+00 -0.26507744364E+04  0.26507744364E+04  0.00000000000E+00 0.  1.
        -24    2    1    2    0    0 -0.13186326452E+03  0.31261864608E+02 -0.24406969547E+04  0.24459263175E+04  0.84786206319E+02 0.  0.
         25    2    1    2    0    0  0.22836043462E+03  0.10596499977E+03 -0.19268580678E+02  0.28177125268E+03  0.12508673534E+03 0.  0.
         24    2    1    2    0    0 -0.96497170103E+02 -0.13722686437E+03  0.95297497618E+02  0.20918326482E+03  0.80827650490E+02 0.  0.
        -11    1    5    5    0    0 -0.92756214747E+02 -0.77736043126E+02  0.38894560873E+02  0.12711960762E+03  0.00000000000E+00 0.  1.
         12    1    5    5    0    0 -0.37409553559E+01 -0.59490821248E+02  0.56402936745E+02  0.82063657201E+02  0.00000000000E+00 0. -1.
         13    1    3    3    0    0 -0.69889907641E+02 -0.22100305527E+02 -0.86132683486E+03  0.86444024614E+03  0.00000000000E+00 0. -1.
        -14    1    3    3    0    0 -0.61973356877E+02  0.53362170135E+02 -0.15793701199E+04  0.15814860713E+04  0.00000000000E+00 0.  1.
          5    1    4    4  501    0  0.18539554967E+03  0.38146134983E+02 -0.49818708350E+02  0.19577030815E+03  0.41800000000E+01 0. -1.
         -5    1    4    4    0  501  0.42964884956E+02  0.67818864783E+02  0.30550127672E+02  0.86000944533E+02  0.41800000000E+01 0. -1.
</event>
<event>
11    1  0.1078607E-008  0.1570248E+03  0.7561462E-02  0.1089909E+00
         22   -1    0    0    0    0  0.00000000000E+00  0.00000000000E+00  0.37345828962E+04  0.37345828962E+04  0.00000000000E+00 0.  1.
         22   -1    0    0    0    0 -0.00000000000E+00 -0.00000000000E+00 -0.25076898965E+03  0.25076898965E+03  0.00000000000E+00 0.  1.
         24    2    1    2    0    0  0.71250393051E+02  0.34179342289E+02 -0.14599264018E+03  0.18467094314E+03  0.80899074807E+02 0.  0.
         25    2    1    2    0    0 -0.11750422269E+02 -0.10840914390E+03 -0.27701992965E+01  0.16597079191E+03  0.12509202556E+03 0.  0.
        -24    2    1    2    0    0 -0.59499970782E+02  0.74229801607E+02  0.36325767460E+04  0.36347101508E+04  0.80335263807E+02 0.  0.
        -13    1    3    3    0    0  0.83086735841E+02  0.35640942038E+02 -0.90538451711E+02  0.12794879312E+03  0.00000000000E+00 0.  1.
         14    1    3    3    0    0 -0.11836342791E+02 -0.14615997485E+01 -0.55454188468E+02  0.56722150022E+02  0.00000000000E+00 0. -1.
         11    1    5    5    0    0 -0.58720646993E+02  0.95212554169E+01  0.16112762459E+04  0.16123739980E+04  0.00000000000E+00 0. -1.
        -12    1    5    5    0    0 -0.77932378868E+00  0.64708546190E+02  0.20213005001E+04  0.20223361528E+04  0.00000000000E+00 0.  1.
          5    1    4    4  501    0 -0.30515125156E+02  0.85493402098E+01 -0.30566447953E+02  0.44227188717E+02  0.41800000000E+01 0.  1.
         -5    1    4    4    0  501  0.18764702887E+02 -0.11695848411E+03  0.27796248656E+02  0.12174360319E+03  0.41800000000E+01 0.  1.
</event>
<event>
11    1  0.1078607E-008  0.3375145E+03  0.7561462E-02  0.9854560E-01
         22   -1    0    0    0    0  0.00000000000E+00  0.00000000000E+00  0.12870542855E+04  0.12870542855E+04  0.00000000000E+00 0. -1.
         22   -1    0    0    0    0 -0.00000000000E+00 -0.00000000000E+00 -0.77269281643E+03  0.77269281643E+03  0.00000000000E+00 0. -1.
         24    2    1    2    0    0 -0.59047725874E+01  0.25227833805E+01 -0.65886526798E+03  0.66429766082E+03  0.84538216469E+02 0.  0.
         25    2    1    2    0    0 -0.24933703534E+03 -0.18593043408E+03  0.25317524322E+03  0.42009919626E+03  0.12508615993E+03 0.  0.
        -24    2    1    2    0    0  0.25524180793E+03  0.18340765070E+03  0.92005149386E+03  0.97535024488E+03  0.77631192022E+02 0.  0.
        -11    1    3    3    0    0 -0.11639733032E+02 -0.39063148994E+02 -0.39725759487E+03  0.39934322291E+03  0.00000000000E+00 0.  1.
         12    1    3    3    0    0  0.57349604443E+01  0.41585932375E+02 -0.26160767311E+03  0.26495443792E+03  0.00000000000E+00 0. -1.
         11    1    5    5    0    0  0.25805570808E+03  0.18692576696E+03  0.89839300811E+03  0.95322819296E+03  0.00000000000E+00 0. -1.
        -12    1    5    5    0    0 -0.28139001493E+01 -0.35181162648E+01  0.21658485751E+02  0.22122051920E+02  0.00000000000E+00 0.  1.
          5    1    4    4  501    0 -0.19926705184E+03 -0.19984768514E+03  0.20235026102E+03  0.34728886498E+03  0.41800000000E+01 0.  1.
         -5    1    4    4    0  501 -0.50069983506E+02  0.13917251058E+02  0.50824982198E+02  0.72810331277E+02  0.41800000000E+01 0.  1.
</event>
<event>
11    1  0.1078607E-008  0.2015998E+03  0.7561462E-02  0.1053398E+00
         22   -1    0    0    0    0  0.00000000000E+00  0.00000000000E+00  0.55254130391E+03  0.55254130391E+03  0.00000000000E+00 0. -1.
         22   -1    0    0    0    0 -0.00000000000E+00 -0.00000000000E+00 -0.40407936678E+03  0.40407936678E+03  0.00000000000E+00 0.  1.
        -24    2    1    2    0    0  0.55029106411E+02 -0.42677375943E+02 -0.25319564212E+03  0.27442537462E+03  0.79697503579E+02 0.  0.
         25    2    1    2    0    0 -0.12664260412E+03  0.17469884818E+03  0.35171641781E+01  0.24943454188E+03  0.12508870255E+03 0.  0.
         24    2    1    2    0    0  0.71613497704E+02 -0.13202147223E+03  0.39814041507E+03  0.43276075420E+03  0.78790342529E+02 0.  0.
        -13    1    5    5    0    0 -0.17389378515E+02 -0.23622410630E+02  0.71172088441E+02  0.76979704742E+02  0.00000000000E+00 0.  1.
         14    1    5    5    0    0  0.89002876220E+02 -0.10839906160E+03  0.32696832663E+03  0.35578104946E+03  0.00000000000E+00 0. -1.
         13    1    3    3    0    0 -0.19632413209E+02 -0.19432805828E+02 -0.64012107773E+02  0.69718114808E+02  0.00000000000E+00 0. -1.
        -14    1    3    3    0    0  0.74661519620E+02 -0.23244570115E+02 -0.18918353435E+03  0.20470725981E+03  0.00000000000E+00 0.  1.
          5    1    4    4  501    0 -0.16234016292E+02  0.13964454626E+02  0.45013945871E+02  0.50022764826E+02  0.41800000000E+01 0.  1.
         -5    1    4    4    0  501 -0.11040858782E+03  0.16073439355E+03 -0.41496781693E+02  0.19941177705E+03  0.41800000000E+01 0.  1.
</event>
<event>
11    1  0.1078607E-008  0.3001537E+03  0.7561462E-02  0.1000126E+00
         22   -1    0    0    0    0  0.00000000000E+00  0.00000000000E+00  0.20864799025E+04  0.20864799025E+04  0.00000000000E+00 0. -1.
         22   -1    0    0    0    0 -0.00000000000E+00 -0.00000000000E+00 -0.22055935640E+03  0.22055935640E+03  0.00000000000E+00 0. -1.
        -24    2    1    2    0    0  0.24812838139E+03 -0.66971758163E+02 -0.54479101966E+02  0.27492488041E+03  0.81011155241E+02 0.  0.
         25    2    1    2    0    0 -0.38267647467E+03  0.12998510399E+03  0.86071487397E+03  0.95907388157E+03  0.12512075974E+03 0.  0.
         24    2    1    2    0    0  0.13454809328E+03 -0.63013345827E+02  0.10596847741E+04  0.10730404969E+04  0.80063827215E+02 0.  0.
        -13    1    5    5    0    0  0.11031334751E+03 -0.14455904286E+02  0.60672856927E+03  0.61684484644E+03  0.00000000000E+00 0.  1.
         14    1    5    5    0    0  0.24234745765E+02 -0.48557441541E+02  0.45295620481E+03  0.45619565047E+03  0.00000000000E+00 0. -1.
         11    1    3    3    0    0  0.17345355366E+03 -0.76047632219E+02 -0.15038971194E+02  0.18998828463E+03  0.00000000000E+00 0. -1.
        -12    1    3    3    0    0  0.74674827735E+02  0.90758740563E+01 -0.39440130772E+02  0.84936595779E+02  0.00000000000E+00 0.  1.
          5    1    4    4  501    0 -0.12717485199E+03  0.91879530371E+02  0.41788201656E+03  0.44638340387E+03  0.41800000000E+01 0. -1.
         -5    1    4    4    0  501 -0.25550162268E+03  0.38105573619E+02  0.44283285741E+03  0.51269047771E+03  0.41800000000E+01 0. -1.
</event>
<event>
11    1  0.1078607E-008  0.1695524E+03  0.7561462E-02  0.1078422E+00
         22   -1    0    0    0    0  0.00000000000E+00  0.00000000000E+00  0.24733420164E+04  0.24733420164E+04  0.00000000000E+00 0.  1.
         22   -1    0    0    0    0 -0.00000000000E+00 -0.00000000000E+00 -0.32488328925E+03  0.32488328925E+03  0.00000000000E+00 0. -1.
        -24    2    1    2    0    0 -0.43252637281E+02  0.97949951076E+02 -0.23551614440E+03  0.27064912900E+03  0.79486559905E+02 0.  0.
         25    2    1    2    0    0  0.60948951480E+02 -0.18709486264E+03  0.12346606406E+03  0.26383576236E+03  0.12508468416E+03 0.  0.
         24    2    1    2    0    0 -0.17696314199E+02  0.89144911569E+02  0.22605088075E+04  0.22637404143E+04  0.79753493561E+02 0.  0.
        -13    1    5    5    0    0 -0.12404539142E+02  0.96455934468E+02  0.22242586019E+04  0.22263836031E+04  0.00000000000E+00 0.  1.
         14    1    5    5    0    0 -0.52917750569E+01 -0.73110228984E+01  0.36250205622E+02  0.37356811249E+02  0.00000000000E+00 0. -1.
         13    1    3    3    0    0 -0.53720861266E+01  0.92789715634E+02 -0.14307303567E+03  0.17061267296E+03  0.00000000000E+00 0. -1.
        -14    1    3    3    0    0 -0.37880551154E+02  0.51602354413E+01 -0.92443108732E+02  0.10003645604E+03  0.00000000000E+00 0.  1.
          5    1    4    4  501    0 -0.23184667852E+02 -0.10825579328E+03  0.28482761753E+02  0.11439224502E+03  0.41800000000E+01 0. -1.
         -5    1    4    4    0  501  0.84133619331E+02 -0.78839069360E+02  0.94983302304E+02  0.14944351734E+03  0.41800000000E+01 0. -1.
</event>
<event>
11    1  0.1491866E-008  0.3154898E+03  0.7561462E-02  0.9938406E-01
         22   -1    0    0    0    0  0.00000000000E+00  0.00000000000E+00  0.78891119156E+03  0.78891119156E+03  0.00000000000E+00 0.  1.
         22   -1    0    0    0    0 -0.00000000000E+00 -0.00000000000E+00 -0.90328703201E+03  0.90328703201E+03  0.00000000000E+00 0.  1.
        -24    2    1    2    0    0  0.29718984808E+02  0.64850674358E+02 -0.31947131388E+03  0.33798130572E+03  0.84146387935E+02 0.  0.
         25    2    1    2    0    0 -0.31226431022E+03 -0.54029174878E+01 -0.49129124132E+03  0.59545373757E+03  0.12513943755E+03 0.  0.
         24    2    1    2    0    0  0.28254532542E+03 -0.59447756870E+02  0.69638671475E+03  0.75876318028E+03  0.86030288641E+02 0.  0.
        -13    1    5    5    0    0  0.28713229632E+03 -0.63573352979E+02  0.68900766224E+03  0.74914490282E+03  0.00000000000E+00 0.  1.
         14    1    5    5    0    0 -0.45869709082E+01  0.41255961088E+01  0.73790525107E+01  0.96182774613E+01  0.00000000000E+00 0. -1.
         11    1    3    3    0    0 -0.12942957030E+01 -0.96859074650E+01 -0.14573295029E+01  0.98800715619E+01  0.00000000000E+00 0. -1.
        -12    1    3    3    0    0  0.31013280511E+02  0.74536581823E+02 -0.31801398437E+03  0.32810123416E+03  0.00000000000E+00 0.  1.
          5    1    4    4  501    0 -0.25349243984E+03  0.33574262071E+02 -0.43709528854E+03  0.50641426895E+03  0.41800000000E+01 0. -1.
         -5    1    4    4    0  501 -0.58771870382E+02 -0.38977179559E+02 -0.54195952780E+02  0.89039468621E+02  0.41800000000E+01 0. -1.
</event>
<event>
11    1  0.1078607E-008  0.1485696E+03  0.7561462E-02  0.1098349E+00
         22   -1    0    0    0    0  0.00000000000E+00  0.00000000000E+00  0.76973269924E+03  0.76973269924E+03  0.00000000000E+00 0.  1.
         22   -1    0    0    0    0 -0.00000000000E+00 -0.00000000000E+00 -0.47221511162E+03  0.47221511162E+03  0.00000000000E+00 0. -1.
        -24    2    1    2    0    0  0.38234690647E+02 -0.67288061673E+02 -0.40622338148E+03  0.42149603361E+03  0.81559155676E+02 0.  0.
         25    2    1    2    0    0 -0.47317725023E+02  0.13561100831E+03  0.11532542048E+03  0.22265710895E+03  0.12508766079E+03 0.  0.
         24    2    1    2    0    0  0.90830343768E+01 -0.68322946642E+02  0.58841554862E+03  0.59779466830E+03  0.79844104595E+02 0.  0.
        -11    1    5    5    0    0  0.88871035040E+01 -0.86421999769E+02  0.50718032473E+03  0.51456741487E+03  0.00000000000E+00 0.  1.
         12    1    5    5    0    0  0.19593087281E+00  0.18099053127E+02  0.81235223896E+02  0.83227253436E+02  0.00000000000E+00 0. -1.
         11    1    3    3    0    0  0.48553547105E+02 -0.66362952254E+02 -0.21807517387E+03  0.23306280232E+03  0.00000000000E+00 0. -1.
        -12    1    3    3    0    0 -0.10318856459E+02 -0.92510941939E+00 -0.18814820761E+03  0.18843323128E+03  0.00000000000E+00 0.  1.
          5    1    4    4  501    0  0.14349747806E+02  0.24906168053E+02 -0.21484404320E+02  0.36128721237E+02  0.41800000000E+01 0. -1.
         -5    1    4    4    0  501 -0.61667472830E+02  0.11070484026E+03  0.13680982480E+03  0.18652838772E+03  0.41800000000E+01 0. -1.
</event>
<event>
11    1  0.1078607E-008  0.2714110E+03  0.7561462E-02  0.1013074E+00
         22   -1    0    0    0    0  0.00000000000E+00  0.00000000000E+00  0.13799266449E+04  0.13799266449E+04  0.00000000000E+00 0. -1.
         22   -1    0    0    0    0 -0.00000000000E+00 -0.00000000000E+00 -0.22138619885E+04  0.22138619885E+04  0.00000000000E+00 0. -1.
         24    2    1    2    0    0  0.16781111132E+03 -0.16899681924E+03 -0.20145535217E+04  0.20301359242E+04  0.79407082243E+02 0.  0.
         25    2    1    2    0    0 -0.21585974104E+03  0.18795321907E+03 -0.61073805212E+02  0.31827569948E+03  0.12509025075E+03 0.  0.
        -24    2    1    2    0    0  0.48048629723E+02 -0.18956399829E+02  0.12416919833E+04  0.12453770098E+04  0.80603344695E+02 0.  0.
        -11    1    3    3    0    0  0.40082149272E+02 -0.81918091167E+02 -0.55820786777E+03  0.56560867743E+03  0.00000000000E+00 0.  1.
         12    1    3    3    0    0  0.12772896205E+03 -0.87078728072E+02 -0.14563456539E+04  0.14645272467E+04  0.00000000000E+00 0. -1.
         11    1    5    5    0    0  0.67006766956E+02 -0.29725601569E+02  0.89272769036E+03  0.89573224087E+03  0.00000000000E+00 0. -1.
        -12    1    5    5    0    0 -0.18958137233E+02  0.10769201740E+02  0.34896429299E+03  0.34964476895E+03  0.00000000000E+00 0.  1.
          5    1    4    4  501    0 -0.21223341368E+03  0.18195534444E+03 -0.85625088910E+02  0.29240365508E+03  0.41800000000E+01 0. -1.
         -5    1    4    4    0  501 -0.36263273633E+01  0.59978746316E+01  0.24551283698E+02  0.25872044400E+02  0.41800000000E+01 0. -1.
</event>
<event>
11    1  0.1078607E-008  0.1287154E+03  0.7561462E-02  0.1120857E+00
         22   -1    0    0    0    0  0.00000000000E+00  0.00000000000E+00  0.56415120565E+03  0.56415120565E+03  0.00000000000E+00 0.  1.
         22   -1    0    0    0    0 -0.00000000000E+00 -0.00000000000E+00 -0.94455264789E+02  0.94455264789E+02  0.00000000000E+00 0.  1.
         24    2    1    2    0    0 -0.11605958459E+02 -0.11745228343E+02 -0.35662777865E+02  0.88835564129E+02  0.79669787677E+02 0.  0.
         25    2    1    2    0    0  0.34210621505E+02  0.28099541649E+02  0.13333431531E+03  0.18810935046E+03  0.12508851757E+03 0.  0.
        -24    2    1    2    0    0 -0.22604663046E+02 -0.16354313306E+02  0.37202440342E+03  0.38166155585E+03  0.80529200412E+02 0.  0.
        -13    1    3    3    0    0  0.13886103465E+02 -0.27135746456E+02 -0.47789377492E+02  0.56683306239E+02  0.00000000000E+00 0.  1.
         14    1    3    3    0    0 -0.25492061924E+02  0.15390518113E+02  0.12126599628E+02  0.32152257890E+02  0.00000000000E+00 0. -1.
         13    1    5    5    0    0 -0.12017790092E+02 -0.79445414437E+01  0.63608530124E+01  0.15748125872E+02  0.00000000000E+00 0. -1.
        -14    1    5    5    0    0 -0.10586872954E+02 -0.84097718621E+01  0.36566355041E+03  0.36591342998E+03  0.00000000000E+00 0.  1.
          5    1    4    4  501    0  0.20389861102E+02  0.39168564762E+02  0.15418429963E+03  0.16043750670E+03  0.41800000000E+01 0.  1.
         -5    1    4    4    0  501  0.13820760403E+02 -0.11069023114E+02 -0.20849984328E+02  0.27671843764E+02  0.41800000000E+01 0.  1.
</event>
<event>
11    1  0.1078607E-008  0.1535134E+03  0.7561462E-02  0.1093342E+00
         22   -1    0    0    0    0  0.00000000000E+00  0.00000000000E+00  0.18538774907E+04  0.18538774907E+04  0.00000000000E+00 0. -1.
         22   -1    0    0    0    0 -0.00000000000E+00 -0.00000000000E+00 -0.21435185809E+03  0.21435185809E+03  0.00000000000E+00 0. -1.
         24    2    1    2    0    0 -0.71986512472E+02  0.30445505449E+01 -0.17092196375E+03  0.20136126508E+03  0.78362708700E+02 0.  0.
         25    2    1    2    0    0  0.40483341242E+02  0.83014472378E+02  0.21460744893E+03  0.26501788660E+03  0.12509124486E+03 0.  0.
        -24    2    1    2    0    0  0.31503171230E+02 -0.86059022923E+02  0.15958401474E+04  0.16018501971E+04  0.10401765508E+03 0.  0.
        -13    1    3    3    0    0 -0.41779078527E+02  0.28975750234E+02 -0.40512254971E+02  0.65010216943E+02  0.00000000000E+00 0.  1.
         14    1    3    3    0    0 -0.30207433945E+02 -0.25931199689E+02 -0.13040970878E+03  0.13635104814E+03  0.00000000000E+00 0. -1.
         13    1    5    5    0    0  0.47806566749E+02 -0.73478858395E+02  0.15372333026E+04  0.15397307677E+04  0.00000000000E+00 0. -1.
        -14    1    5    5    0    0 -0.16303395519E+02 -0.12580164529E+02  0.58606844879E+02  0.62119429422E+02  0.00000000000E+00 0.  1.
          5    1    4    4  501    0  0.52248035807E+02 -0.16604787867E+02  0.71169308068E+02  0.89933970427E+02  0.41800000000E+01 0. -1.
         -5    1    4    4    0  501 -0.11764694566E+02  0.99619260246E+02  0.14343814086E+03  0.17508391618E+03  0.41800000000E+01 0. -1.
</event>
<event>
11    1  0.1078607E-008  0.1940320E+03  0.7561462E-02  0.1058826E+00
         22   -1    0    0    0    0  0.00000000000E+00  0.00000000000E+00  0.70288891202E+03  0.70288891202E+03  0.00000000000E+00 0.  1.
         22   -1    0    0    0    0 -0.00000000000E+00 -0.00000000000E+00 -0.45502181510E+03  0.45502181510E+03  0.00000000000E+00 0. -1.
         24    2    1    2    0    0 -0.84764237958E+02  0.15084835838E+01 -0.39572680014E+03  0.41461076393E+03  0.90084036645E+02 0.  0.
         25    2    1    2    0    0  0.18529583634E+03  0.47005087133E+02  0.46786963884E+03  0.52066697165E+03  0.12509225087E+03 0.  0.
        -24    2    1    2    0    0 -0.10053159839E+03 -0.48513570717E+02  0.17572425821E+03  0.22263299155E+03  0.78906686556E+02 0.  0.
        -13    1    3    3    0    0  0.87125957417E+01  0.19747726650E+02 -0.14136846390E+03  0.14300672928E+03  0.00000000000E+00 0.  1.
         14    1    3    3    0    0 -0.93476833700E+02 -0.18239243067E+02 -0.25435833624E+03  0.27160403465E+03  0.00000000000E+00 0. -1.
         11    1    5    5    0    0 -0.31440567130E+02 -0.26121587557E+02  0.13125231557E+03  0.13747005834E+03  0.00000000000E+00 0. -1.
        -12    1    5    5    0    0 -0.69091031257E+02 -0.22391983160E+02  0.44471942644E+02  0.85162933207E+02  0.00000000000E+00 0.  1.
          5    1    4    4  501    0  0.26956689334E+02 -0.38528600347E+02  0.12067288542E+03  0.12957829224E+03  0.41800000000E+01 0.  1.
         -5    1    4    4    0  501  0.15833914701E+03  0.85533687480E+02  0.34719675342E+03  0.39108867940E+03  0.41800000000E+01 0.  1.
</event>
<event>
11    1  0.1078607E-008  0.1713799E+03  0.7561462E-02  0.1076837E+00
         22   -1    0    0    0    0  0.00000000000E+00  0.00000000000E+00  0.15173201268E+04  0.15173201268E+04  0.00000000000E+00 0. -1.
         22   -1    0    0    0    0 -0.00000000000E+00 -0.00000000000E+00 -0.44879789210E+03  0.44879789210E+03  0.00000000000E+00 0. -1.
         24    2    1    2    0    0  0.29528133445E+01  0.43297945687E+02 -0.39789823125E+03  0.40826799603E+03  0.80475604688E+02 0.  0.
         25    2    1    2    0    0  0.11226142678E+02  0.76697461758E+02  0.87594990543E+02  0.17125674057E+03  0.12508981535E+03 0.  0.
        -24    2    1    2    0    0 -0.14178956022E+02 -0.11999540744E+03  0.13788254754E+04  0.13865932823E+04  0.82953591016E+02 0.  0.
        -11    1    3    3    0    0  0.57271058295E+01  0.54525522009E+02 -0.14364913204E+03  0.15375599314E+03  0.00000000000E+00 0.  1.
         12    1    3    3    0    0 -0.27742924850E+01 -0.11227576321E+02 -0.25424909920E+03  0.25451200289E+03  0.00000000000E+00 0. -1.
         11    1    5    5    0    0 -0.70980863156E+01 -0.76204768342E+02  0.11966449984E+04  0.11990899890E+04  0.00000000000E+00 0. -1.
        -12    1    5    5    0    0 -0.70808697068E+01 -0.43790639103E+02  0.18218047700E+03  0.18750329327E+03  0.00000000000E+00 0.  1.
          5    1    4    4  501    0  0.27079966826E+02 -0.17217717864E+02 -0.10930855337E+02  0.34157435650E+02  0.41800000000E+01 0.  1.
         -5    1    4    4    0  501 -0.15853824148E+02  0.93915179622E+02  0.98525845880E+02  0.13709930492E+03  0.41800000000E+01 0.  1.
</event>
<event>
11    1  0.1078607E-008  0.2947688E+03  0.7561462E-02  0.1002430E+00
         22   -1    0    0    0    0  0.00000000000E+00  0.00000000000E+00  0.13187462228E+04  0.13187462228E+04  0.00000000000E+00 0.  1.
         22   -1    0    0    0    0 -0.00000000000E+00 -0.00000000000E+00 -0.29750799511E+04  0.29750799511E+04  0.00000000000E+00 0.  1.
        -24    2    1    2    0    0  0.40584960887E+02  0.26342736067E+03 -0.27345100864E+04  0.27485792156E+04  0.78110040359E+02 0.  0.
         25    2    1    2    0    0 -0.10055997015E+02 -0.27361906179E+03 -0.13440420910E+03  0.32966879417E+03  0.12509399813E+03 0.  0.
         24    2    1    2    0    0 -0.30528963872E+02  0.10191701124E+02  0.12125805671E+04  0.12155781641E+04  0.79011093994E+02 0.  0.
        -11    1    5    5    0    0 -0.35122049394E+02  0.34688809613E+02  0.10438616140E+04  0.10450282011E+04  0.00000000000E+00 0.  1.
         12    1    5    5    0    0  0.45930855217E+01 -0.24497108489E+02  0.16871895308E+03  0.17054996302E+03  0.00000000000E+00 0. -1.
         13    1    3    3    0    0  0.39538756101E+02  0.69644958256E+02 -0.60666400754E+03  0.61192724362E+03  0.00000000000E+00 0. -1.
        -14    1    3    3    0    0  0.10462047859E+01  0.19378240241E+03 -0.21278460788E+04  0.21366519720E+04  0.00000000000E+00 0.  1.
          5    1    4    4  501    0 -0.26706249603E+02 -0.24592273590E+03 -0.69397883729E+02  0.25695282537E+03  0.41800000000E+01 0. -1.
         -5    1    4    4    0  501  0.16650252588E+02 -0.27696325899E+02 -0.65006325375E+02  0.72715968798E+02  0.41800000000E+01 0. -1.
</event>
<event>
11    1  0.1078607E-008  0.1439764E+03  0.7561462E-02  0.1103198E+00
         22   -1    0    0    0    0  0.00000000000E+00  0.00000000000E+00  0.33487530193E+03  0.33487530193E+03  0.00000000000E+00 0. -1.
         22   -1    0    0    0    0 -0.00000000000E+00 -0.00000000000E+00 -0.29395281125E+03  0.29395281125E+03  0.00000000000E+00 0.  1.
         24    2    1    2    0    0 -0.60567500744E+02 -0.25684294433E+02 -0.13864757365E+03  0.17346456503E+03  0.80862231678E+02 0.  0.
         25    2    1    2    0    0  0.76974927344E+02  0.36125480940E+02 -0.88355034255E+02  0.17516975588E+03  0.12509053314E+03 0.  0.
        -24    2    1    2    0    0 -0.16407426600E+02 -0.10441186507E+02  0.26792509860E+03  0.28019379228E+03  0.79664802451E+02 0.  0.
        -13    1    3    3    0    0 -0.73029697092E+02 -0.35009914369E+02 -0.13507646212E+03  0.15749502018E+03  0.00000000000E+00 0.  1.
         14    1    3    3    0    0  0.12462196347E+02  0.93256199359E+01 -0.35711115298E+01  0.15969544845E+02  0.00000000000E+00 0. -1.
         13    1    5    5    0    0 -0.31200897699E+02 -0.36328799420E+02  0.20560520268E+03  0.21110844856E+03  0.00000000000E+00 0. -1.
        -14    1    5    5    0    0  0.14793471099E+02  0.25887612913E+02  0.62319895916E+02  0.69085343717E+02  0.00000000000E+00 0.  1.
          5    1    4    4  501    0  0.20396441922E+02 -0.26170431530E+02 -0.84439808350E+02  0.90821032607E+02  0.41800000000E+01 0. -1.
         -5    1    4    4    0  501  0.56578485422E+02  0.62295912471E+02 -0.39152259054E+01  0.84348723269E+02  0.41800000000E+01 0. -1.
</event>
<event>
11    1  0.1078607E-008  0.1434698E+03  0.7561462E-02  0.1103744E+00
         22   -1    0    0    0    0  0.00000000000E+00  0.00000000000E+00  0.18606829704E+04  0.18606829704E+04  0.00000000000E+00 0. -1.
         22   -1    0    0    0    0 -0.00000000000E+00 -0.00000000000E+00 -0.21538811350E+03  0.21538811350E+03  0.00000000000E+00 0.  1.
         24    2    1    2    0    0 -0.55765867298E+02 -0.40207703749E+01 -0.74814043324E+02  0.12270107729E+03  0.79576471022E+02 0.  0.
         25    2    1    2    0    0  0.10468832251E+03  0.60714543614E+01 -0.57584983471E+02  0.17309011943E+03  0.12509057397E+03 0.  0.
        -24    2    1    2    0    0 -0.48922455209E+02 -0.20506839865E+01  0.17776938837E+04  0.17802798871E+04  0.82482244438E+02 0.  0.
        -11    1    3    3    0    0 -0.70525368768E+02 -0.51377021678E+01 -0.80225765259E+02  0.10694109142E+03  0.00000000000E+00 0.  1.
         12    1    3    3    0    0  0.14759501470E+02  0.11169317929E+01  0.54117219350E+01  0.15759985869E+02  0.00000000000E+00 0. -1.
         11    1    5    5    0    0 -0.35913318863E+02 -0.36190235330E+02  0.13711883866E+04  0.13721359595E+04  0.00000000000E+00 0. -1.
        -12    1    5    5    0    0 -0.13009136346E+02  0.34139551344E+02  0.40650549703E+03  0.40814392769E+03  0.00000000000E+00 0.  1.
          5    1    4    4  501    0  0.48082369929E+02  0.58505892465E+02  0.14326595162E+01  0.75857621004E+02  0.41800000000E+01 0.  1.
         -5    1    4    4    0  501  0.56605952578E+02 -0.52434438104E+02 -0.59017642987E+02  0.97232498426E+02  0.41800000000E+01 0.  1.
</event>
<event>
11    1  0.1078607E-008  0.1557165E+03  0.7561462E-02  0.1091177E+00
         22   -1    0    0    0    0  0.00000000000E+00  0.00000000000E+00  0.33531296718E+03  0.33531296718E+03  0.00000000000E+00 0. -1.
         22   -1    0    0    0    0 -0.00000000000E+00 -0.00000000000E+00 -0.99153700975E+03  0.99153700975E+03  0.00000000000E+00 0.  1.
         24    2    1    2    0    0  0.26529646585E+02 -0.11521053309E+02 -0.89046116422E+03  0.89465710217E+03  0.81570145637E+02 0.  0.
         25    2    1    2    0    0 -0.11427150515E+03 -0.48681322168E+01 -0.10118494882E-01  0.16949947922E+03  0.12509355600E+03 0.  0.
        -24    2    1    2    0    0  0.87741858570E+02  0.16389185526E+02  0.23424724015E+03  0.26269339555E+03  0.78541781242E+02 0.  0.
        -13    1    3    3    0    0  0.25461090475E+02 -0.15446188552E+02 -0.89007254573E+03  0.89057059716E+03  0.00000000000E+00 0.  1.
         14    1    3    3    0    0  0.10685561094E+01  0.39251352432E+01 -0.38861849098E+00  0.40865050065E+01  0.00000000000E+00 0. -1.
         11    1    5    5    0    0  0.97562403801E+02  0.29371027234E+02  0.19085829068E+03  0.21635148947E+03  0.00000000000E+00 0. -1.
        -12    1    5    5    0    0 -0.98205452309E+01 -0.12981841708E+02  0.43388949471E+02  0.46341906078E+02  0.00000000000E+00 0.  1.
          5    1    4    4  501    0 -0.78130839668E+02  0.24322852432E+02  0.54004140564E+02  0.98132302815E+02  0.41800000000E+01 0. -1.
         -5    1    4    4    0  501 -0.36140665486E+02 -0.29190984649E+02 -0.54014259059E+02  0.71367176407E+02  0.41800000000E+01 0. -1.
</event>
<event>
11    1  0.1078607E-008  0.1743859E+03  0.7561462E-02  0.1074277E+00
         22   -1    0    0    0    0  0.00000000000E+00  0.00000000000E+00  0.22228869300E+04  0.22228869300E+04  0.00000000000E+00 0. -1.
         22   -1    0    0    0    0 -0.00000000000E+00 -0.00000000000E+00 -0.26628118485E+03  0.26628118485E+03  0.00000000000E+00 0. -1.
        -24    2    1    2    0    0  0.11993297168E+03 -0.17585782286E+02 -0.23046739633E+03  0.27240023051E+03  0.79959285740E+02 0.  0.
         25    2    1    2    0    0 -0.12969171834E+03  0.80815298247E+01  0.57386882064E+03  0.60154684344E+03  0.12509168085E+03 0.  0.
         24    2    1    2    0    0  0.97587466569E+01  0.95042524614E+01  0.16132043209E+04  0.16152210409E+04  0.79531542617E+02 0.  0.
        -11    1    5    5    0    0  0.28098872664E+01  0.44225944831E+02  0.77082552537E+03  0.77209832290E+03  0.00000000000E+00 0.  1.
         12    1    5    5    0    0  0.69488593905E+01 -0.34721692370E+02  0.84237879549E+03  0.84312271803E+03  0.00000000000E+00 0. -1.
         13    1    3    3    0    0  0.82089713760E+02 -0.46964748223E+02 -0.17645672502E+03  0.20020335783E+03  0.00000000000E+00 0. -1.
        -14    1    3    3    0    0  0.37843257924E+02  0.29378965937E+02 -0.54010671306E+02  0.72196872680E+02  0.00000000000E+00 0.  1.
          5    1    4    4  501    0 -0.13152875310E+03  0.25707725737E+02  0.56608011798E+03  0.58174296079E+03  0.41800000000E+01 0. -1.
         -5    1    4    4    0  501  0.18370347558E+01 -0.17626195913E+02  0.77887026646E+01  0.19803882656E+02  0.41800000000E+01 0. -1.
</event>
<event>
11    1  0.1078607E-008  0.1751294E+03  0.7561462E-02  0.1073652E+00
         22   -1    0    0    0    0  0.00000000000E+00  0.00000000000E+00  0.32154152813E+03  0.32154152813E+03  0.00000000000E+00 0. -1.
         22   -1    0    0    0    0 -0.00000000000E+00 -0.00000000000E+00 -0.14757310850E+04  0.14757310850E+04  0.00000000000E+00 0.  1.
         24    2    1    2    0    0  0.40583904411E+02  0.11593601651E+03 -0.13504536216E+04  0.13584076580E+04  0.80362729252E+02 0.  0.
         25    2    1    2    0    0 -0.40712168334E+02 -0.11100970396E+03 -0.49463068351E+02  0.17909408665E+03  0.12508981461E+03 0.  0.
        -24    2    1    2    0    0  0.12826392341E+00 -0.49263125530E+01  0.24572713304E+03  0.25977086842E+03  0.84111801554E+02 0.  0.
        -13    1    3    3    0    0  0.53710234891E+02  0.12103529588E+03 -0.11933649957E+04  0.12006891126E+04  0.00000000000E+00 0.  1.
         14    1    3    3    0    0 -0.13126330480E+02 -0.50992793698E+01 -0.15708862583E+03  0.15771854542E+03  0.00000000000E+00 0. -1.
         11    1    5    5    0    0  0.15298132743E+02 -0.39530233221E+02  0.89355144879E+02  0.98899009703E+02  0.00000000000E+00 0. -1.
        -12    1    5    5    0    0 -0.15169868819E+02  0.34603920668E+02  0.15637198816E+03  0.16087185872E+03  0.00000000000E+00 0.  1.
          5    1    4    4  501    0  0.14930666047E+02  0.20949494534E+02  0.36022324422E+01  0.26310731430E+02  0.41800000000E+01 0. -1.
         -5    1    4    4    0  501 -0.55642834381E+02 -0.13195919849E+03 -0.53065300793E+02  0.15278335522E+03  0.41800000000E+01 0. -1.
</event>
<event>
11    1  0.1078607E-008  0.1589395E+03  0.7561462E-02  0.1088079E+00
         22   -1    0    0    0    0  0.00000000000E+00  0.00000000000E+00  0.76183527812E+03  0.76183527812E+03  0.00000000000E+00 0. -1.
         22   -1    0    0    0    0 -0.00000000000E+00 -0.00000000000E+00 -0.28339190319E+03  0.28339190319E+03  0.00000000000E+00 0. -1.
        -24    2    1    2    0    0 -0.21273149481E+01  0.64163602412E+02 -0.22903444766E+03  0.25106919032E+03  0.80358364642E+02 0.  0.
         25    2    1    2    0    0  0.98529813377E+02 -0.69272596060E+02  0.17286070761E+03  0.24502187145E+03  0.12509227221E+03 0.  0.
         24    2    1    2    0    0 -0.96402498428E+02  0.51089936473E+01  0.53461711498E+03  0.54913611953E+03  0.80096657947E+02 0.  0.
        -11    1    5    5    0    0 -0.21279654792E+02  0.37019438936E+02  0.15030587319E+03  0.15625337782E+03  0.00000000000E+00 0.  1.
         12    1    5    5    0    0 -0.75122843636E+02 -0.31910445289E+02  0.38431124180E+03  0.39288274170E+03  0.00000000000E+00 0. -1.
         13    1    3    3    0    0 -0.33395630044E+02  0.32509048995E+02 -0.17486324176E+03  0.18096756531E+03  0.00000000000E+00 0. -1.
        -14    1    3    3    0    0  0.31268315096E+02  0.31654553418E+02 -0.54171205901E+02  0.70101625016E+02  0.00000000000E+00 0.  1.
          5    1    4    4  501    0  0.40399615729E+02 -0.40065408592E+02  0.17049780079E+03  0.17978970602E+03  0.41800000000E+01 0. -1.
         -5    1    4    4    0  501  0.58130197647E+02 -0.29207187467E+02  0.23629068181E+01  0.65232165432E+02  0.41800000000E+01 0. -1.
</event>
<event>
11    1  0.1078607E-008  0.1527018E+03  0.7561462E-02  0.1094150E+00
         22   -1    0    0    0    0  0.00000000000E+00  0.00000000000E+00  0.28153790380E+03  0.28153790380E+03  0.00000000000E+00 0. -1.
         22   -1    0    0    0    0 -0.00000000000E+00 -0.00000000000E+00 -0.88067170830E+03  0.88067170830E+03  0.00000000000E+00 0.  1.
        -24    2    1    2    0    0  0.29908338684E+02 -0.71806363628E+02 -0.71318320217E+03  0.72176728186E+03  0.79164807351E+02 0.  0.
         25    2    1    2    0    0 -0.83854297284E+02  0.13110280965E+03 -0.78782308808E+02  0.21463867172E+03  0.12507444722E+03 0.  0.
         24    2    1    2    0    0  0.53945958600E+02 -0.59296446022E+02  0.19283170648E+03  0.22580365851E+03  0.85889406873E+02 0.  0.
        -13    1    5    5    0    0 -0.68222016070E+01 -0.11000698115E+02  0.11553894074E+03  0.11626179347E+03  0.00000000000E+00 0.  1.
         14    1    5    5    0    0  0.60768160207E+02 -0.48295747907E+02  0.77292765742E+02  0.10954186504E+03  0.00000000000E+00 0. -1.
         13    1    3    3    0    0  0.11069079360E+02  0.47442165788E+01 -0.15423612807E+02  0.19568340268E+02  0.00000000000E+00 0. -1.
        -14    1    3    3    0    0  0.18839259323E+02 -0.76550580207E+02 -0.69775958937E+03  0.70219894159E+03  0.00000000000E+00 0.  1.
          5    1    4    4  501    0 -0.11002921450E+03  0.96726836211E+02 -0.87030793659E+02  0.17045333769E+03  0.41800000000E+01 0.  1.
         -5    1    4    4    0  501  0.26174917211E+02  0.34375973439E+02  0.82484848516E+01  0.44185334029E+02  0.41800000000E+01 0.  1.
</event>
<event>
11    1  0.1078607E-008  0.1903879E+03  0.7561462E-02  0.1061537E+00
         22   -1    0    0    0    0  0.00000000000E+00  0.00000000000E+00  0.55724210399E+03  0.55724210399E+03  0.00000000000E+00 0.  1.
         22   -1    0    0    0    0 -0.00000000000E+00 -0.00000000000E+00 -0.17996540648E+04  0.17996540648E+04  0.00000000000E+00 0.  1.
        -24    2    1    2    0    0 -0.27783529404E+02  0.35239469065E+01 -0.17124375052E+04  0.17144128219E+04  0.77361309137E+02 0.  0.
         25    2    1    2    0    0 -0.64774480230E+02 -0.11665064257E+03  0.47992434431E+02  0.18908651538E+03  0.12508929144E+03 0.  0.
         24    2    1    2    0    0  0.92558009634E+02  0.11312669567E+03  0.42203310989E+03  0.45339683152E+03  0.78051947889E+02 0.  0.
        -13    1    5    5    0    0  0.16922960293E+02  0.68215942320E+02  0.25635563465E+03  0.26581574970E+03  0.00000000000E+00 0.  1.
         14    1    5    5    0    0  0.75635049341E+02  0.44910753345E+02  0.16567747524E+03  0.18758108182E+03  0.00000000000E+00 0. -1.
         11    1    3    3    0    0 -0.39552207044E+02 -0.22739196654E+02 -0.65657450270E+03  0.65815767544E+03  0.00000000000E+00 0. -1.
        -12    1    3    3    0    0  0.11768677640E+02  0.26263143560E+02 -0.10558630025E+04  0.10562551465E+04  0.00000000000E+00 0.  1.
          5    1    4    4  501    0 -0.99016183028E+02 -0.10080116924E+03  0.21959455391E+02  0.14305513029E+03  0.41800000000E+01 0. -1.
         -5    1    4    4    0  501  0.34241702798E+02 -0.15849473333E+02  0.26032979040E+02  0.46031385088E+02  0.41800000000E+01 0. -1.
</event>
<event>
11    1  0.1078607E-008  0.2330725E+03  0.7561462E-02  0.1033324E+00
         22   -1    0    0    0    0  0.00000000000E+00  0.00000000000E+00  0.68632573865E+03  0.68632573865E+03  0.00000000000E+00 0. -1.
         22   -1    0    0    0    0 -0.00000000000E+00 -0.00000000000E+00 -0.29189302379E+03  0.29189302379E+03  0.00000000000E+00 0.  1.
         24    2    1    2    0    0 -0.81813872145E+02  0.50508313816E+01 -0.12214357465E+03  0.16715239641E+03  0.79384193780E+02 0.  0.
         25    2    1    2    0    0  0.26665406303E+03  0.49893241405E+01  0.45294148756E+02  0.29804249239E+03  0.12509390342E+03 0.  0.
        -24    2    1    2    0    0 -0.18484019089E+03 -0.10040155522E+02  0.47128214075E+03  0.51302387364E+03  0.82582914956E+02 0.  0.
        -11    1    3    3    0    0 -0.25934088999E+02 -0.25189327841E+02 -0.87744010849E+02  0.94900424915E+02  0.00000000000E+00 0.  1.
         12    1    3    3    0    0 -0.55879783147E+02  0.30240159222E+02 -0.34399563803E+02  0.72251971490E+02  0.00000000000E+00 0. -1.
         13    1    5    5    0    0 -0.15116547428E+03 -0.37195673938E+02  0.40484309865E+03  0.43374238126E+03  0.00000000000E+00 0. -1.
        -14    1    5    5    0    0 -0.33674716608E+02  0.27155518416E+02  0.66439042103E+02  0.79281492384E+02  0.00000000000E+00 0.  1.
          5    1    4    4  501    0  0.42085521552E+02 -0.38757034387E+02 -0.18869393774E+02  0.60388949819E+02  0.41800000000E+01 0.  1.
         -5    1    4    4    0  501  0.22456854148E+03  0.43746358528E+02  0.64163542530E+02  0.23765354257E+03  0.41800000000E+01 0.  1.
</event>
<event>
11    1  0.1078607E-008  0.1382874E+03  0.7561462E-02  0.1109486E+00
         22   -1    0    0    0    0  0.00000000000E+00  0.00000000000E+00  0.92911559620E+03  0.92911559620E+03  0.00000000000E+00 0.  1.
         22   -1    0    0    0    0 -0.00000000000E+00 -0.00000000000E+00 -0.25534063154E+04  0.25534063154E+04  0.00000000000E+00 0.  1.
         24    2    1    2    0    0  0.28528405431E+01 -0.55425529267E+01 -0.25306286070E+04  0.25318635058E+04  0.78821362882E+02 0.  0.
         25    2    1    2    0    0 -0.10402978275E+02  0.63087099128E+02  0.24522656039E+03  0.28261608484E+03  0.12509029320E+03 0.  0.
        -24    2    1    2    0    0  0.75501377323E+01 -0.57544546201E+02  0.66111132741E+03  0.66804232089E+03  0.76445901800E+02 0.  0.
        -11    1    3    3    0    0  0.13106479111E+02  0.11920571067E+02 -0.23556990216E+04  0.23557656421E+04  0.00000000000E+00 0.  1.
         12    1    3    3    0    0 -0.10253638568E+02 -0.17463123994E+02 -0.17492958532E+03  0.17609786377E+03  0.00000000000E+00 0. -1.
         11    1    5    5    0    0 -0.10784691203E+02  0.13498237447E+02  0.59017451535E+02  0.61494484015E+02  0.00000000000E+00 0. -1.
        -12    1    5    5    0    0  0.18334828935E+02 -0.71042783648E+02  0.60209387587E+03  0.60654783688E+03  0.00000000000E+00 0.  1.
          5    1    4    4  501    0 -0.42104974956E+02 -0.18758518654E+02  0.12801221094E+03  0.13612240627E+03  0.41800000000E+01 0.  1.
         -5    1    4    4    0  501  0.31701996681E+02  0.81845617782E+02  0.11721434945E+03  0.14649367857E+03  0.41800000000E+01 0.  1.
</event>
<event>
11    1  0.1078607E-008  0.1321010E+03  0.7561462E-02  0.1116714E+00
         22   -1    0    0    0    0  0.00000000000E+00  0.00000000000E+00  0.91242002099E+03  0.91242002099E+03  0.00000000000E+00 0.  1.
         22   -1    0    0    0    0 -0.00000000000E+00 -0.00000000000E+00 -0.26307752697E+03  0.26307752697E+03  0.00000000000E+00 0.  1.
        -24    2    1    2    0    0 -0.20079271412E+02 -0.41923183794E+02 -0.16443419280E+03  0.18947890811E+03  0.81871377027E+02 0.  0.
         25    2    1    2    0    0 -0.23823982502E+02  0.36253432721E+02 -0.31430111166E+02  0.13608402821E+03  0.12509643209E+03 0.  0.
         24    2    1    2    0    0  0.43903253914E+02  0.56697510732E+01  0.84520679799E+03  0.84993461164E+03  0.77811765980E+02 0.  0.
        -13    1    5    5    0    0  0.52429645117E+02 -0.22080548147E+02  0.66223891488E+03  0.66467796614E+03  0.00000000000E+00 0.  1.
         14    1    5    5    0    0 -0.85263912031E+01  0.27750299221E+02  0.18296788311E+03  0.18525664551E+03  0.00000000000E+00 0. -1.
         11    1    3    3    0    0 -0.42671594368E+02 -0.46936163024E+02 -0.80931932565E+02  0.10282920827E+03  0.00000000000E+00 0. -1.
        -12    1    3    3    0    0  0.22592322955E+02  0.50129792303E+01 -0.83502260233E+02  0.86649699834E+02  0.00000000000E+00 0.  1.
          5    1    4    4  501    0 -0.26711927438E+02  0.81088102059E+02 -0.31107407505E+02  0.90961258592E+02  0.41800000000E+01 0.  1.
         -5    1    4    4    0  501  0.28879449362E+01 -0.44834669338E+02 -0.32270366092E+00  0.45122769621E+02  0.41800000000E+01 0.  1.
</event>
<event>
11    1  0.1078607E-008  0.1389687E+03  0.7561462E-02  0.1108716E+00
         22   -1    0    0    0    0  0.00000000000E+00  0.00000000000E+00  0.37916990195E+03  0.37916990195E+03  0.00000000000E+00 0.  1.
         22   -1    0    0    0    0 -0.00000000000E+00 -0.00000000000E+00 -0.19698755012E+04  0.19698755012E+04  0.00000000000E+00 0. -1.
         24    2    1    2    0    0  0.35994707828E+02 -0.30296225562E+02 -0.18935810903E+04  0.18958459774E+04  0.79806917063E+02 0.  0.
         25    2    1    2    0    0  0.20128503729E+01 -0.23377820959E+02 -0.55870217181E+01  0.12739669552E+03  0.12509248234E+03 0.  0.
        -24    2    1    2    0    0 -0.38007558201E+02  0.53674046521E+02  0.30846251278E+03  0.32580273026E+03  0.81687327681E+02 0.  0.
        -11    1    3    3    0    0  0.13301403198E+01 -0.28862373377E+02 -0.21807297914E+03  0.21997870375E+03  0.00000000000E+00 0.  1.
         12    1    3    3    0    0  0.34664567508E+02 -0.14338521854E+01 -0.16755081112E+04  0.16758672736E+04  0.00000000000E+00 0. -1.
         11    1    5    5    0    0 -0.12129746262E+02 -0.21405151983E+02  0.56574157877E+02  0.61692354593E+02  0.00000000000E+00 0. -1.
        -12    1    5    5    0    0 -0.25877811939E+02  0.75079198504E+02  0.25188835490E+03  0.26411037567E+03  0.00000000000E+00 0.  1.
          5    1    4    4  501    0  0.55140620059E+02 -0.27322422458E+02  0.24152840693E+02  0.66240734167E+02  0.41800000000E+01 0.  1.
         -5    1    4    4    0  501 -0.53127769686E+02  0.39446014992E+01 -0.29739862411E+02  0.61155961353E+02  0.41800000000E+01 0.  1.
</event>
<event>
11    1  0.1078607E-008  0.1346421E+03  0.7561462E-02  0.1113693E+00
         22   -1    0    0    0    0  0.00000000000E+00  0.00000000000E+00  0.28299498942E+03  0.28299498942E+03  0.00000000000E+00 0.  1.
         22   -1    0    0    0    0 -0.00000000000E+00 -0.00000000000E+00 -0.82133666080E+03  0.82133666080E+03  0.00000000000E+00 0. -1.
         24    2    1    2    0    0 -0.19881491582E+02  0.45944480698E+02 -0.72385420184E+03  0.73024218080E+03  0.82356348109E+02 0.  0.
         25    2    1    2    0    0  0.61400194597E+02 -0.21446831238E+02 -0.25454292940E+02  0.14326522133E+03  0.12508817749E+03 0.  0.
        -24    2    1    2    0    0 -0.41518703016E+02 -0.24497649460E+02  0.21096682340E+03  0.23082424809E+03  0.80305014784E+02 0.  0.
        -13    1    3    3    0    0  0.76499741699E+00  0.12205793701E+02 -0.11489616069E+02  0.16780283023E+02  0.00000000000E+00 0.  1.
         14    1    3    3    0    0 -0.20646488999E+02  0.33738686997E+02 -0.71236458577E+03  0.71346189777E+03  0.00000000000E+00 0. -1.
         11    1    5    5    0    0  0.68607842683E+01  0.23015259529E+01 -0.44001923701E+01  0.84693019418E+01  0.00000000000E+00 0. -1.
        -12    1    5    5    0    0 -0.48379487284E+02 -0.26799175413E+02  0.21536701577E+03  0.22235494615E+03  0.00000000000E+00 0.  1.
          5    1    4    4  501    0  0.88289138711E+02 -0.44946649805E+02 -0.36481470744E+02  0.10565767104E+03  0.41800000000E+01 0.  1.
         -5    1    4    4    0  501 -0.26888944113E+02  0.23499818567E+02  0.11027177804E+02  0.37607550286E+02  0.41800000000E+01 0.  1.
</event>
<event>
11    1  0.1078607E-008  0.1523368E+03  0.7561462E-02  0.1094515E+00
         22   -1    0    0    0    0  0.00000000000E+00  0.00000000000E+00  0.69586548339E+03  0.69586548339E+03  0.00000000000E+00 0.  1.
         22   -1    0    0    0    0 -0.00000000000E+00 -0.00000000000E+00 -0.12691053796E+04  0.12691053796E+04  0.00000000000E+00 0.  1.
        -24    2    1    2    0    0  0.39275517743E+02 -0.16864865034E+02 -0.11569023987E+04  0.11604286332E+04  0.79652135748E+02 0.  0.
         25    2    1    2    0    0 -0.43065836557E+02  0.10274695016E+03 -0.37893361972E+02  0.17174577121E+03  0.12509636686E+03 0.  0.
         24    2    1    2    0    0  0.37903188135E+01 -0.85882085124E+02  0.62155586446E+03  0.63279645857E+03  0.81911942186E+02 0.  0.
        -13    1    5    5    0    0  0.18896635138E+02 -0.34889621501E+02  0.47904428659E+03  0.48068471686E+03  0.00000000000E+00 0.  1.
         14    1    5    5    0    0 -0.15106316324E+02 -0.50992463623E+02  0.14251157787E+03  0.15211174171E+03  0.00000000000E+00 0. -1.
         11    1    3    3    0    0  0.41797251731E+00 -0.66976158332E+01 -0.65571300032E+01  0.93823617898E+01  0.00000000000E+00 0. -1.
        -12    1    3    3    0    0  0.38857545226E+02 -0.10167249201E+02 -0.11503452687E+04  0.11510462714E+04  0.00000000000E+00 0.  1.
          5    1    4    4  501    0 -0.72289705826E+02  0.10828989470E+03 -0.98306885620E+01  0.13063926554E+03  0.41800000000E+01 0.  1.
         -5    1    4    4    0  501  0.29223869269E+02 -0.55429445433E+01 -0.28062673410E+02  0.41106505667E+02  0.41800000000E+01 0.  1.
</event>
<event>
11    1  0.1078607E-008  0.2279378E+03  0.7561462E-02  0.1036356E+00
         22   -1    0    0    0    0  0.00000000000E+00  0.00000000000E+00  0.11262034356E+04  0.11262034356E+04  0.00000000000E+00 0. -1.
         22   -1    0    0    0    0 -0.00000000000E+00 -0.00000000000E+00 -0.54000075300E+03  0.54000075300E+03  0.00000000000E+00 0.  1.
         24    2    1    2    0    0  0.96103894747E+00 -0.63511633848E+02 -0.36107270172E+03  0.37486997226E+03  0.78226267624E+02 0.  0.
         25    2    1    2    0    0 -0.10516459201E+03  0.21919527639E+03 -0.46078833383E+02  0.27725711020E+03  0.12506832399E+03 0.  0.
        -24    2    1    2    0    0  0.10420355306E+03 -0.15568364255E+03  0.99335421772E+03  0.10140771062E+04  0.80647370223E+02 0.  0.
        -13    1    3    3    0    0 -0.11127669790E+02 -0.10583117929E+02 -0.25725838802E+03  0.25771632782E+03  0.00000000000E+00 0.  1.
         14    1    3    3    0    0  0.12088708737E+02 -0.52928515919E+02 -0.10381431370E+03  0.11715364444E+03  0.00000000000E+00 0. -1.
         11    1    5    5    0    0  0.10345049823E+03 -0.11033272118E+03  0.86057448521E+03  0.87376413267E+03  0.00000000000E+00 0. -1.
        -12    1    5    5    0    0  0.75305482515E+00 -0.45350921367E+02  0.13277973251E+03  0.14031297348E+03  0.00000000000E+00 0.  1.
          5    1    4    4  501    0 -0.25255392537E+02  0.58667975321E+02 -0.71650180690E+02  0.96078025445E+02  0.41800000000E+01 0. -1.
         -5    1    4    4    0  501 -0.79909199470E+02  0.16052730107E+03  0.25571347307E+02  0.18117908476E+03  0.41800000000E+01 0. -1.
</event>
<event>
11    1  0.1078607E-008  0.1569646E+03  0.7561462E-02  0.1089967E+00
         22   -1    0    0    0    0  0.00000000000E+00  0.00000000000E+00  0.29742328973E+03  0.29742328973E+03  0.00000000000E+00 0.  1.
         22   -1    0    0    0    0 -0.00000000000E+00 -0.00000000000E+00 -0.38941297866E+03  0.38941297866E+03  0.00000000000E+00 0. -1.
        -24    2    1    2    0    0  0.22540359922E+02  0.11156920316E+02 -0.28383130620E+03  0.29635371257E+03  0.81441806716E+02 0.  0.
         25    2    1    2    0    0 -0.97063199936E+01 -0.10350539154E+03  0.25208908826E+00  0.16266915608E+03  0.12511439591E+03 0.  0.
         24    2    1    2    0    0 -0.12834039928E+02  0.92348471223E+02  0.19158952818E+03  0.22781339974E+03  0.80619135923E+02 0.  0.
        -11    1    5    5    0    0 -0.65799102601E+01  0.10588605247E+03  0.17995472493E+03  0.20889914875E+03  0.00000000000E+00 0.  1.
         12    1    5    5    0    0 -0.62541296683E+01 -0.13537581243E+02  0.11634803248E+02  0.18914250988E+02  0.00000000000E+00 0. -1.
         13    1    3    3    0    0  0.19533045757E+02  0.44945364910E+02 -0.13263961240E+03  0.14140329728E+03  0.00000000000E+00 0. -1.
        -14    1    3    3    0    0  0.30073141654E+01 -0.33788444594E+02 -0.15119169380E+03  0.15495041529E+03  0.00000000000E+00 0.  1.
          5    1    4    4  501    0 -0.57401126045E+02 -0.18368726565E+02  0.18752753954E+02  0.63256917153E+02  0.41800000000E+01 0.  1.
         -5    1    4    4    0  501  0.47694806051E+02 -0.85136664974E+02 -0.18500664866E+02  0.99412238923E+02  0.41800000000E+01 0.  1.
</event>
<event>
11    1  0.1078607E-008  0.1545035E+03  0.7561462E-02  0.1092364E+00
         22   -1    0    0    0    0  0.00000000000E+00  0.00000000000E+00  0.94642029232E+03  0.94642029232E+03  0.00000000000E+00 0. -1.
         22   -1    0    0    0    0 -0.00000000000E+00 -0.00000000000E+00 -0.14353525611E+03  0.14353525611E+03  0.00000000000E+00 0. -1.
        -24    2    1    2    0    0  0.83680428628E+01 -0.26144610613E+01 -0.87123706809E+02  0.11910188379E+03  0.80733257622E+02 0.  0.
         25    2    1    2    0    0 -0.97932349424E+02 -0.15613137530E+01  0.14287279925E+03  0.21366586812E+03  0.12508910293E+03 0.  0.
         24    2    1    2    0    0  0.89564306561E+02  0.41757748143E+01  0.74713594377E+03  0.75718779652E+03  0.84154849106E+02 0.  0.
        -11    1    5    5    0    0  0.15637596226E+02  0.30281301810E+02  0.10770408699E+03  0.11296752635E+03  0.00000000000E+00 0.  1.
         12    1    5    5    0    0  0.73926710335E+02 -0.26105526995E+02  0.63943185678E+03  0.64422027017E+03  0.00000000000E+00 0. -1.
         11    1    3    3    0    0 -0.24819894504E+02  0.70982717152E+01 -0.79642600105E+02  0.83721899023E+02  0.00000000000E+00 0. -1.
        -12    1    3    3    0    0  0.33187937367E+02 -0.97127327765E+01 -0.74811067045E+01  0.35379984768E+02  0.00000000000E+00 0.  1.
          5    1    4    4  501    0 -0.96041806270E+02  0.38417375027E+02  0.13889074854E+03  0.17322827623E+03  0.41800000000E+01 0.  1.
         -5    1    4    4    0  501 -0.18905431541E+01 -0.39978688780E+02  0.39820507041E+01  0.40437591889E+02  0.41800000000E+01 0.  1.
</event>
<event>
11    1  0.1078607E-008  0.1396569E+03  0.7561462E-02  0.1107942E+00
         22   -1    0    0    0    0  0.00000000000E+00  0.00000000000E+00  0.80102618883E+03  0.80102618883E+03  0.00000000000E+00 0.  1.
         22   -1    0    0    0    0 -0.00000000000E+00 -0.00000000000E+00 -0.57534158763E+03  0.57534158763E+03  0.00000000000E+00 0.  1.
        -24    2    1    2    0    0 -0.30049405158E+01  0.25146829954E+02 -0.47411166392E+03  0.48161887348E+03  0.80829924556E+02 0.  0.
         25    2    1    2    0    0  0.63538651958E+02 -0.37743655244E+02 -0.38145989388E+02  0.15021123888E+03  0.12508619419E+03 0.  0.
         24    2    1    2    0    0 -0.60533711443E+02  0.12596825290E+02  0.73794225451E+03  0.74453766411E+03  0.77165744083E+02 0.  0.
        -13    1    5    5    0    0 -0.58107037174E+02  0.24704481156E+02  0.71996209708E+03  0.72272550833E+03  0.00000000000E+00 0.  1.
         14    1    5    5    0    0 -0.24266742686E+01 -0.12107655866E+02  0.17980157423E+02  0.21812155774E+02  0.00000000000E+00 0. -1.
         13    1    3    3    0    0 -0.14623885879E+02 -0.26579505816E+02 -0.13330542370E+03  0.13671380382E+03  0.00000000000E+00 0. -1.
        -14    1    3    3    0    0  0.11618945364E+02  0.51726335770E+02 -0.34080624022E+03  0.34490506966E+03  0.00000000000E+00 0.  1.
          5    1    4    4  501    0  0.85093916600E+02 -0.64149962429E+02 -0.44010976903E+02  0.11537170715E+03  0.41800000000E+01 0.  1.
         -5    1    4    4    0  501 -0.21555264642E+02  0.26406307184E+02  0.58649875150E+01  0.34839531734E+02  0.41800000000E+01 0.  1.
</event>
<event>
11    1  0.1078607E-008  0.1865125E+03  0.7561462E-02  0.1064493E+00
         22   -1    0    0    0    0  0.00000000000E+00  0.00000000000E+00  0.82440520196E+03  0.82440520196E+03  0.00000000000E+00 0. -1.
         22   -1    0    0    0    0 -0.00000000000E+00 -0.00000000000E+00 -0.25231343584E+03  0.25231343584E+03  0.00000000000E+00 0. -1.
        -24    2    1    2    0    0  0.13438943471E+03  0.78901842946E+02 -0.11925590257E+03  0.21129897761E+03  0.78353472551E+02 0.  0.
         25    2    1    2    0    0 -0.11888515685E+03  0.87686335317E+01  0.93659859719E+01  0.17304600314E+03  0.12508648231E+03 0.  0.
         24    2    1    2    0    0 -0.15504277854E+02 -0.87670476477E+02  0.68198168271E+03  0.69237365705E+03  0.79723085362E+02 0.  0.
        -13    1    5    5    0    0 -0.44420389719E+02 -0.63154357484E+02  0.53677622114E+03  0.54230098237E+03  0.00000000000E+00 0.  1.
         14    1    5    5    0    0  0.28916111865E+02 -0.24516118994E+02  0.14520546157E+03  0.15007267468E+03  0.00000000000E+00 0. -1.
         13    1    3    3    0    0  0.12039520358E+03  0.85750283293E+02 -0.12609051419E+03  0.19428570173E+03  0.00000000000E+00 0. -1.
        -14    1    3    3    0    0  0.13994231127E+02 -0.68484403477E+01  0.68346116205E+01  0.17013275876E+02  0.00000000000E+00 0.  1.
          5    1    4    4  501    0  0.21969367746E+02 -0.16789579457E+02  0.10374441824E+02  0.29826909674E+02  0.41800000000E+01 0.  1.
         -5    1    4    4    0  501 -0.14085452460E+03  0.25558212989E+02 -0.10084558525E+01  0.14321909347E+03  0.41800000000E+01 0.  1.
</event>
<event>
11    1  0.1078607E-008  0.1531926E+03  0.7561462E-02  0.1093661E+00
         22   -1    0    0    0    0  0.00000000000E+00  0.00000000000E+00  0.34352416896E+03  0.34352416896E+03  0.00000000000E+00 0. -1.
         22   -1    0    0    0    0 -0.00000000000E+00 -0.00000000000E+00 -0.47511583133E+03  0.47511583133E+03  0.00000000000E+00 0.  1.
         24    2    1    2    0    0  0.20484916588E+02 -0.29010988621E+02 -0.38486236010E+03  0.39463840806E+03  0.79744389334E+02 0.  0.
         25    2    1    2    0    0 -0.10536598280E+03  0.28462537262E+02  0.26010119086E+02  0.16803733412E+03  0.12509161844E+03 0.  0.
        -24    2    1    2    0    0  0.84881066210E+02  0.54845135929E+00  0.22726057864E+03  0.25596425810E+03  0.81640888166E+02 0.  0.
        -11    1    3    3    0    0  0.49336135968E+02 -0.18029366968E+02 -0.18156159978E+03  0.18900721389E+03  0.00000000000E+00 0.  1.
         12    1    3    3    0    0 -0.28851219380E+02 -0.10981621654E+02 -0.20330076031E+03  0.20563119418E+03  0.00000000000E+00 0. -1.
         11    1    5    5    0    0  0.75663167148E+02 -0.80491616369E+01  0.88840921493E+02  0.11697184788E+03  0.00000000000E+00 0. -1.
        -12    1    5    5    0    0  0.92178990620E+01  0.85976129962E+01  0.13841965715E+03  0.13899241022E+03  0.00000000000E+00 0.  1.
          5    1    4    4  501    0 -0.75746438862E+01  0.58047553326E+02 -0.10185610164E+02  0.59566036728E+02  0.41800000000E+01 0. -1.
         -5    1    4    4    0  501 -0.97791338912E+02 -0.29585016064E+02  0.36195729250E+02  0.10847129739E+03  0.41800000000E+01 0. -1.
</event>
<event>
11    1  0.1078607E-008  0.1541060E+03  0.7561462E-02  0.1092756E+00
         22   -1    0    0    0    0  0.00000000000E+00  0.00000000000E+00  0.18871126201E+04  0.18871126201E+04  0.00000000000E+00 0.  1.
         22   -1    0    0    0    0 -0.00000000000E+00 -0.00000000000E+00 -0.21223862759E+03  0.21223862759E+03  0.00000000000E+00 0.  1.
         24    2    1    2    0    0 -0.19677898598E+01 -0.89496791404E+02 -0.18107507626E+03  0.21773537978E+03  0.81283236247E+02 0.  0.
         25    2    1    2    0    0  0.34152222705E+02  0.10548431095E+03  0.60729403811E+03  0.62987888715E+03  0.12509216435E+03 0.  0.
        -24    2    1    2    0    0 -0.32184432846E+02 -0.15987519548E+02  0.12486550306E+04  0.12517369808E+04  0.80091478453E+02 0.  0.
        -13    1    3    3    0    0  0.12354885312E+02 -0.88788069520E+02 -0.95556946702E+02  0.13102325955E+03  0.00000000000E+00 0.  1.
         14    1    3    3    0    0 -0.14322675172E+02 -0.70872188409E+00 -0.85518129560E+02  0.86712120227E+02  0.00000000000E+00 0. -1.
         13    1    5    5    0    0  0.12639052643E+02  0.22559912045E+02  0.54062217182E+03  0.54124026822E+03  0.00000000000E+00 0. -1.
        -14    1    5    5    0    0 -0.44823485489E+02 -0.38547431593E+02  0.70803285883E+03  0.71049671253E+03  0.00000000000E+00 0.  1.
          5    1    4    4  501    0  0.63359941422E+01  0.10509791586E+03  0.58378298603E+03  0.59321645621E+03  0.41800000000E+01 0.  1.
         -5    1    4    4    0  501  0.27816228563E+02  0.38639509440E+00  0.23511052081E+02  0.36662430943E+02  0.41800000000E+01 0.  1.
</event>
<event>
11    1  0.1078607E-008  0.1720394E+03  0.7561462E-02  0.1076270E+00
         22   -1    0    0    0    0  0.00000000000E+00  0.00000000000E+00  0.32200686425E+03  0.32200686425E+03  0.00000000000E+00 0.  1.
         22   -1    0    0    0    0 -0.00000000000E+00 -0.00000000000E+00 -0.10462139096E+04  0.10462139096E+04  0.00000000000E+00 0. -1.
         24    2    1    2    0    0  0.91593965241E+02  0.66569098670E+02 -0.82607477695E+03  0.83763890382E+03  0.80115521118E+02 0.  0.
         25    2    1    2    0    0 -0.13396267174E+03 -0.88733310425E+02 -0.15607238731E+03  0.25656378954E+03  0.12508713053E+03 0.  0.
        -24    2    1    2    0    0  0.42368706499E+02  0.22164211755E+02  0.25794011892E+03  0.27401808048E+03  0.79160873611E+02 0.  0.
        -11    1    3    3    0    0  0.17634117580E+02 -0.14603133942E+02 -0.70469689623E+02  0.74095821605E+02  0.00000000000E+00 0.  1.
         12    1    3    3    0    0  0.73959847661E+02  0.81172232613E+02 -0.75560508732E+03  0.76354308222E+03  0.00000000000E+00 0. -1.
         11    1    5    5    0    0  0.60491720925E+02  0.14946610553E+02  0.12516371318E+03  0.13981632438E+03  0.00000000000E+00 0. -1.
        -12    1    5    5    0    0 -0.18123014426E+02  0.72176012020E+01  0.13277640574E+03  0.13420175610E+03  0.00000000000E+00 0.  1.
          5    1    4    4  501    0 -0.61707354002E+02 -0.20250563753E+02 -0.14165038468E+03  0.15588517168E+03  0.41800000000E+01 0. -1.
         -5    1    4    4    0  501 -0.72255317739E+02 -0.68482746673E+02 -0.14422002622E+02  0.10067861785E+03  0.41800000000E+01 0. -1.
</event>
<event>
11    1  0.1078607E-008  0.1551129E+03  0.7561462E-02  0.1091766E+00
         22   -1    0    0    0    0  0.00000000000E+00  0.00000000000E+00  0.39026945454E+03  0.39026945454E+03  0.00000000000E+00 0.  1.
         22   -1    0    0    0    0 -0.00000000000E+00 -0.00000000000E+00 -0.26802372751E+03  0.26802372751E+03  0.00000000000E+00 0. -1.
         24    2    1    2    0    0 -0.94106450497E+02  0.10175539023E+02 -0.20847496808E+03  0.24255014300E+03  0.80057441468E+02 0.  0.
         25    2    1    2    0    0  0.67281001754E+02  0.56089450854E+01  0.11284383340E+03  0.18149141992E+03  0.12508881368E+03 0.  0.
        -24    2    1    2    0    0  0.26825448743E+02 -0.15784484108E+02  0.21787686172E+03  0.23425161912E+03  0.80216828326E+02 0.  0.
        -11    1    3    3    0    0  0.65173851482E+01 -0.36610762180E+01  0.29156843746E+01  0.80237773907E+01  0.00000000000E+00 0.  1.
         12    1    3    3    0    0 -0.10062383565E+03  0.13836615241E+02 -0.21139065246E+03  0.23452636561E+03  0.00000000000E+00 0. -1.
         13    1    5    5    0    0 -0.52573052326E+01  0.14224383366E+02  0.36915923832E+01  0.15607696652E+02  0.00000000000E+00 0. -1.
        -14    1    5    5    0    0  0.32082753976E+02 -0.30008867474E+02  0.21418526934E+03  0.21864392247E+03  0.00000000000E+00 0.  1.
          5    1    4    4  501    0  0.52564648370E+02  0.63340088585E+02  0.64645487021E+02  0.10474502600E+03  0.41800000000E+01 0. -1.
         -5    1    4    4    0  501  0.14716353384E+02 -0.57731143500E+02  0.48198346375E+02  0.76746393922E+02  0.41800000000E+01 0. -1.
</event>
<event>
11    1  0.1078607E-008  0.1301396E+03  0.7561462E-02  0.1119098E+00
         22   -1    0    0    0    0  0.00000000000E+00  0.00000000000E+00  0.20458717724E+04  0.20458717724E+04  0.00000000000E+00 0.  1.
         22   -1    0    0    0    0 -0.00000000000E+00 -0.00000000000E+00 -0.41378248840E+03  0.41378248840E+03  0.00000000000E+00 0. -1.
        -24    2    1    2    0    0 -0.29601872250E+02  0.10165600796E+02 -0.34532907531E+03  0.35622932734E+03  0.81655086340E+02 0.  0.
         25    2    1    2    0    0  0.45516102748E+02  0.21957724282E+02  0.11358684250E+02  0.13538553101E+03  0.12508543095E+03 0.  0.
         24    2    1    2    0    0 -0.15914230498E+02 -0.32123325077E+02  0.19660596751E+04  0.19680394024E+04  0.80642872637E+02 0.  0.
        -13    1    5    5    0    0 -0.25589214242E+02 -0.51579685186E+02  0.17363217007E+04  0.17372761208E+04  0.00000000000E+00 0.  1.
         14    1    5    5    0    0  0.96749837444E+01  0.19456360108E+02  0.22973797438E+03  0.23076328159E+03  0.00000000000E+00 0. -1.
         13    1    3    3    0    0 -0.45167687850E+02 -0.22283238002E+02 -0.22839321696E+03  0.23388057695E+03  0.00000000000E+00 0. -1.
        -14    1    3    3    0    0  0.15565815600E+02  0.32448838798E+02 -0.11693585835E+03  0.12234875039E+03  0.00000000000E+00 0.  1.
          5    1    4    4  501    0  0.62161981233E+01  0.62809413523E+02  0.36724105025E+02  0.73142298543E+02  0.41800000000E+01 0. -1.
         -5    1    4    4    0  501  0.39299904624E+02 -0.40851689241E+02 -0.25365420775E+02  0.62243232471E+02  0.41800000000E+01 0. -1.
</event>
<event>
11    1  0.1078607E-008  0.1405513E+03  0.7561462E-02  0.1106944E+00
         22   -1    0    0    0    0  0.00000000000E+00  0.00000000000E+00  0.29827366015E+03  0.29827366015E+03  0.00000000000E+00 0.  1.
         22   -1    0    0    0    0 -0.00000000000E+00 -0.00000000000E+00 -0.58792339939E+03  0.58792339939E+03  0.00000000000E+00 0. -1.
        -24    2    1    2    0    0 -0.53313658587E+02 -0.28095011802E+02 -0.44141405074E+03  0.45475899230E+03  0.91256238216E+02 0.  0.
         25    2    1    2    0    0  0.70028647864E+02  0.59893053859E+02 -0.86260195183E+02  0.17770640633E+03  0.12509019209E+03 0.  0.
         24    2    1    2    0    0 -0.16714989278E+02 -0.31798042057E+02  0.23802450668E+03  0.25373166089E+03  0.80209622951E+02 0.  0.
        -13    1    5    5    0    0  0.17699102992E+02 -0.33658664027E+02  0.19465932934E+03  0.19833914997E+03  0.00000000000E+00 0.  1.
         14    1    5    5    0    0 -0.34414092270E+02  0.18606219698E+01  0.43365177341E+02  0.55392510926E+02  0.00000000000E+00 0. -1.
         11    1    3    3    0    0 -0.33297218208E+02 -0.59552266829E+02 -0.33827828447E+03  0.34509038666E+03  0.00000000000E+00 0. -1.
        -12    1    3    3    0    0 -0.20016440379E+02  0.31457255027E+02 -0.10313576627E+03  0.10966860564E+03  0.00000000000E+00 0.  1.
          5    1    4    4  501    0 -0.24879977280E+02  0.52142734491E+02 -0.18677875784E+02  0.60862249987E+02  0.41800000000E+01 0.  1.
         -5    1    4    4    0  501  0.94908625144E+02  0.77503193681E+01 -0.67582319399E+02  0.11684415635E+03  0.41800000000E+01 0.  1.
</event>
<event>
11    1  0.1078607E-008  0.1943155E+03  0.7561462E-02  0.1058618E+00
         22   -1    0    0    0    0  0.00000000000E+00  0.00000000000E+00  0.19700559787E+03  0.19700559787E+03  0.00000000000E+00 0.  1.
         22   -1    0    0    0    0 -0.00000000000E+00 -0.00000000000E+00 -0.10757357331E+04  0.10757357331E+04  0.00000000000E+00 0. -1.
         24    2    1    2    0    0 -0.16668578333E+02 -0.43203980926E+02 -0.73245819787E+03  0.73827713602E+03  0.80085532243E+02 0.  0.
         25    2    1    2    0    0  0.64410739447E+02 -0.10248849716E+03 -0.27038165050E+03  0.32157360669E+03  0.12510280647E+03 0.  0.
        -24    2    1    2    0    0 -0.47742161113E+02  0.14569247808E+03  0.12410971313E+03  0.21289058827E+03  0.80084764862E+02 0.  0.
        -13    1    3    3    0    0 -0.82204332773E+01 -0.16373582999E+02 -0.29300577716E+02  0.34557106331E+02  0.00000000000E+00 0.  1.
         14    1    3    3    0    0 -0.84481450562E+01 -0.26830397927E+02 -0.70315762015E+03  0.70372002969E+03  0.00000000000E+00 0. -1.
         13    1    5    5    0    0  0.22467298027E+02  0.42138888653E+02  0.30977764847E+02  0.56921765015E+02  0.00000000000E+00 0. -1.
        -14    1    5    5    0    0 -0.70209459140E+02  0.10355358943E+03  0.93131948280E+02  0.15596882325E+03  0.00000000000E+00 0.  1.
          5    1    4    4  501    0  0.94659342886E+02 -0.56452349732E+02 -0.12865128436E+03  0.16945761816E+03  0.41800000000E+01 0.  1.
         -5    1    4    4    0  501 -0.30248603439E+02 -0.46036147426E+02 -0.14173036614E+03  0.15211598853E+03  0.41800000000E+01 0.  1.
</event>
<event>
11    1  0.1078607E-008  0.1350465E+03  0.7561462E-02  0.1113219E+00
         22   -1    0    0    0    0  0.00000000000E+00  0.00000000000E+00  0.79839979271E+03  0.79839979271E+03  0.00000000000E+00 0.  1.
         22   -1    0    0    0    0 -0.00000000000E+00 -0.00000000000E+00 -0.56047478285E+02  0.56047478285E+02  0.00000000000E+00 0.  1.
         24    2    1    2    0    0 -0.49187088417E+02 -0.11465738348E+02  0.76990283503E+02  0.12305959922E+03  0.81641462398E+02 0.  0.
         25    2    1    2    0    0  0.53318129654E+02 -0.10022186083E+02  0.12625661059E+03  0.18582629542E+03  0.12508962062E+03 0.  0.
        -24    2    1    2    0    0 -0.41310412369E+01  0.21487924432E+02  0.53910542033E+03  0.54556137636E+03  0.80769825711E+02 0.  0.
        -13    1    3    3    0    0 -0.43564396885E+02 -0.29480674176E+02  0.10106152571E+02  0.53563991129E+02  0.00000000000E+00 0.  1.
         14    1    3    3    0    0 -0.56226915323E+01  0.18014935828E+02  0.66884130931E+02  0.69495608087E+02  0.00000000000E+00 0. -1.
         13    1    5    5    0    0 -0.22390150390E+02 -0.17229829945E+02  0.37160610664E+03  0.37267852684E+03  0.00000000000E+00 0. -1.
        -14    1    5    5    0    0  0.18259109153E+02  0.38717754377E+02  0.16749931369E+03  0.17288284952E+03  0.00000000000E+00 0.  1.
          5    1    4    4  501    0  0.31406967728E+01 -0.52043558439E+02  0.11352066683E+02  0.53523245130E+02  0.41800000000E+01 0.  1.
         -5    1    4    4    0  501  0.50177432881E+02  0.42021372356E+02  0.11490454390E+03  0.13230305029E+03  0.41800000000E+01 0.  1.
</event>
<event>
11    1  0.1078607E-008  0.1725837E+03  0.7561462E-02  0.1075805E+00
         22   -1    0    0    0    0  0.00000000000E+00  0.00000000000E+00  0.18908340580E+04  0.18908340580E+04  0.00000000000E+00 0.  1.
         22   -1    0    0    0    0 -0.00000000000E+00 -0.00000000000E+00 -0.10536970584E+03  0.10536970584E+03  0.00000000000E+00 0. -1.
        -24    2    1    2    0    0  0.83479511165E+02  0.66167216647E+02 -0.10946479635E+02  0.13317106919E+03  0.79169305347E+02 0.  0.
         25    2    1    2    0    0 -0.19183288060E+03 -0.78186126605E+02  0.46286225939E+03  0.52230434969E+03  0.12508972006E+03 0.  0.
         24    2    1    2    0    0  0.10835336944E+03  0.12018909958E+02  0.13335485724E+04  0.13407283449E+04  0.85532410091E+02 0.  0.
        -13    1    5    5    0    0  0.90470999025E+02 -0.22573915212E+02  0.11010383411E+04  0.11049796432E+04  0.00000000000E+00 0.  1.
         14    1    5    5    0    0  0.17882370413E+02  0.34592825170E+02  0.23251023130E+03  0.23574870177E+03  0.00000000000E+00 0. -1.
         11    1    3    3    0    0  0.50956354586E+02  0.54997853052E+02 -0.42770703169E+02  0.86317130180E+02  0.00000000000E+00 0. -1.
        -12    1    3    3    0    0  0.32523156579E+02  0.11169363595E+02  0.31824223534E+02  0.46853939008E+02  0.00000000000E+00 0.  1.
          5    1    4    4  501    0 -0.11747574368E+03 -0.10708603574E+03  0.34547283063E+03  0.38031160712E+03  0.41800000000E+01 0. -1.
         -5    1    4    4    0  501 -0.74357136920E+02  0.28899909139E+02  0.11738942876E+03  0.14199274258E+03  0.41800000000E+01 0. -1.
</event>
<event>
11    1  0.1078607E-008  0.1350001E+03  0.7561462E-02  0.1113274E+00
         22   -1    0    0    0    0  0.00000000000E+00  0.00000000000E+00  0.64520977749E+02  0.64520977749E+02  0.00000000000E+00 0.  1.
         22   -1    0    0    0    0 -0.00000000000E+00 -0.00000000000E+00 -0.11839489776E+04  0.11839489776E+04  0.00000000000E+00 0.  1.
         24    2    1    2    0    0 -0.46789579032E+02  0.17078816307E+02 -0.85914867662E+03  0.86421258803E+03  0.79031627207E+02 0.  0.
         25    2    1    2    0    0  0.59217054248E+02 -0.36057159097E+01 -0.26229908532E+03  0.29659496517E+03  0.12509237590E+03 0.  0.
        -24    2    1    2    0    0 -0.12427475216E+02 -0.13473100397E+02  0.20197621243E+01  0.87662402107E+02  0.85700937740E+02 0.  0.
        -11    1    3    3    0    0 -0.61810395469E+02 -0.64861018776E+01 -0.68756174636E+03  0.69036493941E+03  0.00000000000E+00 0.  1.
         12    1    3    3    0    0  0.15020816437E+02  0.23564918184E+02 -0.17158693027E+03  0.17384764863E+03  0.00000000000E+00 0. -1.
         11    1    5    5    0    0  0.25896413249E+02  0.23024154471E+02  0.24526784105E+01  0.34738329546E+02  0.00000000000E+00 0. -1.
        -12    1    5    5    0    0 -0.38323888464E+02 -0.36497254868E+02 -0.43291628616E+00  0.52924072561E+02  0.00000000000E+00 0.  1.
          5    1    4    4  501    0 -0.29180102445E+02  0.13995313541E+02 -0.20567109740E+02  0.38572342201E+02  0.41800000000E+01 0.  1.
         -5    1    4    4    0  501  0.88397156693E+02 -0.17601029450E+02 -0.24173197558E+03  0.25802262297E+03  0.41800000000E+01 0.  1.
</event>
<event>
11    1  0.1078607E-008  0.1402388E+03  0.7561462E-02  0.1107292E+00
         22   -1    0    0    0    0  0.00000000000E+00  0.00000000000E+00  0.17631584663E+04  0.17631584663E+04  0.00000000000E+00 0.  1.
         22   -1    0    0    0    0 -0.00000000000E+00 -0.00000000000E+00 -0.18174222461E+03  0.18174222461E+03  0.00000000000E+00 0.  1.
         24    2    1    2    0    0  0.39227487431E+02 -0.16049794752E+02 -0.15827714950E+03  0.18154586235E+03  0.78171941275E+02 0.  0.
         25    2    1    2    0    0 -0.45743353771E+02  0.74662330347E+02  0.60283033336E+03  0.62187195329E+03  0.12511353837E+03 0.  0.
        -24    2    1    2    0    0  0.65158663402E+01 -0.58612535595E+02  0.11368630579E+04  0.11414828753E+04  0.83950321216E+02 0.  0.
        -11    1    3    3    0    0  0.59483064086E+02  0.10907720717E+01 -0.12885273114E+03  0.14192410302E+03  0.00000000000E+00 0.  1.
         12    1    3    3    0    0 -0.20255576655E+02 -0.17140566824E+02 -0.29424418360E+02  0.39621759331E+02  0.00000000000E+00 0. -1.
         11    1    5    5    0    0 -0.15272707323E+02 -0.15678775722E+01  0.38857244217E+02  0.41780369281E+02  0.00000000000E+00 0. -1.
        -12    1    5    5    0    0  0.21788573663E+02 -0.57044658023E+02  0.10980058137E+04  0.10997025060E+04  0.00000000000E+00 0.  1.
          5    1    4    4  501    0 -0.70524259918E+02  0.37045086852E+02  0.18325372121E+03  0.19986347449E+03  0.41800000000E+01 0.  1.
         -5    1    4    4    0  501  0.24780906147E+02  0.37617243495E+02  0.41957661215E+03  0.42200847880E+03  0.41800000000E+01 0.  1.
</event>
<event>
11    1  0.1078607E-008  0.1352642E+03  0.7561462E-02  0.1112965E+00
         22   -1    0    0    0    0  0.00000000000E+00  0.00000000000E+00  0.56966532989E+03  0.56966532989E+03  0.00000000000E+00 0. -1.
         22   -1    0    0    0    0 -0.00000000000E+00 -0.00000000000E+00 -0.16221256235E+04  0.16221256235E+04  0.00000000000E+00 0. -1.
        -24    2    1    2    0    0  0.26503685837E+02 -0.44436653742E+02 -0.15165529677E+04  0.15196619384E+04  0.82234065604E+02 0.  0.
         25    2    1    2    0    0  0.30719518341E+01  0.52185362921E+02 -0.54723830562E+02  0.14620079407E+03  0.12508887067E+03 0.  0.
         24    2    1    2    0    0 -0.29575637671E+02 -0.77487091791E+01  0.51881650466E+03  0.52592822094E+03  0.80592600426E+02 0.  0.
        -13    1    5    5    0    0 -0.60999723039E+01  0.14616929914E+02  0.17653020057E+02  0.23716943719E+02  0.00000000000E+00 0.  1.
         14    1    5    5    0    0 -0.23475665367E+02 -0.22365639093E+02  0.50116348460E+03  0.50221127723E+03  0.00000000000E+00 0. -1.
         11    1    3    3    0    0 -0.15864353264E+02 -0.18613490951E+02 -0.10834638861E+04  0.10837398822E+04  0.00000000000E+00 0. -1.
        -12    1    3    3    0    0  0.42368039101E+02 -0.25823162791E+02 -0.43308908164E+03  0.43592205623E+03  0.00000000000E+00 0.  1.
          5    1    4    4  501    0  0.54292935451E+02 -0.88106064691E+00 -0.32758946538E+00  0.54461718873E+02  0.41800000000E+01 0. -1.
         -5    1    4    4    0  501 -0.51220983617E+02  0.53066423568E+02 -0.54396241097E+02  0.91739075199E+02  0.41800000000E+01 0. -1.
</event>
<event>
11    1  0.1078607E-008  0.5100646E+03  0.7561462E-02  0.9371309E-01
         22   -1    0    0    0    0  0.00000000000E+00  0.00000000000E+00  0.13323452031E+04  0.13323452031E+04  0.00000000000E+00 0. -1.
         22   -1    0    0    0    0 -0.00000000000E+00 -0.00000000000E+00 -0.37613168138E+03  0.37613168138E+03  0.00000000000E+00 0. -1.
         24    2    1    2    0    0 -0.90559890478E+02 -0.77216474408E+02 -0.15882663146E+02  0.14511050528E+03  0.81494306979E+02 0.  0.
         25    2    1    2    0    0 -0.28677909516E+03  0.40191591614E+03  0.49376210864E+02  0.51172541762E+03  0.12508493026E+03 0.  0.
        -24    2    1    2    0    0  0.37733898564E+03 -0.32469944173E+03  0.92271997401E+03  0.10516409616E+04  0.81988560889E+02 0.  0.
        -11    1    3    3    0    0 -0.10355922136E+03 -0.74892677290E+02 -0.23382939312E+02  0.12992377492E+03  0.00000000000E+00 0.  1.
         12    1    3    3    0    0  0.12999330877E+02 -0.23237971173E+01  0.75002761664E+01  0.15186730355E+02  0.00000000000E+00 0. -1.
         11    1    5    5    0    0  0.36025942124E+03 -0.29139986945E+03  0.81375375319E+03  0.93642720238E+03  0.00000000000E+00 0. -1.
        -12    1    5    5    0    0  0.17079564399E+02 -0.33299572277E+02  0.10896622082E+03  0.11521375922E+03  0.00000000000E+00 0.  1.
          5    1    4    4  501    0 -0.29918207140E+03  0.38375433044E+03  0.50996413362E+02  0.48928049680E+03  0.41800000000E+01 0. -1.
         -5    1    4    4    0  501  0.12402976235E+02  0.18161585702E+02 -0.16202024972E+01  0.22444920824E+02  0.41800000000E+01 0. -1.
</event>
<event>
11    1  0.1078607E-008  0.1557628E+03  0.7561462E-02  0.1091132E+00
         22   -1    0    0    0    0  0.00000000000E+00  0.00000000000E+00  0.12672567587E+03  0.12672567587E+03  0.00000000000E+00 0.  1.
         22   -1    0    0    0    0 -0.00000000000E+00 -0.00000000000E+00 -0.10496171836E+04  0.10496171836E+04  0.00000000000E+00 0.  1.
        -24    2    1    2    0    0 -0.67417889326E+02  0.33608469066E+02 -0.79884030656E+03  0.80622984731E+03  0.78651321159E+02 0.  0.
         25    2    1    2    0    0  0.14449709605E+03 -0.54261185292E+02 -0.15516585700E+03  0.25208493035E+03  0.12508669768E+03 0.  0.
         24    2    1    2    0    0 -0.77079206720E+02  0.20652716226E+02  0.31114655814E+02  0.11802808181E+03  0.81208173809E+02 0.  0.
        -11    1    5    5    0    0 -0.69402203774E+02  0.40262458182E+02  0.45769388473E+02  0.92371902377E+02  0.00000000000E+00 0.  1.
         12    1    5    5    0    0 -0.76770029464E+01 -0.19609741956E+02 -0.14654732659E+02  0.25656179434E+02  0.00000000000E+00 0. -1.
         11    1    3    3    0    0  0.17645101285E+02  0.11281400749E+02 -0.15972979947E+03  0.16109695354E+03  0.00000000000E+00 0. -1.
        -12    1    3    3    0    0 -0.85062990611E+02  0.22327068318E+02 -0.63911050709E+03  0.64513289377E+03  0.00000000000E+00 0.  1.
          5    1    4    4  501    0  0.11424263973E+03  0.12070233875E+02 -0.13294813066E+03  0.17575479830E+03  0.41800000000E+01 0.  1.
         -5    1    4    4    0  501  0.30254456315E+02 -0.66331419167E+02 -0.22217726339E+02  0.76330132053E+02  0.41800000000E+01 0.  1.
</event>
<event>
11    1  0.1078607E-008  0.1277174E+03  0.7561462E-02  0.1122106E+00
         22   -1    0    0    0    0  0.00000000000E+00  0.00000000000E+00  0.14142025560E+04  0.14142025560E+04  0.00000000000E+00 0.  1.
         22   -1    0    0    0    0 -0.00000000000E+00 -0.00000000000E+00 -0.15926552403E+03  0.15926552403E+03  0.00000000000E+00 0.  1.
        -24    2    1    2    0    0 -0.23363790557E+02  0.38916740732E+01 -0.12639208100E+03  0.14810092949E+03  0.73470506599E+02 0.  0.
         25    2    1    2    0    0  0.47002525570E+02 -0.92258284307E+01  0.19694248600E+03  0.23818071845E+03  0.12509739619E+03 0.  0.
         24    2    1    2    0    0 -0.23638735013E+02  0.53341543575E+01  0.11843866270E+04  0.11871864321E+04  0.77799096427E+02 0.  0.
        -13    1    5    5    0    0  0.68485624969E+01 -0.18734147349E+02  0.89294505372E+03  0.89316781181E+03  0.00000000000E+00 0.  1.
         14    1    5    5    0    0 -0.30487297510E+02  0.24068301706E+02  0.29144157325E+03  0.29401862028E+03  0.00000000000E+00 0. -1.
         11    1    3    3    0    0  0.18119739912E+02  0.22657339511E+02 -0.31340593485E+02  0.42707292213E+02  0.00000000000E+00 0. -1.
        -12    1    3    3    0    0 -0.41483530469E+02 -0.18765665438E+02 -0.95051487514E+02  0.10539363728E+03  0.00000000000E+00 0.  1.
          5    1    4    4  501    0 -0.15111203187E+01 -0.57031442655E+02  0.49243034240E+02  0.75479916250E+02  0.41800000000E+01 0.  1.
         -5    1    4    4    0  501  0.48513645889E+02  0.47805614224E+02  0.14769945176E+03  0.16270080220E+03  0.41800000000E+01 0.  1.
</event>
<event>
11    1  0.1078607E-008  0.2801854E+03  0.7561462E-02  0.1008944E+00
         22   -1    0    0    0    0  0.00000000000E+00  0.00000000000E+00  0.84484554401E+03  0.84484554401E+03  0.00000000000E+00 0.  1.
         22   -1    0    0    0    0 -0.00000000000E+00 -0.00000000000E+00 -0.18161030431E+03  0.18161030431E+03  0.00000000000E+00 0.  1.
        -24    2    1    2    0    0  0.20773100259E+03 -0.11155279802E+03  0.71426733229E+02  0.25890384151E+03  0.79581560337E+02 0.  0.
         25    2    1    2    0    0 -0.19733468801E+03  0.21120121628E+03  0.24258616308E+03  0.39754540561E+03  0.12508944863E+03 0.  0.
         24    2    1    2    0    0 -0.10396314577E+02 -0.99648418259E+02  0.34922234340E+03  0.37000660120E+03  0.70076737820E+02 0.  0.
        -13    1    5    5    0    0  0.56035381968E+01 -0.10500009242E+03  0.30851556644E+03  0.32594213257E+03  0.00000000000E+00 0.  1.
         14    1    5    5    0    0 -0.15999852774E+02  0.53516741627E+01  0.40706776962E+02  0.44064468631E+02  0.00000000000E+00 0. -1.
         11    1    3    3    0    0  0.11136062364E+02  0.25524507186E+01  0.24169937616E+02  0.26734112553E+02  0.00000000000E+00 0. -1.
        -12    1    3    3    0    0  0.19659494023E+03 -0.11410524874E+03  0.47256795613E+02  0.23216972896E+03  0.00000000000E+00 0.  1.
          5    1    4    4  501    0 -0.32477403436E+02  0.40833106084E+02 -0.75557882650E+01  0.52883708482E+02  0.41800000000E+01 0.  1.
         -5    1    4    4    0  501 -0.16485728458E+03  0.17036811019E+03  0.25014195134E+03  0.34466169713E+03  0.41800000000E+01 0.  1.
</event>
<event>
11    1  0.1078607E-008  0.2345466E+03  0.7561462E-02  0.1032469E+00
         22   -1    0    0    0    0  0.00000000000E+00  0.00000000000E+00  0.91860251846E+03  0.91860251846E+03  0.00000000000E+00 0.  1.
         22   -1    0    0    0    0 -0.00000000000E+00 -0.00000000000E+00 -0.75803114854E+03  0.75803114854E+03  0.00000000000E+00 0. -1.
        -24    2    1    2    0    0  0.84745045209E+02 -0.16185614474E+03 -0.42861019199E+03  0.47336438408E+03  0.83594313002E+02 0.  0.
         25    2    1    2    0    0 -0.87759265653E+02  0.22594290413E+03 -0.24271855751E+03  0.36511746008E+03  0.12508627765E+03 0.  0.
         24    2    1    2    0    0  0.30142204448E+01 -0.64086759396E+02  0.83190011942E+03  0.83815182284E+03  0.79526543886E+02 0.  0.
        -11    1    5    5    0    0  0.12002276429E+02 -0.71374989688E+02  0.81131683115E+03  0.81453879239E+03  0.00000000000E+00 0.  1.
         12    1    5    5    0    0 -0.89880559847E+01  0.72882302927E+01  0.20583288264E+02  0.23613030448E+02  0.00000000000E+00 0. -1.
         11    1    3    3    0    0  0.10097610600E+03 -0.14907709526E+03 -0.37769839997E+03  0.41842112238E+03  0.00000000000E+00 0. -1.
        -12    1    3    3    0    0 -0.16231060794E+02 -0.12779049475E+02 -0.50911792021E+02  0.54943261705E+02  0.00000000000E+00 0.  1.
          5    1    4    4  501    0 -0.18420714495E+02  0.16080920645E+02  0.12245797559E+02  0.27664972242E+02  0.41800000000E+01 0. -1.
         -5    1    4    4    0  501 -0.69338551159E+02  0.20986198349E+03 -0.25496435507E+03  0.33745248783E+03  0.41800000000E+01 0. -1.
</event>
<event>
11    1  0.1078607E-008  0.1293134E+03  0.7561462E-02  0.1120115E+00
         22   -1    0    0    0    0  0.00000000000E+00  0.00000000000E+00  0.72433693851E+03  0.72433693851E+03  0.00000000000E+00 0.  1.
         22   -1    0    0    0    0 -0.00000000000E+00 -0.00000000000E+00 -0.56412373932E+03  0.56412373932E+03  0.00000000000E+00 0. -1.
         24    2    1    2    0    0 -0.12366127916E+02 -0.85849377372E+01 -0.51512394553E+03  0.52173881721E+03  0.81437656254E+02 0.  0.
         25    2    1    2    0    0 -0.17911151571E+02  0.22349510917E+02  0.53486615283E+02  0.13902787548E+03  0.12509045590E+03 0.  0.
        -24    2    1    2    0    0  0.30277279487E+02 -0.13764573180E+02  0.62185052943E+03  0.62769398514E+03  0.78711377233E+02 0.  0.
        -13    1    3    3    0    0 -0.11097736741E+02  0.10131214451E+02 -0.14894249040E+02  0.21157502723E+02  0.00000000000E+00 0.  1.
         14    1    3    3    0    0 -0.12683911749E+01 -0.18716152188E+02 -0.50022969649E+03  0.50058131449E+03  0.00000000000E+00 0. -1.
         11    1    5    5    0    0  0.75510238811E+01  0.27340754464E+02  0.10666907030E+03  0.11037583692E+03  0.00000000000E+00 0. -1.
        -12    1    5    5    0    0  0.22726255606E+02 -0.41105327644E+02  0.51518145913E+03  0.51731814823E+03  0.00000000000E+00 0.  1.
          5    1    4    4  501    0  0.23881268949E+02 -0.20852651071E+02 -0.24636640844E+02  0.40368112854E+02  0.41800000000E+01 0.  1.
         -5    1    4    4    0  501 -0.41792420520E+02  0.43202161988E+02  0.78123256127E+02  0.98659762625E+02  0.41800000000E+01 0.  1.
</event>
<event>
11    1  0.1078607E-008  0.1356445E+03  0.7561462E-02  0.1112522E+00
         22   -1    0    0    0    0  0.00000000000E+00  0.00000000000E+00  0.58704416498E+02  0.58704416498E+02  0.00000000000E+00 0.  1.
         22   -1    0    0    0    0 -0.00000000000E+00 -0.00000000000E+00 -0.16900034958E+04  0.16900034958E+04  0.00000000000E+00 0.  1.
         24    2    1    2    0    0  0.12390022197E+02 -0.16292420034E+02 -0.12656169942E+04  0.12683415987E+04  0.80529990452E+02 0.  0.
         25    2    1    2    0    0 -0.41565422378E+02  0.56812727893E+02 -0.35694407519E+03  0.38472368508E+03  0.12509144920E+03 0.  0.
        -24    2    1    2    0    0  0.29175400181E+02 -0.40520307859E+02 -0.87380099120E+01  0.95642628523E+02  0.81105241808E+02 0.  0.
        -11    1    3    3    0    0  0.82289026602E+01 -0.59781454331E+01 -0.12439062877E+04  0.12439478710E+04  0.00000000000E+00 0.  1.
         12    1    3    3    0    0  0.41611195368E+01 -0.10314274601E+02 -0.21710706493E+02  0.24393727734E+02  0.00000000000E+00 0. -1.
         13    1    5    5    0    0  0.44711046549E+02 -0.52458158523E+02 -0.21568429199E+02  0.72222802613E+02  0.00000000000E+00 0. -1.
        -14    1    5    5    0    0 -0.15535646369E+02  0.11937850664E+02  0.12830419287E+02  0.23419825910E+02  0.00000000000E+00 0.  1.
          5    1    4    4  501    0  0.26163034042E+02  0.10448717397E+02 -0.24060144244E+03  0.24228125505E+03  0.41800000000E+01 0. -1.
         -5    1    4    4    0  501 -0.67728456419E+02  0.46364010497E+02 -0.11634263275E+03  0.14244243003E+03  0.41800000000E+01 0. -1.
</event>
<event>
11    1  0.1078607E-008  0.1441169E+03  0.7561462E-02  0.1103046E+00
         22   -1    0    0    0    0  0.00000000000E+00  0.00000000000E+00  0.11608099776E+04  0.11608099776E+04  0.00000000000E+00 0. -1.
         22   -1    0    0    0    0 -0.00000000000E+00 -0.00000000000E+00 -0.31805926815E+03  0.31805926815E+03  0.00000000000E+00 0.  1.
         24    2    1    2    0    0  0.19852379320E+02 -0.75585500810E+02 -0.26676780634E+03  0.28938641729E+03  0.80449680643E+02 0.  0.
         25    2    1    2    0    0  0.86006551956E+01  0.12286182019E+02  0.68841763872E+02  0.14356710732E+03  0.12508958515E+03 0.  0.
        -24    2    1    2    0    0 -0.28453034515E+02  0.63299318790E+02  0.10406767519E+04  0.10459157211E+04  0.78199839114E+02 0.  0.
        -13    1    3    3    0    0  0.11534205387E+02  0.24386757010E+01 -0.13864427274E+03  0.13914459888E+03  0.00000000000E+00 0.  1.
         14    1    3    3    0    0  0.83181739324E+01 -0.78024176511E+02 -0.12812353359E+03  0.15024181840E+03  0.00000000000E+00 0. -1.
         13    1    5    5    0    0 -0.44104323030E+02  0.67136601538E+02  0.97450295304E+03  0.97780801800E+03  0.00000000000E+00 0. -1.
        -14    1    5    5    0    0  0.15651288514E+02 -0.38372827478E+01  0.66173798877E+02  0.68107703154E+02  0.00000000000E+00 0.  1.
          5    1    4    4  501    0 -0.10219096862E+02  0.66115375568E+02  0.25097068831E+02  0.71575191869E+02  0.41800000000E+01 0. -1.
         -5    1    4    4    0  501  0.18819752057E+02 -0.53829193549E+02  0.43744695041E+02  0.71991915448E+02  0.41800000000E+01 0. -1.
</event>
<event>
11    1  0.1078607E-008  0.2499679E+03  0.7561462E-02  0.1023916E+00
         22   -1    0    0    0    0  0.00000000000E+00  0.00000000000E+00  0.83707689762E+03  0.83707689762E+03  0.00000000000E+00 0. -1.
         22   -1    0    0    0    0 -0.00000000000E+00 -0.00000000000E+00 -0.12569675120E+04  0.12569675120E+04  0.00000000000E+00 0. -1.
         24    2    1    2    0    0  0.45544500808E+02 -0.69844282877E+02 -0.90765678651E+03  0.91500743322E+03  0.80282223132E+02 0.  0.
         25    2    1    2    0    0 -0.10682714321E+03  0.27326222865E+03 -0.25107785975E+03  0.40592026548E+03  0.12508751393E+03 0.  0.
        -24    2    1    2    0    0  0.61282642398E+02 -0.20341794577E+03  0.73884403184E+03  0.77311671095E+03  0.81758928794E+02 0.  0.
        -11    1    3    3    0    0  0.33878591676E+02 -0.24320158724E+02 -0.14430458627E+03  0.15020999538E+03  0.00000000000E+00 0.  1.
         12    1    3    3    0    0  0.11665909132E+02 -0.45524124154E+02 -0.76335220024E+03  0.76479743784E+03  0.00000000000E+00 0. -1.
         11    1    5    5    0    0  0.77378770802E+02 -0.15380506980E+03  0.50557811345E+03  0.53409053770E+03  0.00000000000E+00 0. -1.
        -12    1    5    5    0    0 -0.16096128404E+02 -0.49612875975E+02  0.23326591839E+03  0.23902617325E+03  0.00000000000E+00 0.  1.
          5    1    4    4  501    0 -0.71555651338E+02  0.38504048347E+02 -0.58563999633E+02  0.10024962559E+03  0.41800000000E+01 0.  1.
         -5    1    4    4    0  501 -0.35271491868E+02  0.23475818030E+03 -0.19251386011E+03  0.30567063989E+03  0.41800000000E+01 0.  1.
</event>
<event>
11    1  0.1078607E-008  0.2862745E+03  0.7561462E-02  0.1006173E+00
         22   -1    0    0    0    0  0.00000000000E+00  0.00000000000E+00  0.54247842998E+03  0.54247842998E+03  0.00000000000E+00 0. -1.
         22   -1    0    0    0    0 -0.00000000000E+00 -0.00000000000E+00 -0.35446474531E+03  0.35446474531E+03  0.00000000000E+00 0.  1.
        -24    2    1    2    0    0 -0.11318561096E+03 -0.20989774248E+03 -0.85427490859E+02  0.26570216871E+03  0.80198138612E+02 0.  0.
         25    2    1    2    0    0 -0.88327448244E+01  0.33923910727E+03  0.11258490394E+03  0.37879285510E+03  0.12508987647E+03 0.  0.
         24    2    1    2    0    0  0.12201835579E+03 -0.12934136479E+03  0.16085627159E+03  0.25244815149E+03  0.78978866077E+02 0.  0.
        -11    1    5    5    0    0  0.23982467564E+01 -0.21979394483E+02 -0.36996609181E+01  0.22417244707E+02  0.00000000000E+00 0.  1.
         12    1    5    5    0    0  0.11962010903E+03 -0.10736197031E+03  0.16455593251E+03  0.23003090679E+03  0.00000000000E+00 0. -1.
         13    1    3    3    0    0 -0.41987172225E+02 -0.12194111264E+03 -0.92699902559E+01  0.12930000117E+03  0.00000000000E+00 0. -1.
        -14    1    3    3    0    0 -0.71198438738E+02 -0.87956629831E+02 -0.76157500603E+02  0.13640216753E+03  0.00000000000E+00 0.  1.
          5    1    4    4  501    0 -0.62865486098E+02  0.24248081337E+03  0.71636999760E+02  0.26057311129E+03  0.41800000000E+01 0.  1.
         -5    1    4    4    0  501  0.54032741274E+02  0.96758293903E+02  0.40947904182E+02  0.11821974381E+03  0.41800000000E+01 0.  1.
</event>
<event>
11    1  0.1078607E-008  0.5812444E+03  0.7561462E-02  0.9228314E-01
         22   -1    0    0    0    0  0.00000000000E+00  0.00000000000E+00  0.35070098111E+03  0.35070098111E+03  0.00000000000E+00 0. -1.
         22   -1    0    0    0    0 -0.00000000000E+00 -0.00000000000E+00 -0.11145889592E+04  0.11145889592E+04  0.00000000000E+00 0. -1.
        -24    2    1    2    0    0 -0.33597905700E+01  0.47611299965E+02 -0.70740400377E+02  0.11774100467E+03  0.81120995169E+02 0.  0.
         25    2    1    2    0    0  0.26737694238E+03  0.47734892135E+03 -0.36873071671E+03  0.67153581986E+03  0.12508234841E+03 0.  0.
         24    2    1    2    0    0 -0.26401715181E+03 -0.52496022132E+03 -0.32441686098E+03  0.67601311575E+03  0.80368790941E+02 0.  0.
        -13    1    5    5    0    0 -0.17939812612E+03 -0.42158594217E+03 -0.26966919462E+03  0.53163885187E+03  0.00000000000E+00 0.  1.
         14    1    5    5    0    0 -0.84619025690E+02 -0.10337427915E+03 -0.54747666359E+02  0.14437426388E+03  0.00000000000E+00 0. -1.
         13    1    3    3    0    0  0.26460280545E+02  0.14550356534E+02 -0.66477845673E+02  0.73014815532E+02  0.00000000000E+00 0. -1.
        -14    1    3    3    0    0 -0.29820071115E+02  0.33060943431E+02 -0.42625547036E+01  0.44726189134E+02  0.00000000000E+00 0.  1.
          5    1    4    4  501    0  0.43707705994E+02  0.16372324803E+03 -0.67272826720E+02  0.18236987449E+03  0.41800000000E+01 0.  1.
         -5    1    4    4    0  501  0.22366923639E+03  0.31362567333E+03 -0.30145788999E+03  0.48916594537E+03  0.41800000000E+01 0.  1.
</event>
<event>
11    1  0.1078607E-008  0.1378002E+03  0.7561462E-02  0.1110040E+00
         22   -1    0    0    0    0  0.00000000000E+00  0.00000000000E+00  0.51283094252E+03  0.51283094252E+03  0.00000000000E+00 0.  1.
         22   -1    0    0    0    0 -0.00000000000E+00 -0.00000000000E+00 -0.31124034452E+03  0.31124034452E+03  0.00000000000E+00 0. -1.
        -24    2    1    2    0    0  0.13792997581E+02  0.21223627965E+02 -0.27063700008E+03  0.28383061801E+03  0.81699111025E+02 0.  0.
         25    2    1    2    0    0  0.17425128678E+02  0.34096668163E+02  0.13638784329E+03  0.18898748794E+03  0.12509360059E+03 0.  0.
         24    2    1    2    0    0 -0.31218126259E+02 -0.55320296128E+02  0.33583975478E+03  0.35125318109E+03  0.80966349563E+02 0.  0.
        -11    1    5    5    0    0 -0.11059653104E+02 -0.73055565181E+02  0.27497885972E+03  0.28473286572E+03  0.00000000000E+00 0.  1.
         12    1    5    5    0    0 -0.20158473156E+02  0.17735269053E+02  0.60860895066E+02  0.66520315367E+02  0.00000000000E+00 0. -1.
         11    1    3    3    0    0 -0.11052032789E+01  0.39415615450E+01 -0.25743851946E+03  0.25747106378E+03  0.00000000000E+00 0. -1.
        -12    1    3    3    0    0  0.14898200860E+02  0.17282066420E+02 -0.13198480618E+02  0.26359554230E+02  0.00000000000E+00 0.  1.
          5    1    4    4  501    0 -0.48216508324E+02  0.42589165370E+02  0.69387689048E+02  0.94714267527E+02  0.41800000000E+01 0. -1.
         -5    1    4    4    0  501  0.65641637002E+02 -0.84924972073E+01  0.67000154246E+02  0.94273220408E+02  0.41800000000E+01 0. -1.
</event>
<event>
11    1  0.1078607E-008  0.1385930E+03  0.7561462E-02  0.1109140E+00
         22   -1    0    0    0    0  0.00000000000E+00  0.00000000000E+00  0.17189693537E+04  0.17189693537E+04  0.00000000000E+00 0.  1.
         22   -1    0    0    0    0 -0.00000000000E+00 -0.00000000000E+00 -0.33050927039E+02  0.33050927039E+02  0.00000000000E+00 0.  1.
        -24    2    1    2    0    0  0.63239720353E+02 -0.97607326030E+00  0.94966286653E+02  0.14053362406E+03  0.82041994981E+02 0.  0.
         25    2    1    2    0    0 -0.44226782314E+02  0.14409843109E+01  0.49600519324E+03  0.51344795791E+03  0.12509823761E+03 0.  0.
         24    2    1    2    0    0 -0.19012938039E+02 -0.46491105055E+00  0.10949469467E+04  0.10980386987E+04  0.80115290719E+02 0.  0.
        -13    1    5    5    0    0  0.18568285898E+02  0.15520736237E+02  0.78983187788E+03  0.79020254986E+03  0.00000000000E+00 0.  1.
         14    1    5    5    0    0 -0.37581223937E+02 -0.15985647288E+02  0.30511506885E+03  0.30783614887E+03  0.00000000000E+00 0. -1.
         11    1    3    3    0    0 -0.19376315937E+02 -0.26175770770E+01  0.98084812526E+01  0.21874634478E+02  0.00000000000E+00 0. -1.
        -12    1    3    3    0    0  0.82616036291E+02  0.16415038167E+01  0.85157805401E+02  0.11865898958E+03  0.00000000000E+00 0.  1.
          5    1    4    4  501    0  0.51879708533E+01  0.11079149517E+02 -0.18292063936E+01  0.13056836969E+02  0.41800000000E+01 0.  1.
         -5    1    4    4    0  501 -0.49414753168E+02 -0.96381652064E+01  0.49783439964E+03  0.50039112095E+03  0.41800000000E+01 0.  1.
</event>
<event>
11    1  0.1078607E-008  0.2120733E+03  0.7561462E-02  0.1046300E+00
         22   -1    0    0    0    0  0.00000000000E+00  0.00000000000E+00  0.44246380351E+03  0.44246380351E+03  0.00000000000E+00 0. -1.
         22   -1    0    0    0    0 -0.00000000000E+00 -0.00000000000E+00 -0.79044231709E+03  0.79044231709E+03  0.00000000000E+00 0.  1.
        -24    2    1    2    0    0 -0.14563657879E+03 -0.67394410675E+02 -0.58572045833E+03  0.61266006659E+03  0.80820060731E+02 0.  0.
         25    2    1    2    0    0  0.24911402908E+03  0.15213279267E+03 -0.20725767631E+02  0.31824619013E+03  0.12509553947E+03 0.  0.
         24    2    1    2    0    0 -0.10347745029E+03 -0.84738381995E+02  0.25846771238E+03  0.30199986388E+03  0.80685707133E+02 0.  0.
        -13    1    5    5    0    0 -0.62282110895E+02 -0.60011794000E+02  0.82268658197E+02  0.11936753695E+03  0.00000000000E+00 0.  1.
         14    1    5    5    0    0 -0.41195339394E+02 -0.24726587995E+02  0.17619905419E+03  0.18263232692E+03  0.00000000000E+00 0. -1.
         11    1    3    3    0    0 -0.41065814491E+02 -0.28764230495E+02 -0.77116128950E+02  0.91981951599E+02  0.00000000000E+00 0. -1.
        -12    1    3    3    0    0 -0.10457076430E+03 -0.38630180180E+02 -0.50860432938E+03  0.52067811499E+03  0.00000000000E+00 0.  1.
          5    1    4    4  501    0  0.22449158534E+03  0.97147929191E+02  0.19912626211E+02  0.24545504093E+03  0.41800000000E+01 0.  1.
         -5    1    4    4    0  501  0.24622443741E+02  0.54984863479E+02 -0.40638393842E+02  0.72791149198E+02  0.41800000000E+01 0.  1.
</event>
<event>
11    1  0.1078607E-008  0.1857195E+03  0.7561462E-02  0.1065108E+00
         22   -1    0    0    0    0  0.00000000000E+00  0.00000000000E+00  0.55707189975E+03  0.55707189975E+03  0.00000000000E+00 0. -1.
         22   -1    0    0    0    0 -0.00000000000E+00 -0.00000000000E+00 -0.56824230530E+03  0.56824230530E+03  0.00000000000E+00 0.  1.
        -24    2    1    2    0    0 -0.20879530308E+01  0.11850084205E+02 -0.44314427612E+03  0.45041186932E+03  0.79681983671E+02 0.  0.
         25    2    1    2    0    0 -0.13169113945E+03  0.21219240978E+02 -0.30811193638E+02  0.18544303789E+03  0.12508788211E+03 0.  0.
         24    2    1    2    0    0  0.13377909248E+03 -0.33069325183E+02  0.46278506421E+03  0.48945929785E+03  0.80062242981E+02 0.  0.
        -11    1    5    5    0    0  0.28046440439E+02  0.14797592709E+02  0.40066830837E+02  0.51097186857E+02  0.00000000000E+00 0.  1.
         12    1    5    5    0    0  0.10573265204E+03 -0.47866917892E+02  0.42271823337E+03  0.43836211100E+03  0.00000000000E+00 0. -1.
         11    1    3    3    0    0 -0.19523930514E+02 -0.76575705685E+01 -0.30938934199E+02  0.37376996925E+02  0.00000000000E+00 0. -1.
        -12    1    3    3    0    0  0.17435977483E+02  0.19507654773E+02 -0.41220534192E+03  0.41303487239E+03  0.00000000000E+00 0.  1.
          5    1    4    4  501    0 -0.17398604835E+02  0.21993276035E+02 -0.60902748410E+02  0.67179109885E+02  0.41800000000E+01 0.  1.
         -5    1    4    4    0  501 -0.11429253461E+03 -0.77403505712E+00  0.30091554772E+02  0.11826392800E+03  0.41800000000E+01 0.  1.
</event>
<event>
11    1  0.1078607E-008  0.1494284E+03  0.7561462E-02  0.1097464E+00
         22   -1    0    0    0    0  0.00000000000E+00  0.00000000000E+00  0.80472192561E+02  0.80472192561E+02  0.00000000000E+00 0. -1.
         22   -1    0    0    0    0 -0.00000000000E+00 -0.00000000000E+00 -0.20060313081E+04  0.20060313081E+04  0.00000000000E+00 0.  1.
        -24    2    1    2    0    0  0.89962859638E+02 -0.10813107852E+02 -0.16183208295E+04  0.16228607471E+04  0.80650218978E+02 0.  0.
         25    2    1    2    0    0 -0.34451896063E+02  0.36336481437E+01 -0.33740295011E+03  0.36150842983E+03  0.12508979796E+03 0.  0.
         24    2    1    2    0    0 -0.55510963576E+02  0.71794597088E+01  0.30164664109E+02  0.10213432371E+03  0.79928101438E+02 0.  0.
        -13    1    5    5    0    0  0.36513926645E+01 -0.13600877566E+02 -0.18151215233E+02  0.22973531583E+02  0.00000000000E+00 0.  1.
         14    1    5    5    0    0 -0.59162356240E+02  0.20780337275E+02  0.48315879342E+02  0.79160792124E+02  0.00000000000E+00 0. -1.
         13    1    3    3    0    0 -0.47804470384E+01  0.11053864225E+02 -0.46465448299E+02  0.48000817429E+02  0.00000000000E+00 0. -1.
        -14    1    3    3    0    0  0.94743306677E+02 -0.21866972077E+02 -0.15718553812E+04  0.15748599297E+04  0.00000000000E+00 0.  1.
          5    1    4    4  501    0 -0.38633027539E+02  0.23417920550E+02 -0.32264386007E+02  0.55672011138E+02  0.41800000000E+01 0. -1.
         -5    1    4    4    0  501  0.41811314765E+01 -0.19784272406E+02 -0.30513856410E+03  0.30583641869E+03  0.41800000000E+01 0. -1.
</event>
<event>
11    1  0.1078607E-008  0.1544761E+03  0.7561462E-02  0.1092391E+00
         22   -1    0    0    0    0  0.00000000000E+00  0.00000000000E+00  0.35714485250E+04  0.35714485250E+04  0.00000000000E+00 0. -1.
         22   -1    0    0    0    0 -0.00000000000E+00 -0.00000000000E+00 -0.14661577562E+03  0.14661577562E+03  0.00000000000E+00 0.  1.
        -24    2    1    2    0    0 -0.22261888379E+02  0.70484024608E+02 -0.84978608750E+02  0.13892878514E+03  0.81340358970E+02 0.  0.
         25    2    1    2    0    0 -0.57596915232E+02 -0.11238339757E+03  0.20182115807E+03  0.26894012318E+03  0.12509827063E+03 0.  0.
         24    2    1    2    0    0  0.79858803611E+02  0.41899372966E+02  0.33079902000E+04  0.33101953923E+04  0.80382744002E+02 0.  0.
        -13    1    5    5    0    0  0.17846507505E+02 -0.21740748887E+02  0.12059090263E+04  0.12062370155E+04  0.00000000000E+00 0.  1.
         14    1    5    5    0    0  0.62012296106E+02  0.63640121853E+02  0.21020811738E+04  0.21039583767E+04  0.00000000000E+00 0. -1.
         13    1    3    3    0    0 -0.47323355540E+02  0.17650461634E+02 -0.48401243190E+02  0.69955122170E+02  0.00000000000E+00 0. -1.
        -14    1    3    3    0    0  0.25061467161E+02  0.52833562974E+02 -0.36577365560E+02  0.68973662974E+02  0.00000000000E+00 0.  1.
          5    1    4    4  501    0  0.38145176989E+02 -0.51120343939E+02  0.68459407376E+02  0.93661662115E+02  0.41800000000E+01 0. -1.
         -5    1    4    4    0  501 -0.95742092221E+02 -0.61263053635E+02  0.13336175069E+03  0.17527846106E+03  0.41800000000E+01 0. -1.
</event>
<event>
11    1  0.1078607E-008  0.1331619E+03  0.7561462E-02  0.1115444E+00
         22   -1    0    0    0    0  0.00000000000E+00  0.00000000000E+00  0.13185238426E+03  0.13185238426E+03  0.00000000000E+00 0.  1.
         22   -1    0    0    0    0 -0.00000000000E+00 -0.00000000000E+00 -0.24967866526E+03  0.24967866526E+03  0.00000000000E+00 0.  1.
         24    2    1    2    0    0  0.41581979776E+02 -0.54559666164E+01 -0.11579956065E+03  0.14678233639E+03  0.79854163419E+02 0.  0.
         25    2    1    2    0    0 -0.52827034993E+02  0.38988734244E+02 -0.26230828810E+02  0.14368744480E+03  0.12508880201E+03 0.  0.
        -24    2    1    2    0    0  0.11245055216E+02 -0.33532767627E+02  0.24204108462E+02  0.91061268333E+02  0.80345615639E+02 0.  0.
        -11    1    3    3    0    0  0.53449928125E+02  0.15948426112E+02 -0.10719612724E+03  0.12083979811E+03  0.00000000000E+00 0.  1.
         12    1    3    3    0    0 -0.11867948348E+02 -0.21404392729E+02 -0.86034334158E+01  0.25942538284E+02  0.00000000000E+00 0. -1.
         11    1    5    5    0    0 -0.33322021723E+02 -0.35578741510E+01  0.43180994363E+01  0.33788482992E+02  0.00000000000E+00 0. -1.
        -12    1    5    5    0    0  0.44567076939E+02 -0.29974893476E+02  0.19886009026E+02  0.57272785341E+02  0.00000000000E+00 0.  1.
          5    1    4    4  501    0 -0.52676698727E+01  0.67379880873E+02  0.20871809899E+02  0.70858320195E+02  0.41800000000E+01 0. -1.
         -5    1    4    4    0  501 -0.47559365120E+02 -0.28391146629E+02 -0.47102638709E+02  0.72829124606E+02  0.41800000000E+01 0. -1.
</event>
<event>
11    1  0.1078607E-008  0.1538469E+03  0.7561462E-02  0.1093012E+00
         22   -1    0    0    0    0  0.00000000000E+00  0.00000000000E+00  0.19823276588E+04  0.19823276588E+04  0.00000000000E+00 0. -1.
         22   -1    0    0    0    0 -0.00000000000E+00 -0.00000000000E+00 -0.49334113598E+02  0.49334113598E+02  0.00000000000E+00 0. -1.
        -24    2    1    2    0    0 -0.23497328270E+02  0.92999249602E+02  0.10441171833E+03  0.16287896563E+03  0.80167110823E+02 0.  0.
         25    2    1    2    0    0  0.74610963266E+01 -0.76318359960E+02  0.26455554290E+03  0.30251954847E+03  0.12509309295E+03 0.  0.
         24    2    1    2    0    0  0.16036231944E+02 -0.16680889642E+02  0.15640262840E+04  0.15662632583E+04  0.80417439173E+02 0.  0.
        -13    1    5    5    0    0  0.24026910466E+02  0.23891315325E+02  0.37778693210E+03  0.37930337916E+03  0.00000000000E+00 0.  1.
         14    1    5    5    0    0 -0.79906785222E+01 -0.40572204967E+02  0.11862393519E+04  0.11869598792E+04  0.00000000000E+00 0. -1.
         11    1    3    3    0    0  0.19112296299E+02  0.67685244550E+02  0.37782725215E+02  0.79838001755E+02  0.00000000000E+00 0. -1.
        -12    1    3    3    0    0 -0.42609624569E+02  0.25314005053E+02  0.66628993117E+02  0.83040963876E+02  0.00000000000E+00 0.  1.
          5    1    4    4  501    0  0.58200713519E+02 -0.55393277493E+02  0.96286462953E+02  0.12547626705E+03  0.41800000000E+01 0. -1.
         -5    1    4    4    0  501 -0.50739617193E+02 -0.20925082467E+02  0.16826907995E+03  0.17704328142E+03  0.41800000000E+01 0. -1.
</event>
<event>
11    1  0.1078607E-008  0.1615050E+03  0.7561462E-02  0.1085670E+00
         22   -1    0    0    0    0  0.00000000000E+00  0.00000000000E+00  0.10911733146E+04  0.10911733146E+04  0.00000000000E+00 0.  1.
         22   -1    0    0    0    0 -0.00000000000E+00 -0.00000000000E+00 -0.54937322406E+03  0.54937322406E+03  0.00000000000E+00 0. -1.
        -24    2    1    2    0    0  0.31251520909E+02  0.36975529441E+02 -0.28567039593E+03  0.30094017153E+03  0.81323824253E+02 0.  0.
         25    2    1    2    0    0  0.32292576981E+02  0.43969807012E+02 -0.23360178341E+03  0.27054497186E+03  0.12509450079E+03 0.  0.
         24    2    1    2    0    0 -0.63544097890E+02 -0.80945336454E+02  0.10610722699E+04  0.10690613953E+04  0.80174217152E+02 0.  0.
        -13    1    5    5    0    0 -0.64945641124E+02 -0.46137079109E+02  0.45002906998E+03  0.45702596228E+03  0.00000000000E+00 0.  1.
         14    1    5    5    0    0  0.14015432336E+01 -0.34808257345E+02  0.61104319994E+03  0.61203543304E+03  0.00000000000E+00 0. -1.
         11    1    3    3    0    0  0.29366485468E+01  0.21764670821E+02 -0.25679569384E+03  0.25773310454E+03  0.00000000000E+00 0. -1.
        -12    1    3    3    0    0  0.28314872362E+02  0.15210858620E+02 -0.28874702088E+02  0.43207066985E+02  0.00000000000E+00 0.  1.
          5    1    4    4  501    0 -0.30077175849E+02  0.58897622989E+02 -0.78964606125E+02  0.10308466385E+03  0.41800000000E+01 0.  1.
         -5    1    4    4    0  501  0.62369752831E+02 -0.14927815977E+02 -0.15463717729E+03  0.16746030801E+03  0.41800000000E+01 0.  1.
</event>
<event>
11    1  0.1078607E-008  0.1393478E+03  0.7561462E-02  0.1108289E+00
         22   -1    0    0    0    0  0.00000000000E+00  0.00000000000E+00  0.19509607578E+03  0.19509607578E+03  0.00000000000E+00 0. -1.
         22   -1    0    0    0    0 -0.00000000000E+00 -0.00000000000E+00 -0.84783488640E+03  0.84783488640E+03  0.00000000000E+00 0. -1.
        -24    2    1    2    0    0 -0.40645653990E+02  0.22215860982E+02 -0.57544403956E+03  0.58279254452E+03  0.79785296981E+02 0.  0.
         25    2    1    2    0    0  0.95513580656E+02 -0.44061122411E+02 -0.22877307409E+03  0.28115455132E+03  0.12508611316E+03 0.  0.
         24    2    1    2    0    0 -0.54867926666E+02  0.21845261430E+02  0.15147830302E+03  0.17898386634E+03  0.74845462778E+02 0.  0.
        -11    1    5    5    0    0 -0.54914690208E+02  0.42529870520E+02  0.87333931178E+02  0.11158686581E+03  0.00000000000E+00 0.  1.
         12    1    5    5    0    0  0.46763541827E-01 -0.20684609091E+02  0.64144371846E+02  0.67397000524E+02  0.00000000000E+00 0. -1.
         11    1    3    3    0    0 -0.54484026035E+02  0.23902930172E+02 -0.55418904275E+03  0.55737362179E+03  0.00000000000E+00 0. -1.
        -12    1    3    3    0    0  0.13838372045E+02 -0.16870691909E+01 -0.21254996813E+02  0.25418922731E+02  0.00000000000E+00 0.  1.
          5    1    4    4  501    0  0.12647904589E+02  0.40362286825E+02 -0.40165989527E+02  0.58479593046E+02  0.41800000000E+01 0. -1.
         -5    1    4    4    0  501  0.82865676067E+02 -0.84423409236E+02 -0.18860708456E+03  0.22267495828E+03  0.41800000000E+01 0. -1.
</event>
<event>
11    1  0.1078607E-008  0.1533974E+03  0.7561462E-02  0.1093457E+00
         22   -1    0    0    0    0  0.00000000000E+00  0.00000000000E+00  0.44758999632E+03  0.44758999632E+03  0.00000000000E+00 0. -1.
         22   -1    0    0    0    0 -0.00000000000E+00 -0.00000000000E+00 -0.15253608029E+03  0.15253608029E+03  0.00000000000E+00 0. -1.
        -24    2    1    2    0    0 -0.36841161226E+01  0.14248138010E+02 -0.68126315635E+02  0.10691030113E+03  0.81068091485E+02 0.  0.
         25    2    1    2    0    0 -0.35382878964E+02 -0.91704991821E+02  0.65927729693E+02  0.17220717484E+03  0.12508833629E+03 0.  0.
         24    2    1    2    0    0  0.39066995087E+02  0.77456853811E+02  0.29725250197E+03  0.32100860065E+03  0.84626694694E+02 0.  0.
        -11    1    5    5    0    0  0.10005097553E+02 -0.98523093311E+01  0.54860597638E+01  0.15075371569E+02  0.00000000000E+00 0.  1.
         12    1    5    5    0    0  0.29061897534E+02  0.87309163142E+02  0.29176644221E+03  0.30593322908E+03  0.00000000000E+00 0. -1.
         11    1    3    3    0    0  0.13577293716E+02 -0.27316749000E+02 -0.49621188270E+02  0.58247832629E+02  0.00000000000E+00 0. -1.
        -12    1    3    3    0    0 -0.17261409838E+02  0.41564887010E+02 -0.18505127364E+02  0.48662468500E+02  0.00000000000E+00 0.  1.
          5    1    4    4  501    0  0.13591213660E+02 -0.81646725306E+02 -0.75673785955E+01  0.83220469001E+02  0.41800000000E+01 0.  1.
         -5    1    4    4    0  501 -0.48974092625E+02 -0.10058266514E+02  0.73495108288E+02  0.88986705838E+02  0.41800000000E+01 0.  1.
</event>
<event>
11    1  0.1078607E-008  0.1842058E+03  0.7561462E-02  0.1066291E+00
         22   -1    0    0    0    0  0.00000000000E+00  0.00000000000E+00  0.11894712203E+04  0.11894712203E+04  0.00000000000E+00 0.  1.
         22   -1    0    0    0    0 -0.00000000000E+00 -0.00000000000E+00 -0.13228062810E+03  0.13228062810E+03  0.00000000000E+00 0.  1.
         24    2    1    2    0    0 -0.15510060650E+02 -0.27726443432E+02 -0.62983102063E+02  0.11685475369E+03  0.93160317026E+02 0.  0.
         25    2    1    2    0    0  0.33460266255E+02 -0.11031463997E+03  0.16703446684E+03  0.23840554146E+03  0.12509108632E+03 0.  0.
        -24    2    1    2    0    0 -0.17950205604E+02  0.13804108341E+03  0.95313922742E+03  0.96649155325E+03  0.79082141280E+02 0.  0.
        -11    1    3    3    0    0 -0.23473956087E+02  0.14180308055E+02 -0.68553743120E+02  0.73835787032E+02  0.00000000000E+00 0.  1.
         12    1    3    3    0    0  0.79638954366E+01 -0.41906751487E+02  0.55706410570E+01  0.43018966660E+02  0.00000000000E+00 0. -1.
         13    1    5    5    0    0  0.84963003740E+01  0.19657068781E+02  0.40377215941E+02  0.45704562575E+02  0.00000000000E+00 0. -1.
        -14    1    5    5    0    0 -0.26446505978E+02  0.11838401463E+03  0.91276201148E+03  0.92078699067E+03  0.00000000000E+00 0.  1.
          5    1    4    4  501    0  0.31847496995E+02 -0.57833309467E+02  0.31111608962E+01  0.66227686589E+02  0.41800000000E+01 0.  1.
         -5    1    4    4    0  501  0.16127692598E+01 -0.52481330506E+02  0.16392330595E+03  0.17217785487E+03  0.41800000000E+01 0.  1.
</event>
<event>
11    1  0.1078607E-008  0.1309613E+03  0.7561462E-02  0.1118093E+00
         22   -1    0    0    0    0  0.00000000000E+00  0.00000000000E+00  0.93766916879E+03  0.93766916879E+03  0.00000000000E+00 0.  1.
         22   -1    0    0    0    0 -0.00000000000E+00 -0.00000000000E+00 -0.17877886306E+03  0.17877886306E+03  0.00000000000E+00 0.  1.
        -24    2    1    2    0    0 -0.37020870392E+02  0.28606388133E+02 -0.10548442726E+03  0.14161751034E+03  0.82095581814E+02 0.  0.
         25    2    1    2    0    0  0.24025592675E+01 -0.42480820999E+01  0.25774576313E+02  0.12781269212E+03  0.12509171432E+03 0.  0.
         24    2    1    2    0    0  0.34618311124E+02 -0.24358306033E+02  0.83860015668E+03  0.84701782939E+03  0.11134283087E+03 0.  0.
        -11    1    5    5    0    0  0.59317240928E+02  0.10281098919E+02  0.68483064861E+03  0.68747163821E+03  0.00000000000E+00 0.  1.
         12    1    5    5    0    0 -0.24698929804E+02 -0.34639404952E+02  0.15376950807E+03  0.15954619118E+03  0.00000000000E+00 0. -1.
         11    1    3    3    0    0 -0.58600315718E+02 -0.68979728570E-01 -0.65935483054E+02  0.88212752400E+02  0.00000000000E+00 0. -1.
        -12    1    3    3    0    0  0.21579445326E+02  0.28675367862E+02 -0.39548944205E+02  0.53404757937E+02  0.00000000000E+00 0.  1.
          5    1    4    4  501    0  0.49157762016E+02  0.35265291212E+02  0.27140054970E+02  0.66439305493E+02  0.41800000000E+01 0.  1.
         -5    1    4    4    0  501 -0.46755202748E+02 -0.39513373312E+02 -0.13654786571E+01  0.61373386630E+02  0.41800000000E+01 0.  1.
</event>
<event>
11    1  0.1078607E-008  0.1568510E+03  0.7561462E-02  0.1090077E+00
         22   -1    0    0    0    0  0.00000000000E+00  0.00000000000E+00  0.10134972844E+04  0.10134972844E+04  0.00000000000E+00 0.  1.
         22   -1    0    0    0    0 -0.00000000000E+00 -0.00000000000E+00 -0.15139084865E+03  0.15139084865E+03  0.00000000000E+00 0.  1.
        -24    2    1    2    0    0 -0.10128188042E+02 -0.46069955855E+02 -0.71152658073E+02  0.11103560339E+03  0.71001291852E+02 0.  0.
         25    2    1    2    0    0  0.45905383288E+02 -0.44677431670E+02  0.32706392078E+02  0.14428644542E+03  0.12508194567E+03 0.  0.
         24    2    1    2    0    0 -0.35777195247E+02  0.90747387526E+02  0.90055270179E+03  0.90956608429E+03  0.82463306678E+02 0.  0.
        -13    1    5    5    0    0 -0.31617449828E+02  0.10636407044E+03  0.75322649332E+03  0.76135611172E+03  0.00000000000E+00 0.  1.
         14    1    5    5    0    0 -0.41597454190E+01 -0.15616682916E+02  0.14732620847E+03  0.14820997257E+03  0.00000000000E+00 0. -1.
         13    1    3    3    0    0 -0.39876765054E+01 -0.20197369417E+02  0.11934933908E+02  0.23796595191E+02  0.00000000000E+00 0. -1.
        -14    1    3    3    0    0 -0.61405115364E+01 -0.25872586439E+02 -0.83087591981E+02  0.87239008203E+02  0.00000000000E+00 0.  1.
          5    1    4    4  501    0  0.15797137133E+02 -0.53514138891E+02  0.73674517802E+02  0.92513348097E+02  0.41800000000E+01 0. -1.
         -5    1    4    4    0  501  0.30108246155E+02  0.88367072205E+01 -0.40968125724E+02  0.51773097322E+02  0.41800000000E+01 0. -1.
</event>
<event>
11    1  0.1078607E-008  0.1887535E+03  0.7561462E-02  0.1062774E+00
         22   -1    0    0    0    0  0.00000000000E+00  0.00000000000E+00  0.12007777539E+04  0.12007777539E+04  0.00000000000E+00 0. -1.
         22   -1    0    0    0    0 -0.00000000000E+00 -0.00000000000E+00 -0.16044126772E+04  0.16044126772E+04  0.00000000000E+00 0.  1.
        -24    2    1    2    0    0 -0.67963453291E+02 -0.12041743315E+03 -0.14426949337E+04  0.14515965404E+04  0.81513526947E+02 0.  0.
         25    2    1    2    0    0  0.93302672941E+02  0.18456667463E+03 -0.60428841591E+02  0.24913780225E+03  0.12509098071E+03 0.  0.
         24    2    1    2    0    0 -0.25339219650E+02 -0.64149241481E+02  0.10994888520E+04  0.11044560884E+04  0.78678551630E+02 0.  0.
        -13    1    5    5    0    0 -0.49826185497E+02 -0.34874381744E+02  0.48763097118E+03  0.49140903057E+03  0.00000000000E+00 0.  1.
         14    1    5    5    0    0  0.24486965846E+02 -0.29274859737E+02  0.61185788077E+03  0.61304705787E+03  0.00000000000E+00 0. -1.
         13    1    3    3    0    0 -0.64268911247E+02 -0.53456821260E+02 -0.54203093884E+03  0.54843929778E+03  0.00000000000E+00 0. -1.
        -14    1    3    3    0    0 -0.36945420445E+01 -0.66960611888E+02 -0.90066399488E+03  0.90315724260E+03  0.00000000000E+00 0.  1.
          5    1    4    4  501    0 -0.12674450810E+02 -0.22083433061E+01  0.16186771356E+02  0.21095081190E+02  0.41800000000E+01 0.  1.
         -5    1    4    4    0  501  0.10597712375E+03  0.18677501794E+03 -0.76615612946E+02  0.22804272106E+03  0.41800000000E+01 0.  1.
</event>
<event>
11    1  0.1078607E-008  0.1486909E+03  0.7561462E-02  0.1098224E+00
         22   -1    0    0    0    0  0.00000000000E+00  0.00000000000E+00  0.42767787124E+03  0.42767787124E+03  0.00000000000E+00 0. -1.
         22   -1    0    0    0    0 -0.00000000000E+00 -0.00000000000E+00 -0.11074596423E+04  0.11074596423E+04  0.00000000000E+00 0. -1.
         24    2    1    2    0    0  0.76005345991E+02  0.15371994331E+02 -0.95185014334E+03  0.95966109977E+03  0.94433152058E+02 0.  0.
         25    2    1    2    0    0 -0.11345277747E+03 -0.27593235856E+02 -0.96395698316E+02  0.19640050268E+03  0.12509239552E+03 0.  0.
        -24    2    1    2    0    0  0.37447431484E+02  0.12221241525E+02  0.36846407061E+03  0.37907591109E+03  0.79881826291E+02 0.  0.
        -11    1    3    3    0    0  0.44092944034E+02 -0.19134080550E+02 -0.17770995589E+03  0.18409543497E+03  0.00000000000E+00 0.  1.
         12    1    3    3    0    0  0.31912401957E+02  0.34506074880E+02 -0.77414018745E+03  0.77556566480E+03  0.00000000000E+00 0. -1.
         13    1    5    5    0    0  0.62224502403E+02  0.28757463539E+01  0.27215457846E+03  0.27919217967E+03  0.00000000000E+00 0. -1.
        -14    1    5    5    0    0 -0.24777070919E+02  0.93454951713E+01  0.96309492151E+02  0.99883731417E+02  0.00000000000E+00 0.  1.
          5    1    4    4  501    0 -0.63963547458E+02 -0.34343741020E+02  0.14996791326E+02  0.74250953534E+02  0.41800000000E+01 0.  1.
         -5    1    4    4    0  501 -0.49489230017E+02  0.67505051639E+01 -0.11139248964E+03  0.12214954914E+03  0.41800000000E+01 0.  1.
</event>
<event>
11    1  0.1078607E-008  0.1802347E+03  0.7561462E-02  0.1069453E+00
         22   -1    0    0    0    0  0.00000000000E+00  0.00000000000E+00  0.13587375121E+04  0.13587375121E+04  0.00000000000E+00 0. -1.
         22   -1    0    0    0    0 -0.00000000000E+00 -0.00000000000E+00 -0.10677250785E+04  0.10677250785E+04  0.00000000000E+00 0.  1.
         24    2    1    2    0    0  0.59297765265E+01 -0.80750893475E+02 -0.10331816583E+04  0.10393053631E+04  0.78328984422E+02 0.  0.
         25    2    1    2    0    0  0.92677740074E+02  0.15116119422E+03  0.43526234559E+03  0.48635249819E+03  0.12508626168E+03 0.  0.
        -24    2    1    2    0    0 -0.98607516600E+02 -0.70410300742E+02  0.88893174626E+03  0.90080472924E+03  0.81046023610E+02 0.  0.
        -11    1    3    3    0    0 -0.43283593006E+01 -0.81163830207E+02 -0.54609684672E+03  0.55211236902E+03  0.00000000000E+00 0.  1.
         12    1    3    3    0    0  0.10258135827E+02  0.41293673277E+00 -0.48708481154E+03  0.48719299410E+03  0.00000000000E+00 0. -1.
         13    1    5    5    0    0 -0.73170252258E+02 -0.29819036927E+02  0.31059971761E+03  0.32049219235E+03  0.00000000000E+00 0. -1.
        -14    1    5    5    0    0 -0.25437264343E+02 -0.40591263815E+02  0.57833202864E+03  0.58031253689E+03  0.00000000000E+00 0.  1.
          5    1    4    4  501    0  0.78843518551E+02  0.17247225290E+03  0.36181572076E+03  0.40852303071E+03  0.41800000000E+01 0. -1.
         -5    1    4    4    0  501  0.13834221523E+02 -0.21311058684E+02  0.73446624835E+02  0.77829467472E+02  0.41800000000E+01 0. -1.
</event>
<event>
11    1  0.1249131E-008  0.1728779E+03  0.7561462E-02  0.1075554E+00
         22   -1    0    0    0    0  0.00000000000E+00  0.00000000000E+00  0.25613815531E+04  0.25613815531E+04  0.00000000000E+00 0.  1.
         22   -1    0    0    0    0 -0.00000000000E+00 -0.00000000000E+00 -0.52313960464E+03  0.52313960464E+03  0.00000000000E+00 0.  1.
         24    2    1    2    0    0  0.75877378843E+01  0.22937323379E+02 -0.27523922573E+03  0.28783972084E+03  0.80693115849E+02 0.  0.
         25    2    1    2    0    0 -0.12081159129E+03  0.14743774858E+02 -0.20787305931E+03  0.27142463335E+03  0.12508918145E+03 0.  0.
        -24    2    1    2    0    0  0.11322385340E+03 -0.37681098237E+02  0.25213542335E+04  0.25252568036E+04  0.73859643407E+02 0.  0.
        -11    1    3    3    0    0  0.16972195570E+02  0.51468576002E+02 -0.17816027055E+03  0.18622070706E+03  0.00000000000E+00 0.  1.
         12    1    3    3    0    0 -0.93844576858E+01 -0.28531252623E+02 -0.97078955181E+02  0.10161901378E+03  0.00000000000E+00 0. -1.
         11    1    5    5    0    0  0.73847103674E+01  0.18816354419E+02  0.32443470835E+03  0.32506379239E+03  0.00000000000E+00 0. -1.
        -12    1    5    5    0    0  0.10583914304E+03 -0.56497452656E+02  0.21969195252E+04  0.22001930112E+04  0.00000000000E+00 0.  1.
          5    1    4    4  501    0 -0.13180084269E+02 -0.69589573507E+01 -0.14297969837E+03  0.14381518785E+03  0.41800000000E+01 0. -1.
         -5    1    4    4    0  501 -0.10763150702E+03  0.21702732208E+02 -0.64893360940E+02  0.12760944551E+03  0.41800000000E+01 0. -1.
</event>
<event>
11    1  0.1078607E-008  0.1356633E+03  0.7561462E-02  0.1112500E+00
         22   -1    0    0    0    0  0.00000000000E+00  0.00000000000E+00  0.34300860973E+03  0.34300860973E+03  0.00000000000E+00 0.  1.
         22   -1    0    0    0    0 -0.00000000000E+00 -0.00000000000E+00 -0.23346823716E+03  0.23346823716E+03  0.00000000000E+00 0. -1.
        -24    2    1    2    0    0 -0.48189775021E+02 -0.12352079122E+02 -0.12129166615E+03  0.15225099955E+03  0.77420089834E+02 0.  0.
         25    2    1    2    0    0  0.60089083900E+02  0.15689151648E+02 -0.36898299059E+02  0.14444944293E+03  0.12508920659E+03 0.  0.
         24    2    1    2    0    0 -0.11899308879E+02 -0.33370725265E+01  0.26773033778E+03  0.27977640441E+03  0.80265640786E+02 0.  0.
        -11    1    5    5    0    0 -0.33273496016E+02 -0.28147089882E+02  0.19799470022E+03  0.20273451981E+03  0.00000000000E+00 0.  1.
         12    1    5    5    0    0  0.21374187138E+02  0.24810017356E+02  0.69735637559E+02  0.77041884600E+02  0.00000000000E+00 0. -1.
         13    1    3    3    0    0 -0.12259375958E+02 -0.82925112891E+01 -0.11450875590E+03  0.11546130616E+03  0.00000000000E+00 0. -1.
        -14    1    3    3    0    0 -0.35930399064E+02 -0.40595678328E+01 -0.67829102492E+01  0.36789693385E+02  0.00000000000E+00 0.  1.
          5    1    4    4  501    0 -0.14322268527E+02 -0.42043605190E+02 -0.19007696998E+02  0.48492855745E+02  0.41800000000E+01 0. -1.
         -5    1    4    4    0  501  0.74411352427E+02  0.57732756839E+02 -0.17890602061E+02  0.95956587186E+02  0.41800000000E+01 0. -1.
</event>
<event>
11    1  0.1078607E-008  0.1966171E+03  0.7561462E-02  0.1056942E+00
         22   -1    0    0    0    0  0.00000000000E+00  0.00000000000E+00  0.56646317660E+03  0.56646317660E+03  0.00000000000E+00 0. -1.
         22   -1    0    0    0    0 -0.00000000000E+00 -0.00000000000E+00 -0.17977839657E+04  0.17977839657E+04  0.00000000000E+00 0.  1.
        -24    2    1    2    0    0  0.50729246683E+02  0.77516491526E+01 -0.16996153261E+04  0.17023011075E+04  0.80642790401E+02 0.  0.
         25    2    1    2    0    0 -0.15090581286E+03  0.99177889200E+02  0.70503377808E+02  0.23069510296E+03  0.12506272900E+03 0.  0.
         24    2    1    2    0    0  0.10017656618E+03 -0.10692953835E+03  0.39779115919E+03  0.43125093174E+03  0.79185157774E+02 0.  0.
        -11    1    5    5    0    0  0.40756672550E+02 -0.19819898088E+02  0.48449696149E+02  0.66342352795E+02  0.00000000000E+00 0.  1.
         12    1    5    5    0    0  0.59419893628E+02 -0.87109640265E+02  0.34934146305E+03  0.36490857895E+03  0.00000000000E+00 0. -1.
         13    1    3    3    0    0  0.85981921813E+01 -0.60124656296E+01 -0.25168558041E+02  0.27267837567E+02  0.00000000000E+00 0. -1.
        -14    1    3    3    0    0  0.42131054502E+02  0.13764114782E+02 -0.16744467680E+04  0.16750332700E+04  0.00000000000E+00 0.  1.
          5    1    4    4  501    0  0.89298035960E+01  0.39999281995E+02  0.40146644158E+02  0.57523120478E+02  0.41800000000E+01 0. -1.
         -5    1    4    4    0  501 -0.15983561646E+03  0.59178607205E+02  0.30356733650E+02  0.17317198248E+03  0.41800000000E+01 0. -1.
</event>
<event>
11    1  0.1078607E-008  0.1418243E+03  0.7561462E-02  0.1105538E+00
         22   -1    0    0    0    0  0.00000000000E+00  0.00000000000E+00  0.94135812323E+03  0.94135812323E+03  0.00000000000E+00 0. -1.
         22   -1    0    0    0    0 -0.00000000000E+00 -0.00000000000E+00 -0.71902440634E+03  0.71902440634E+03  0.00000000000E+00 0.  1.
         24    2    1    2    0    0  0.13326371287E+02  0.70666207359E+02 -0.56923032794E+03  0.57916966508E+03  0.79012844966E+02 0.  0.
         25    2    1    2    0    0 -0.19410810661E+02 -0.33014519294E+02 -0.11285069312E+03  0.17276991707E+03  0.12508967684E+03 0.  0.
        -24    2    1    2    0    0  0.60844393737E+01 -0.37651688064E+02  0.90441473794E+03  0.90844294742E+03  0.76471566541E+02 0.  0.
        -13    1    3    3    0    0  0.15330689882E+02  0.35477274248E+02 -0.49992634620E+03  0.50141800792E+03  0.00000000000E+00 0.  1.
         14    1    3    3    0    0 -0.20043185949E+01  0.35188933110E+02 -0.69303981739E+02  0.77751657161E+02  0.00000000000E+00 0. -1.
         11    1    5    5    0    0  0.13918738129E+02 -0.54326905256E+02  0.82563676477E+03  0.82753925057E+03  0.00000000000E+00 0. -1.
        -12    1    5    5    0    0 -0.78342987558E+01  0.16675217191E+02  0.78777973179E+02  0.80903696847E+02  0.00000000000E+00 0.  1.
          5    1    4    4  501    0  0.50217050734E+02 -0.30578889756E+02 -0.67117368311E+02  0.89325439893E+02  0.41800000000E+01 0. -1.
         -5    1    4    4    0  501 -0.69627861394E+02 -0.24356295377E+01 -0.45733324808E+02  0.83444477179E+02  0.41800000000E+01 0. -1.
</event>
<event>
11    1  0.1078607E-008  0.1400785E+03  0.7561462E-02  0.1107471E+00
         22   -1    0    0    0    0  0.00000000000E+00  0.00000000000E+00  0.17320854894E+03  0.17320854894E+03  0.00000000000E+00 0.  1.
         22   -1    0    0    0    0 -0.00000000000E+00 -0.00000000000E+00 -0.60968827289E+03  0.60968827289E+03  0.00000000000E+00 0. -1.
        -24    2    1    2    0    0  0.25120129141E+02  0.47167411929E+02 -0.40979622543E+03  0.42109992116E+03  0.80848077197E+02 0.  0.
         25    2    1    2    0    0 -0.65763377519E+00  0.16462440211E+02 -0.15277437291E+03  0.19813855280E+03  0.12508969849E+03 0.  0.
         24    2    1    2    0    0 -0.24462495366E+02 -0.63629852140E+02  0.12609087439E+03  0.16365834786E+03  0.78980848682E+02 0.  0.
        -11    1    5    5    0    0 -0.47580397140E+02 -0.65146846982E+02  0.10425377068E+03  0.13182129784E+03  0.00000000000E+00 0.  1.
         12    1    5    5    0    0  0.23117901774E+02  0.15169948418E+01  0.21837103711E+02  0.31837050024E+02  0.00000000000E+00 0. -1.
         11    1    3    3    0    0  0.14590431640E+02  0.39028260412E+02 -0.40471512150E+03  0.40685429257E+03  0.00000000000E+00 0. -1.
        -12    1    3    3    0    0  0.10529697501E+02  0.81391515163E+01 -0.50811039276E+01  0.14245628592E+02  0.00000000000E+00 0.  1.
          5    1    4    4  501    0  0.52267261994E+02  0.33252219645E+02 -0.44511134967E+02  0.76395617176E+02  0.41800000000E+01 0.  1.
         -5    1    4    4    0  501 -0.52924895769E+02 -0.16789779434E+02 -0.10826323794E+03  0.12174293563E+03  0.41800000000E+01 0.  1.
</event>
<event>
11    1  0.1078607E-008  0.1458949E+03  0.7561462E-02  0.1101149E+00
         22   -1    0    0    0    0  0.00000000000E+00  0.00000000000E+00  0.46709276826E+03  0.46709276826E+03  0.00000000000E+00 0.  1.
         22   -1    0    0    0    0 -0.00000000000E+00 -0.00000000000E+00 -0.99767166905E+03  0.99767166905E+03  0.00000000000E+00 0.  1.
        -24    2    1    2    0    0 -0.28758254808E+02  0.70864878023E+02 -0.85783273907E+03  0.86518989921E+03  0.82629808863E+02 0.  0.
         25    2    1    2    0    0 -0.17356639603E+02 -0.70640686014E+02 -0.91253303802E+02  0.17107413733E+03  0.12509130885E+03 0.  0.
         24    2    1    2    0    0  0.46114894410E+02 -0.22419200907E+00  0.41850714209E+03  0.42850040078E+03  0.79609872123E+02 0.  0.
        -13    1    5    5    0    0  0.10164556256E+02 -0.10262245584E+02  0.35151656941E+03  0.35181320392E+03  0.00000000000E+00 0.  1.
         14    1    5    5    0    0  0.35950338154E+02  0.10038053575E+02  0.66990572680E+02  0.76687196852E+02  0.00000000000E+00 0. -1.
         13    1    3    3    0    0  0.23154287147E+02  0.20598746873E+01 -0.28011714482E+03  0.28108002227E+03  0.00000000000E+00 0. -1.
        -14    1    3    3    0    0 -0.51912541955E+02  0.68805003335E+02 -0.57771559425E+03  0.58410987694E+03  0.00000000000E+00 0.  1.
          5    1    4    4  501    0 -0.69027345005E+02 -0.19846880168E+02 -0.41140319704E+02  0.82877447573E+02  0.41800000000E+01 0.  1.
         -5    1    4    4    0  501  0.51670705403E+02 -0.50793805845E+02 -0.50112984098E+02  0.88196689758E+02  0.41800000000E+01 0.  1.
</event>
<event>
11    1  0.1078607E-008  0.1645542E+03  0.7561462E-02  0.1082870E+00
         22   -1    0    0    0    0  0.00000000000E+00  0.00000000000E+00  0.30770798661E+03  0.30770798661E+03  0.00000000000E+00 0. -1.
         22   -1    0    0    0    0 -0.00000000000E+00 -0.00000000000E+00 -0.14311043813E+04  0.14311043813E+04  0.00000000000E+00 0. -1.
        -24    2    1    2    0    0 -0.65025678304E+02  0.88720766501E+02 -0.13304255380E+04  0.13373743932E+04  0.80239904466E+02 0.  0.
         25    2    1    2    0    0  0.25511511861E+02 -0.53602201357E+02 -0.33149177853E+02  0.14237758285E+03  0.12509386427E+03 0.  0.
         24    2    1    2    0    0  0.39514166443E+02 -0.35118565144E+02  0.24017832111E+03  0.25906039187E+03  0.81436955589E+02 0.  0.
        -13    1    5    5    0    0 -0.71943718972E+01  0.21113992970E+01 -0.34235780011E+01  0.82424438316E+01  0.00000000000E+00 0.  1.
         14    1    5    5    0    0  0.46708538340E+02 -0.37229964441E+02  0.24360189911E+03  0.25081794804E+03  0.00000000000E+00 0. -1.
         13    1    3    3    0    0 -0.79712287074E+02  0.50229477687E+02 -0.98692195194E+03  0.99140909233E+03  0.00000000000E+00 0. -1.
        -14    1    3    3    0    0  0.14686608770E+02  0.38491288813E+02 -0.34350358606E+03  0.34596530090E+03  0.00000000000E+00 0.  1.
          5    1    4    4  501    0  0.46245255510E+02 -0.79922544271E+02 -0.49510167339E+02  0.10485688251E+03  0.41800000000E+01 0. -1.
         -5    1    4    4    0  501 -0.20733743649E+02  0.26320342914E+02  0.16360989486E+02  0.37520700337E+02  0.41800000000E+01 0. -1.
</event>
<event>
11    1  0.1078607E-008  0.1673142E+03  0.7561462E-02  0.1080393E+00
         22   -1    0    0    0    0  0.00000000000E+00  0.00000000000E+00  0.28289801292E+04  0.28289801292E+04  0.00000000000E+00 0.  1.
         22   -1    0    0    0    0 -0.00000000000E+00 -0.00000000000E+00 -0.39952441588E+02  0.39952441588E+02  0.00000000000E+00 0.  1.
        -24    2    1    2    0    0 -0.61200423801E+02  0.85084027417E+02  0.11917940772E+03  0.17785075176E+03  0.80264407311E+02 0.  0.
         25    2    1    2    0    0  0.11461554576E+03 -0.11687414172E+03  0.11926864480E+04  0.12103492895E+04  0.12509256974E+03 0.  0.
         24    2    1    2    0    0 -0.53415121960E+02  0.31790114307E+02  0.14771618319E+04  0.14807325296E+04  0.81841064304E+02 0.  0.
        -13    1    5    5    0    0 -0.38808226042E+02 -0.20119812048E+02  0.89871927282E+03  0.89978176053E+03  0.00000000000E+00 0.  1.
         14    1    5    5    0    0 -0.14606895918E+02  0.51909926355E+02  0.57844255913E+03  0.58095076906E+03  0.00000000000E+00 0. -1.
         13    1    3    3    0    0  0.91583796719E+01  0.55083979754E+01 -0.71056687745E+01  0.12833896338E+02  0.00000000000E+00 0. -1.
        -14    1    3    3    0    0 -0.70358803473E+02  0.79575629442E+02  0.12628507649E+03  0.16501685542E+03  0.00000000000E+00 0.  1.
          5    1    4    4  501    0  0.19710958589E+02 -0.10623869462E+03  0.54227783187E+03  0.55295379686E+03  0.41800000000E+01 0. -1.
         -5    1    4    4    0  501  0.94904587172E+02 -0.10635447101E+02  0.65040861609E+03  0.65739549260E+03  0.41800000000E+01 0. -1.
</event>
<event>
11    1  0.1078607E-008  0.1462448E+03  0.7561462E-02  0.1100779E+00
         22   -1    0    0    0    0  0.00000000000E+00  0.00000000000E+00  0.72782961714E+03  0.72782961714E+03  0.00000000000E+00 0.  1.
         22   -1    0    0    0    0 -0.00000000000E+00 -0.00000000000E+00 -0.14594347516E+03  0.14594347516E+03  0.00000000000E+00 0.  1.
        -24    2    1    2    0    0 -0.76211393024E+02 -0.23075551277E+02 -0.89473420442E+02  0.14067790416E+03  0.73784295476E+02 0.  0.
         25    2    1    2    0    0  0.44155847064E+02  0.28374330285E+02  0.14102882100E+03  0.19566591999E+03  0.12506471304E+03 0.  0.
         24    2    1    2    0    0  0.32055545959E+02 -0.52987790082E+01  0.53033074143E+03  0.53742926816E+03  0.80770588004E+02 0.  0.
        -11    1    5    5    0    0  0.51682169982E+02 -0.25865278240E+02  0.38876849816E+03  0.39304071606E+03  0.00000000000E+00 0.  1.
         12    1    5    5    0    0 -0.19626624023E+02  0.20566499232E+02  0.14156224326E+03  0.14438855210E+03  0.00000000000E+00 0. -1.
         11    1    3    3    0    0 -0.95420951263E+00  0.20214326777E+02 -0.84702439511E+01  0.21937970631E+02  0.00000000000E+00 0. -1.
        -12    1    3    3    0    0 -0.75257183511E+02 -0.43289878054E+02 -0.81003176490E+02  0.11873993352E+03  0.00000000000E+00 0.  1.
          5    1    4    4  501    0  0.71696909512E+02  0.52085495542E+02  0.60978564026E+02  0.10765316229E+03  0.41800000000E+01 0. -1.
         -5    1    4    4    0  501 -0.27541062447E+02 -0.23711165257E+02  0.80050256970E+02  0.88012757709E+02  0.41800000000E+01 0. -1.
</event>
<event>
11    1  0.1078607E-008  0.1312463E+03  0.7561462E-02  0.1117747E+00
         22   -1    0    0    0    0  0.00000000000E+00  0.00000000000E+00  0.96475366373E+03  0.96475366373E+03  0.00000000000E+00 0.  1.
         22   -1    0    0    0    0 -0.00000000000E+00 -0.00000000000E+00 -0.15270274343E+03  0.15270274343E+03  0.00000000000E+00 0. -1.
        -24    2    1    2    0    0  0.23645790209E+02  0.33171251377E+02 -0.10397775636E+03  0.13718409022E+03  0.79678387783E+02 0.  0.
         25    2    1    2    0    0 -0.14282700832E+02 -0.28192745820E+02  0.10927973792E+03  0.16908030599E+03  0.12508901748E+03 0.  0.
         24    2    1    2    0    0 -0.93630893771E+01 -0.49785055573E+01  0.80674893874E+03  0.81119201095E+03  0.84120006588E+02 0.  0.
        -13    1    5    5    0    0 -0.38802304881E+02 -0.27607858084E+02  0.44209647089E+03  0.44465391291E+03  0.00000000000E+00 0.  1.
         14    1    5    5    0    0  0.29439215504E+02  0.22629352527E+02  0.36465246785E+03  0.36653809804E+03  0.00000000000E+00 0. -1.
         13    1    3    3    0    0  0.11557819192E+02  0.37555229682E+02 -0.11419143668E+03  0.12076283647E+03  0.00000000000E+00 0. -1.
        -14    1    3    3    0    0  0.12087971017E+02 -0.43839783055E+01  0.10213680321E+02  0.16421253752E+02  0.00000000000E+00 0.  1.
          5    1    4    4  501    0 -0.44800006083E+02 -0.63238388499E+02  0.45202527136E+02  0.89815784718E+02  0.41800000000E+01 0. -1.
         -5    1    4    4    0  501  0.30517305251E+02  0.35045642680E+02  0.64077210788E+02  0.79264521275E+02  0.41800000000E+01 0. -1.
</event>
<event>
11    1  0.1078607E-008  0.1468127E+03  0.7561462E-02  0.1100181E+00
         22   -1    0    0    0    0  0.00000000000E+00  0.00000000000E+00  0.57223196790E+03  0.57223196790E+03  0.00000000000E+00 0.  1.
         22   -1    0    0    0    0 -0.00000000000E+00 -0.00000000000E+00 -0.40577039575E+03  0.40577039575E+03  0.00000000000E+00 0. -1.
         24    2    1    2    0    0 -0.53828687019E+02 -0.61369938643E+02 -0.34369102370E+03  0.36265672377E+03  0.82052316266E+02 0.  0.
         25    2    1    2    0    0  0.23818224186E+02  0.22926958139E+02  0.39029363129E+02  0.13514469156E+03  0.12509133966E+03 0.  0.
        -24    2    1    2    0    0  0.30010462832E+02  0.38442980504E+02  0.47112323273E+03  0.48020094832E+03  0.79103474756E+02 0.  0.
        -13    1    3    3    0    0 -0.44347297282E+02 -0.15623163488E+02 -0.65840049982E+02  0.80905365677E+02  0.00000000000E+00 0.  1.
         14    1    3    3    0    0 -0.94813897362E+01 -0.45746775155E+02 -0.27785097372E+03  0.28175135809E+03  0.00000000000E+00 0. -1.
         11    1    5    5    0    0 -0.49079167190E+01 -0.14843904322E+02  0.24545139124E+02  0.29101426024E+02  0.00000000000E+00 0. -1.
        -12    1    5    5    0    0  0.34918379551E+02  0.53286884826E+02  0.44657809361E+03  0.45109952229E+03  0.00000000000E+00 0.  1.
          5    1    4    4  501    0  0.37782652145E+02  0.39482614809E+02  0.75034643074E+02  0.92919727381E+02  0.41800000000E+01 0. -1.
         -5    1    4    4    0  501 -0.13964427958E+02 -0.16555656670E+02 -0.36005279945E+02  0.42224964179E+02  0.41800000000E+01 0. -1.
</event>
<event>
11    1  0.1078607E-008  0.1830577E+03  0.7561462E-02  0.1067196E+00
         22   -1    0    0    0    0  0.00000000000E+00  0.00000000000E+00  0.85595179474E+03  0.85595179474E+03  0.00000000000E+00 0. -1.
         22   -1    0    0    0    0 -0.00000000000E+00 -0.00000000000E+00 -0.47515102615E+03  0.47515102615E+03  0.00000000000E+00 0. -1.
        -24    2    1    2    0    0 -0.61226136509E+02  0.12283242394E+03 -0.32477002935E+03  0.36169187979E+03  0.80678372421E+02 0.  0.
         25    2    1    2    0    0  0.90761440644E+02 -0.89025098915E+02 -0.67528784667E+02  0.19071183042E+03  0.12509099951E+03 0.  0.
         24    2    1    2    0    0 -0.29535304135E+02 -0.33807325028E+02  0.77309958262E+03  0.77869911068E+03  0.81694987084E+02 0.  0.
        -11    1    5    5    0    0 -0.28301511826E+02 -0.19028126172E+02  0.10427595136E+03  0.10971107141E+03  0.00000000000E+00 0.  1.
         12    1    5    5    0    0 -0.12337923092E+01 -0.14779198856E+02  0.66882363125E+03  0.66898803927E+03  0.00000000000E+00 0. -1.
         13    1    3    3    0    0 -0.60507995646E+02  0.83721553391E+02 -0.29491665299E+03  0.31248415680E+03  0.00000000000E+00 0. -1.
        -14    1    3    3    0    0 -0.71814086281E+00  0.39110870553E+02 -0.29853376361E+02  0.49207722990E+02  0.00000000000E+00 0.  1.
          5    1    4    4  501    0  0.29411334066E+02 -0.71653761877E+02  0.22084116485E+02  0.80650286817E+02  0.41800000000E+01 0. -1.
         -5    1    4    4    0  501  0.61350106577E+02 -0.17371337038E+02 -0.89612901152E+02  0.11006154360E+03  0.41800000000E+01 0. -1.
</event>
<event>
11    1  0.1078607E-008  0.1660089E+03  0.7561462E-02  0.1081558E+00
         22   -1    0    0    0    0  0.00000000000E+00  0.00000000000E+00  0.38649240208E+03  0.38649240208E+03  0.00000000000E+00 0.  1.
         22   -1    0    0    0    0 -0.00000000000E+00 -0.00000000000E+00 -0.10484805813E+04  0.10484805813E+04  0.00000000000E+00 0.  1.
        -24    2    1    2    0    0  0.63603992760E+02  0.90633076621E+02 -0.95265223267E+03  0.96230241679E+03  0.78865977924E+02 0.  0.
         25    2    1    2    0    0 -0.33180608516E+02 -0.82399173539E+02 -0.16081862256E+02  0.15425363781E+03  0.12507990207E+03 0.  0.
         24    2    1    2    0    0 -0.30423384244E+02 -0.82339030817E+01  0.30674591567E+03  0.31841692881E+03  0.79390832640E+02 0.  0.
        -11    1    5    5    0    0 -0.28623244234E+00 -0.32515078961E+02  0.23178644594E+03  0.23405612321E+03  0.00000000000E+00 0.  1.
         12    1    5    5    0    0 -0.30137151802E+02  0.24281175879E+02  0.74959469726E+02  0.84360805606E+02  0.00000000000E+00 0. -1.
         11    1    3    3    0    0  0.52374495140E+02  0.26294311660E+02 -0.25729892350E+03  0.26388864053E+03  0.00000000000E+00 0. -1.
        -12    1    3    3    0    0  0.11229497620E+02  0.64338764961E+02 -0.69535330918E+03  0.69841377627E+03  0.00000000000E+00 0.  1.
          5    1    4    4  501    0 -0.16463852920E+02  0.21703517233E+02  0.28551265232E+02  0.39683097908E+02  0.41800000000E+01 0.  1.
         -5    1    4    4    0  501 -0.16716755596E+02 -0.10410269077E+03 -0.44633127487E+02  0.11457053990E+03  0.41800000000E+01 0.  1.
</event>
<event>
11    1  0.1078607E-008  0.1886395E+03  0.7561462E-02  0.1062861E+00
         22   -1    0    0    0    0  0.00000000000E+00  0.00000000000E+00  0.63401317350E+03  0.63401317350E+03  0.00000000000E+00 0.  1.
         22   -1    0    0    0    0 -0.00000000000E+00 -0.00000000000E+00 -0.40836357020E+03  0.40836357020E+03  0.00000000000E+00 0.  1.
        -24    2    1    2    0    0 -0.10517450872E+03  0.45204821697E+02 -0.12350948777E+03  0.18980268374E+03  0.87551767512E+02 0.  0.
         25    2    1    2    0    0  0.19264819230E+03  0.71278368032E+00 -0.19028162107E+03  0.29827652312E+03  0.12509178578E+03 0.  0.
         24    2    1    2    0    0 -0.87473683576E+02 -0.45917605378E+02  0.53944071214E+03  0.55429753685E+03  0.80556847309E+02 0.  0.
        -11    1    5    5    0    0 -0.91547281674E+02 -0.39308810629E+02  0.53699346561E+03  0.54615755005E+03  0.00000000000E+00 0.  1.
         12    1    5    5    0    0  0.40735980985E+01 -0.66087947484E+01  0.24472465270E+01  0.81399867971E+01  0.00000000000E+00 0. -1.
         13    1    3    3    0    0  0.15162784837E+02  0.30842939496E+00 -0.84393336189E+01  0.17355907485E+02  0.00000000000E+00 0. -1.
        -14    1    3    3    0    0 -0.12033729356E+03  0.44896392303E+02 -0.11507015415E+03  0.17244677625E+03  0.00000000000E+00 0.  1.
          5    1    4    4  501    0 -0.16537661316E+02 -0.10391553476E+02 -0.13154759497E+02  0.23916494786E+02  0.41800000000E+01 0. -1.
         -5    1    4    4    0  501  0.20918585361E+03  0.11104337156E+02 -0.17712686157E+03  0.27436002833E+03  0.41800000000E+01 0. -1.
</event>
<event>
11    1  0.1078607E-008  0.2016308E+03  0.7561462E-02  0.1053376E+00
         22   -1    0    0    0    0  0.00000000000E+00  0.00000000000E+00  0.25727598676E+03  0.25727598676E+03  0.00000000000E+00 0. -1.
         22   -1    0    0    0    0 -0.00000000000E+00 -0.00000000000E+00 -0.83356488713E+03  0.83356488713E+03  0.00000000000E+00 0. -1.
         24    2    1    2    0    0 -0.50907466952E+02 -0.31794343485E+02 -0.53455595243E+03  0.54400485997E+03  0.81171244447E+02 0.  0.
         25    2    1    2    0    0  0.16067356565E+03  0.13500457286E+03 -0.19894120947E+03  0.31506976171E+03  0.12509644491E+03 0.  0.
        -24    2    1    2    0    0 -0.10976609870E+03 -0.10321022937E+03  0.15720826154E+03  0.23176625221E+03  0.79373864076E+02 0.  0.
        -11    1    3    3    0    0 -0.52622883701E+02 -0.11031440652E+02 -0.15847906701E+03  0.16735135270E+03  0.00000000000E+00 0.  1.
         12    1    3    3    0    0  0.17154167490E+01 -0.20762902833E+02 -0.37607688542E+03  0.37665350727E+03  0.00000000000E+00 0. -1.
         13    1    5    5    0    0 -0.39539395905E+02 -0.14205522043E+02  0.91604493404E+02  0.10077967998E+03  0.00000000000E+00 0. -1.
        -14    1    5    5    0    0 -0.70226702793E+02 -0.89004707327E+02  0.65603768133E+02  0.13098657223E+03  0.00000000000E+00 0.  1.
          5    1    4    4  501    0  0.16584796969E+03  0.99521147704E+02 -0.20091240627E+03  0.27891445872E+03  0.41800000000E+01 0. -1.
         -5    1    4    4    0  501 -0.51744040437E+01  0.35483425151E+02  0.19711967931E+01  0.36155302992E+02  0.41800000000E+01 0. -1.
</event>
<event>
11    1  0.1078607E-008  0.1377399E+03  0.7561462E-02  0.1110109E+00
         22   -1    0    0    0    0  0.00000000000E+00  0.00000000000E+00  0.14805472531E+03  0.14805472531E+03  0.00000000000E+00 0.  1.
         22   -1    0    0    0    0 -0.00000000000E+00 -0.00000000000E+00 -0.19356962606E+04  0.19356962606E+04  0.00000000000E+00 0. -1.
        -24    2    1    2    0    0 -0.42940909681E+02 -0.57600674914E+02 -0.10666041308E+04  0.10720799098E+04  0.80927137413E+02 0.  0.
         25    2    1    2    0    0  0.89846757150E+02  0.87866901216E+02 -0.83331639333E+03  0.85197170152E+03  0.12508611718E+03 0.  0.
         24    2    1    2    0    0 -0.46905847469E+02 -0.30266226301E+02  0.11227898886E+03  0.15969937462E+03  0.98899524428E+02 0.  0.
        -13    1    5    5    0    0 -0.52582336469E+01 -0.49713486381E+02  0.10050470017E+03  0.11225094434E+03  0.00000000000E+00 0.  1.
         14    1    5    5    0    0 -0.41647613823E+02  0.19447260080E+02  0.11774288696E+02  0.47448430280E+02  0.00000000000E+00 0. -1.
         11    1    3    3    0    0 -0.65884556773E+02 -0.48133341720E+02 -0.72547277386E+03  0.73004680605E+03  0.00000000000E+00 0. -1.
        -12    1    3    3    0    0  0.22943647092E+02 -0.94673331946E+01 -0.34113135697E+03  0.34203310373E+03  0.00000000000E+00 0.  1.
          5    1    4    4  501    0  0.50029676261E+02 -0.22455970444E+02 -0.36778495033E+03  0.37187428145E+03  0.41800000000E+01 0. -1.
         -5    1    4    4    0  501  0.39817080889E+02  0.11032287166E+03 -0.46553144299E+03  0.48009742007E+03  0.41800000000E+01 0. -1.
</event>
<event>
11    1  0.1078607E-008  0.1442166E+03  0.7561462E-02  0.1102939E+00
         22   -1    0    0    0    0  0.00000000000E+00  0.00000000000E+00  0.21738366834E+03  0.21738366834E+03  0.00000000000E+00 0. -1.
         22   -1    0    0    0    0 -0.00000000000E+00 -0.00000000000E+00 -0.11299558563E+04  0.11299558563E+04  0.00000000000E+00 0.  1.
         24    2    1    2    0    0 -0.71802119795E+02  0.13442227168E+02 -0.10130604004E+04  0.10188654688E+04  0.80369338950E+02 0.  0.
         25    2    1    2    0    0  0.44983949440E+02 -0.36803725367E+02 -0.55837907668E+02  0.14880585013E+03  0.12508892514E+03 0.  0.
        -24    2    1    2    0    0  0.26818170356E+02  0.23361498199E+02  0.15632612009E+03  0.17966820578E+03  0.81103850013E+02 0.  0.
        -11    1    3    3    0    0 -0.37604086094E+02 -0.12895605713E+02 -0.82323477164E+03  0.82419406282E+03  0.00000000000E+00 0.  1.
         12    1    3    3    0    0 -0.34198033702E+02  0.26337832881E+02 -0.18982562878E+03  0.19467140594E+03  0.00000000000E+00 0. -1.
         13    1    5    5    0    0 -0.26445444676E+02 -0.14092410920E+00  0.75950233478E+02  0.80422754051E+02  0.00000000000E+00 0. -1.
        -14    1    5    5    0    0  0.53263615032E+02  0.23502422308E+02  0.80375886614E+02  0.99245451733E+02  0.00000000000E+00 0.  1.
          5    1    4    4  501    0  0.13881841953E+02 -0.74349207633E+02 -0.64036984926E+02  0.99190312279E+02  0.41800000000E+01 0.  1.
         -5    1    4    4    0  501  0.31102107487E+02  0.37545482266E+02  0.81990772576E+01  0.49615537854E+02  0.41800000000E+01 0.  1.
</event>
<event>
11    1  0.1078607E-008  0.2415859E+03  0.7561462E-02  0.1028479E+00
         22   -1    0    0    0    0  0.00000000000E+00  0.00000000000E+00  0.42650564308E+04  0.42650564308E+04  0.00000000000E+00 0.  1.
         22   -1    0    0    0    0 -0.00000000000E+00 -0.00000000000E+00 -0.46226788979E+02  0.46226788979E+02  0.00000000000E+00 0. -1.
        -24    2    1    2    0    0  0.18399852043E+03 -0.89055839079E+02  0.31789409915E+03  0.38748386609E+03  0.85444076515E+02 0.  0.
         25    2    1    2    0    0 -0.16113820698E+03  0.16060424811E+03  0.16539499006E+04  0.16742033706E+04  0.12508959280E+03 0.  0.
         24    2    1    2    0    0 -0.22860313443E+02 -0.71548409034E+02  0.22469856421E+04  0.22495959831E+04  0.78075877338E+02 0.  0.
        -11    1    5    5    0    0 -0.27727394245E+02 -0.86392531848E+01  0.13848441504E+04  0.13851486440E+04  0.00000000000E+00 0.  1.
         12    1    5    5    0    0  0.48670808021E+01 -0.62909155849E+02  0.86214149171E+03  0.86444733911E+03  0.00000000000E+00 0. -1.
         11    1    3    3    0    0  0.15769971643E+03 -0.82566942346E+02  0.31282670346E+03  0.35992644655E+03  0.00000000000E+00 0. -1.
        -12    1    3    3    0    0  0.26298804002E+02 -0.64888967332E+01  0.50673956956E+01  0.27557419543E+02  0.00000000000E+00 0.  1.
          5    1    4    4  501    0 -0.66634487225E+01  0.60973281338E+02  0.21709027704E+03  0.22562757671E+03  0.41800000000E+01 0. -1.
         -5    1    4    4    0  501 -0.15447475826E+03  0.99630966775E+02  0.14368596235E+04  0.14485757939E+04  0.41800000000E+01 0. -1.
</event>
<event>
11    1  0.1078607E-008  0.1296258E+03  0.7561462E-02  0.1119730E+00
         22   -1    0    0    0    0  0.00000000000E+00  0.00000000000E+00  0.57055489485E+03  0.57055489485E+03  0.00000000000E+00 0. -1.
         22   -1    0    0    0    0 -0.00000000000E+00 -0.00000000000E+00 -0.75815851119E+03  0.75815851119E+03  0.00000000000E+00 0. -1.
         24    2    1    2    0    0 -0.17513933135E+02  0.27865120696E+02 -0.63839753154E+03  0.64448418118E+03  0.82007613743E+02 0.  0.
         25    2    1    2    0    0  0.56700231178E+01 -0.53030718471E+02 -0.72913697284E+02  0.15429835631E+03  0.12508864555E+03 0.  0.
        -24    2    1    2    0    0  0.11843910017E+02  0.25165597775E+02  0.52370761249E+03  0.52993086854E+03  0.76049171869E+02 0.  0.
        -13    1    3    3    0    0  0.31588610037E+02  0.92878189846E+01 -0.33123500251E+03  0.33286743721E+03  0.00000000000E+00 0.  1.
         14    1    3    3    0    0 -0.49102543171E+02  0.18577301712E+02 -0.30716252903E+03  0.31161674397E+03  0.00000000000E+00 0. -1.
         11    1    5    5    0    0 -0.71660080729E+01  0.19742406310E+02  0.49276618129E+03  0.49321356805E+03  0.00000000000E+00 0. -1.
        -12    1    5    5    0    0  0.19009918090E+02  0.54231914641E+01  0.30941431193E+02  0.36717300496E+02  0.00000000000E+00 0.  1.
          5    1    4    4  501    0  0.25017779933E+01 -0.16235381327E+02 -0.10428971168E+03  0.10565823613E+03  0.41800000000E+01 0.  1.
         -5    1    4    4    0  501  0.31682451245E+01 -0.36795337144E+02  0.31376014392E+02  0.48640120187E+02  0.41800000000E+01 0.  1.
</event>
<event>
11    1  0.1078607E-008  0.1973309E+03  0.7561462E-02  0.1056427E+00
         22   -1    0    0    0    0  0.00000000000E+00  0.00000000000E+00  0.62381843088E+02  0.62381843088E+02  0.00000000000E+00 0. -1.
         22   -1    0    0    0    0 -0.00000000000E+00 -0.00000000000E+00 -0.17306728299E+04  0.17306728299E+04  0.00000000000E+00 0.  1.
        -24    2    1    2    0    0  0.33620528810E+02 -0.44448982302E+02 -0.11199978682E+04  0.11242437057E+04  0.80141331268E+02 0.  0.
         25    2    1    2    0    0 -0.31627370580E+02 -0.12375443427E+03 -0.37020919651E+03  0.41111683868E+03  0.12508699092E+03 0.  0.
         24    2    1    2    0    0 -0.19931582300E+01  0.16820341657E+03 -0.17808392211E+03  0.25769412864E+03  0.79975112358E+02 0.  0.
        -13    1    5    5    0    0 -0.19862298577E+02  0.86386973179E+02 -0.13998603157E+03  0.16569040127E+03  0.00000000000E+00 0.  1.
         14    1    5    5    0    0  0.17869140347E+02  0.81816443394E+02 -0.38097890542E+02  0.92003727371E+02  0.00000000000E+00 0. -1.
         11    1    3    3    0    0  0.24805323661E+02 -0.62027397440E+02 -0.57112369206E+03  0.57501736822E+03  0.00000000000E+00 0. -1.
        -12    1    3    3    0    0  0.88152051484E+01  0.17578415138E+02 -0.54887417615E+03  0.54922633746E+03  0.00000000000E+00 0.  1.
          5    1    4    4  501    0 -0.40511592997E+02 -0.14735735716E+03 -0.32550138877E+03  0.35961647121E+03  0.41800000000E+01 0.  1.
         -5    1    4    4    0  501  0.88842224175E+01  0.23602922887E+02 -0.44707807742E+02  0.51500367473E+02  0.41800000000E+01 0.  1.
</event>
<event>
11    1  0.1078607E-008  0.1488053E+03  0.7561462E-02  0.1098106E+00
         22   -1    0    0    0    0  0.00000000000E+00  0.00000000000E+00  0.15988968283E+03  0.15988968283E+03  0.00000000000E+00 0.  1.
         22   -1    0    0    0    0 -0.00000000000E+00 -0.00000000000E+00 -0.22356604872E+03  0.22356604872E+03  0.00000000000E+00 0.  1.
         24    2    1    2    0    0 -0.44629732319E+02  0.18588524343E+02 -0.67042596876E+02  0.11460721516E+03  0.79389909471E+02 0.  0.
         25    2    1    2    0    0 -0.48056844530E+02 -0.47945197072E+02  0.72260260014E+01  0.14251544901E+03  0.12510090138E+03 0.  0.
        -24    2    1    2    0    0  0.92686576848E+02  0.29356672729E+02 -0.38597950125E+01  0.12633306738E+03  0.80576238025E+02 0.  0.
        -11    1    3    3    0    0 -0.23694619430E+02  0.39759432906E+02 -0.70810988455E+02  0.84595765739E+02  0.00000000000E+00 0.  1.
         12    1    3    3    0    0 -0.20935112889E+02 -0.21170908563E+02  0.37683915793E+01  0.30011449417E+02  0.00000000000E+00 0. -1.
         11    1    5    5    0    0 -0.28630807903E+01 -0.17193632514E+02  0.83885036383E+01  0.19343867864E+02  0.00000000000E+00 0. -1.
        -12    1    5    5    0    0  0.95549657639E+02  0.46550305243E+02 -0.12248298651E+02  0.10698919952E+03  0.00000000000E+00 0.  1.
          5    1    4    4  501    0 -0.41084912554E+02 -0.30648857195E+02 -0.56255275145E+02  0.76219753795E+02  0.41800000000E+01 0. -1.
         -5    1    4    4    0  501 -0.69719319754E+01 -0.17296339877E+02  0.63481301147E+02  0.66295695214E+02  0.41800000000E+01 0. -1.
</event>
<event>
11    1  0.1078607E-008  0.1654473E+03  0.7561462E-02  0.1082063E+00
         22   -1    0    0    0    0  0.00000000000E+00  0.00000000000E+00  0.15770303214E+03  0.15770303214E+03  0.00000000000E+00 0.  1.
         22   -1    0    0    0    0 -0.00000000000E+00 -0.00000000000E+00 -0.14497819177E+04  0.14497819177E+04  0.00000000000E+00 0.  1.
        -24    2    1    2    0    0  0.40927173666E+02  0.67179750881E+02 -0.99768627421E+03  0.10034475088E+04  0.73081110878E+02 0.  0.
         25    2    1    2    0    0 -0.13400646005E+03 -0.11205093721E+03 -0.38813598460E+03  0.44363459095E+03  0.12509581881E+03 0.  0.
         24    2    1    2    0    0  0.93079286388E+02  0.44871186329E+02  0.93743373211E+02  0.16040285010E+03  0.79145924605E+02 0.  0.
        -11    1    5    5    0    0  0.14475787270E+02  0.31420430955E+02  0.68528276724E+02  0.76765334684E+02  0.00000000000E+00 0.  1.
         12    1    5    5    0    0  0.78603499118E+02  0.13450755374E+02  0.25215096488E+02  0.83637515414E+02  0.00000000000E+00 0. -1.
         11    1    3    3    0    0 -0.15157458770E+02  0.34161347163E+02 -0.52102422329E+03  0.52236288866E+03  0.00000000000E+00 0. -1.
        -12    1    3    3    0    0  0.56084632437E+02  0.33018403718E+02 -0.47666205091E+03  0.48108462017E+03  0.00000000000E+00 0.  1.
          5    1    4    4  501    0 -0.85318325594E+02 -0.21442947815E+01 -0.22705374128E+03  0.24259985267E+03  0.41800000000E+01 0. -1.
         -5    1    4    4    0  501 -0.48688134460E+02 -0.10990664243E+03 -0.16108224331E+03  0.20103473829E+03  0.41800000000E+01 0. -1.
</event>
<event>
11    1  0.1078607E-008  0.1327971E+03  0.7561462E-02  0.1115879E+00
         22   -1    0    0    0    0  0.00000000000E+00  0.00000000000E+00  0.55298779079E+03  0.55298779079E+03  0.00000000000E+00 0. -1.
         22   -1    0    0    0    0 -0.00000000000E+00 -0.00000000000E+00 -0.90899099079E+03  0.90899099079E+03  0.00000000000E+00 0. -1.
        -24    2    1    2    0    0  0.55614250268E-01  0.37920953151E+02 -0.77379773201E+03  0.77871582802E+03  0.78723623906E+02 0.  0.
         25    2    1    2    0    0 -0.43043225648E+02 -0.48553029760E+02 -0.89995886969E+02  0.16720287714E+03  0.12508967375E+03 0.  0.
         24    2    1    2    0    0  0.42987611397E+02  0.10632076609E+02  0.50779041898E+03  0.51606007642E+03  0.80659265353E+02 0.  0.
        -13    1    5    5    0    0 -0.12728707127E+02 -0.68779475022E+01  0.19457054660E+02  0.24246713654E+02  0.00000000000E+00 0.  1.
         14    1    5    5    0    0  0.55716318525E+02  0.17510024112E+02  0.48833336432E+03  0.49181336277E+03  0.00000000000E+00 0. -1.
         13    1    3    3    0    0  0.10253080542E+02  0.48394098899E+02 -0.74278869308E+03  0.74443411867E+03  0.00000000000E+00 0. -1.
        -14    1    3    3    0    0 -0.10197466292E+02 -0.10473145748E+02 -0.31009038935E+02  0.34281709355E+02  0.00000000000E+00 0.  1.
          5    1    4    4  501    0 -0.68383341009E+02  0.59030972512E+01 -0.81119376301E+02  0.10634356349E+03  0.41800000000E+01 0.  1.
         -5    1    4    4    0  501  0.25340115361E+02 -0.54456127011E+02 -0.88765106683E+01  0.60859313644E+02  0.41800000000E+01 0.  1.
</event>
<event>
11    1  0.1078607E-008  0.1277023E+03  0.7561462E-02  0.1122125E+00
         22   -1    0    0    0    0  0.00000000000E+00  0.00000000000E+00  0.28725331829E+03  0.28725331829E+03  0.00000000000E+00 0. -1.
         22   -1    0    0    0    0 -0.00000000000E+00 -0.00000000000E+00 -0.61823689158E+03  0.61823689158E+03  0.00000000000E+00 0. -1.
         24    2    1    2    0    0  0.25711422981E+02 -0.78507521676E+01 -0.57109026690E+03  0.57737342043E+03  0.80580779871E+02 0.  0.
         25    2    1    2    0    0  0.46051811886E+01 -0.47980107792E+01  0.89582455071E+02  0.15400381838E+03  0.12509169124E+03 0.  0.
        -24    2    1    2    0    0 -0.30316604169E+02  0.12648762947E+02  0.15052423854E+03  0.17411297107E+03  0.81109140123E+02 0.  0.
        -11    1    3    3    0    0  0.23777679440E+01  0.34142705447E+02 -0.16957682356E+03  0.17299617685E+03  0.00000000000E+00 0.  1.
         12    1    3    3    0    0  0.23333655037E+02 -0.41993457615E+02 -0.40151344335E+03  0.40437724358E+03  0.00000000000E+00 0. -1.
         11    1    5    5    0    0 -0.11967893143E+02  0.78300646312E+01  0.15413873559E+03  0.15480080809E+03  0.00000000000E+00 0. -1.
        -12    1    5    5    0    0 -0.18348711026E+02  0.48186983155E+01 -0.36144970419E+01  0.19312162972E+02  0.00000000000E+00 0.  1.
          5    1    4    4  501    0 -0.15894423542E+02 -0.27654126791E+02  0.11150143666E+03  0.11604924043E+03  0.41800000000E+01 0. -1.
         -5    1    4    4    0  501  0.20499604731E+02  0.22856116012E+02 -0.21918981585E+02  0.37954577945E+02  0.41800000000E+01 0. -1.
</event>
<event>
11    1  0.1078607E-008  0.1823079E+03  0.7561462E-02  0.1067791E+00
         22   -1    0    0    0    0  0.00000000000E+00  0.00000000000E+00  0.13086694946E+04  0.13086694946E+04  0.00000000000E+00 0. -1.
         22   -1    0    0    0    0 -0.00000000000E+00 -0.00000000000E+00 -0.45354324128E+03  0.45354324128E+03  0.00000000000E+00 0. -1.
        -24    2    1    2    0    0 -0.12679025273E+03  0.31533093479E+02 -0.36184000429E+03  0.38928483324E+03  0.59534767268E+02 0.  0.
         25    2    1    2    0    0  0.16846516056E+03  0.45610199243E+02  0.79170366317E+02  0.22885985991E+03  0.12509231783E+03 0.  0.
         24    2    1    2    0    0 -0.41674907831E+02 -0.77143292722E+02  0.11377958912E+04  0.11440680427E+04  0.81389867846E+02 0.  0.
        -11    1    5    5    0    0  0.11198187954E+02 -0.41858275253E+01  0.25883337895E+02  0.28510835591E+02  0.00000000000E+00 0.  1.
         12    1    5    5    0    0 -0.52873095785E+02 -0.72957465197E+02  0.11119125534E+04  0.11155572071E+04  0.00000000000E+00 0. -1.
         13    1    3    3    0    0 -0.55927991764E+02  0.28112249904E+02 -0.99759894180E+02  0.11777213314E+03  0.00000000000E+00 0. -1.
        -14    1    3    3    0    0 -0.70862260963E+02  0.34208435755E+01 -0.26208011011E+03  0.27151270010E+03  0.00000000000E+00 0.  1.
          5    1    4    4  501    0  0.56848677031E+02 -0.43529799075E+02  0.29815291816E+02  0.77672643278E+02  0.41800000000E+01 0. -1.
         -5    1    4    4    0  501  0.11161648353E+03  0.89139998318E+02  0.49355074501E+02  0.15118721664E+03  0.41800000000E+01 0. -1.
</event>
<event>
11    1  0.1078607E-008  0.1730814E+03  0.7561462E-02  0.1075381E+00
         22   -1    0    0    0    0  0.00000000000E+00  0.00000000000E+00  0.43846707346E+03  0.43846707346E+03  0.00000000000E+00 0.  1.
         22   -1    0    0    0    0 -0.00000000000E+00 -0.00000000000E+00 -0.40149346370E+03  0.40149346370E+03  0.00000000000E+00 0.  1.
        -24    2    1    2    0    0  0.70528622337E+02 -0.95663584625E+02 -0.34507216368E+03  0.37339572939E+03  0.78890839699E+02 0.  0.
         25    2    1    2    0    0 -0.49072115291E+02  0.12871372703E+03  0.23435358395E+03  0.29926265901E+03  0.12514487902E+03 0.  0.
         24    2    1    2    0    0 -0.21456507046E+02 -0.33050142404E+02  0.14769218948E+03  0.16730214876E+03  0.68002445074E+02 0.  0.
        -13    1    5    5    0    0 -0.46518693363E+01 -0.43297069115E+02  0.44545196446E+02  0.62294065598E+02  0.00000000000E+00 0.  1.
         14    1    5    5    0    0 -0.16804637710E+02  0.10246926711E+02  0.10314699304E+03  0.10500808316E+03  0.00000000000E+00 0. -1.
         11    1    3    3    0    0  0.24808909788E+02  0.97927643413E+01 -0.48879153979E+02  0.55682599903E+02  0.00000000000E+00 0. -1.
        -12    1    3    3    0    0  0.45719712549E+02 -0.10545634897E+03 -0.29619300970E+03  0.31771312948E+03  0.00000000000E+00 0.  1.
          5    1    4    4  501    0  0.54150966794E+01  0.11513585893E+03  0.20629872484E+03  0.23635191041E+03  0.41800000000E+01 0. -1.
         -5    1    4    4    0  501 -0.54487211970E+02  0.13577868098E+02  0.28054859111E+02  0.62910748606E+02  0.41800000000E+01 0. -1.
</event>
<event>
11    1  0.1078607E-008  0.1321766E+03  0.7561462E-02  0.1116623E+00
         22   -1    0    0    0    0  0.00000000000E+00  0.00000000000E+00  0.29271218675E+03  0.29271218675E+03  0.00000000000E+00 0.  1.
         22   -1    0    0    0    0 -0.00000000000E+00 -0.00000000000E+00 -0.30357643878E+03  0.30357643878E+03  0.00000000000E+00 0. -1.
        -24    2    1    2    0    0 -0.26770417413E+02  0.32066854215E+02 -0.24697105982E+03  0.26333051049E+03  0.81260783770E+02 0.  0.
         25    2    1    2    0    0  0.93434780211E+01 -0.70534392967E+02  0.12898757233E+03  0.19325538008E+03  0.12508975553E+03 0.  0.
         24    2    1    2    0    0  0.17426939391E+02  0.38467538752E+02  0.10711923545E+03  0.13970273497E+03  0.79113044431E+02 0.  0.
        -11    1    5    5    0    0 -0.29290974389E+02  0.24142395477E+00  0.36495619377E+02  0.46796898400E+02  0.00000000000E+00 0.  1.
         12    1    5    5    0    0  0.46717913781E+02  0.38226114798E+02  0.70623616078E+02  0.92905836568E+02  0.00000000000E+00 0. -1.
         11    1    3    3    0    0  0.87941820816E+00  0.25668526218E+02 -0.22742435686E+03  0.22887001706E+03  0.00000000000E+00 0. -1.
        -12    1    3    3    0    0 -0.27649835621E+02  0.63983279973E+01 -0.19546702958E+02  0.34460493431E+02  0.00000000000E+00 0.  1.
          5    1    4    4  501    0 -0.20351770044E+02 -0.22824609404E+02  0.13321655442E+03  0.13674531111E+03  0.41800000000E+01 0.  1.
         -5    1    4    4    0  501  0.29695248065E+02 -0.47709783563E+02 -0.42289820890E+01  0.56510068968E+02  0.41800000000E+01 0.  1.
</event>
<event>
11    1  0.1078607E-008  0.2365128E+03  0.7561462E-02  0.1031340E+00
         22   -1    0    0    0    0  0.00000000000E+00  0.00000000000E+00  0.13560184867E+04  0.13560184867E+04  0.00000000000E+00 0.  1.
         22   -1    0    0    0    0 -0.00000000000E+00 -0.00000000000E+00 -0.72059542677E+03  0.72059542677E+03  0.00000000000E+00 0.  1.
         24    2    1    2    0    0 -0.21519531842E+03  0.24635656323E+02 -0.64924194100E+03  0.68934787586E+03  0.82276699990E+02 0.  0.
         25    2    1    2    0    0  0.96424458687E+02  0.29001180940E+01  0.86046075732E+02  0.17987245830E+03  0.12507632545E+03 0.  0.
        -24    2    1    2    0    0  0.11877085973E+03 -0.27535774417E+02  0.11986189252E+04  0.12073935793E+04  0.79039177133E+02 0.  0.
        -13    1    3    3    0    0 -0.20624234826E+03  0.36758348640E+01 -0.61041178981E+03  0.64432287801E+03  0.00000000000E+00 0.  1.
         14    1    3    3    0    0 -0.89529701591E+01  0.20959821459E+02 -0.38830151188E+02  0.45024997852E+02  0.00000000000E+00 0. -1.
         13    1    5    5    0    0  0.28700749165E+02 -0.39405208816E+02  0.27221094212E+03  0.27654167949E+03  0.00000000000E+00 0. -1.
        -14    1    5    5    0    0  0.90070110568E+02  0.11869434399E+02  0.92640798309E+03  0.93085189984E+03  0.00000000000E+00 0.  1.
          5    1    4    4  501    0  0.25076246857E+02 -0.16925299092E+02 -0.29570351056E+02  0.42510727674E+02  0.41800000000E+01 0.  1.
         -5    1    4    4    0  501  0.71348211830E+02  0.19825417186E+02  0.11561642679E+03  0.13736173063E+03  0.41800000000E+01 0.  1.
</event>
<event>
11    1  0.1078607E-008  0.1834519E+03  0.7561462E-02  0.1066884E+00
         22   -1    0    0    0    0  0.00000000000E+00  0.00000000000E+00  0.58797658353E+03  0.58797658353E+03  0.00000000000E+00 0. -1.
         22   -1    0    0    0    0 -0.00000000000E+00 -0.00000000000E+00 -0.68777584195E+03  0.68777584195E+03  0.00000000000E+00 0. -1.
        -24    2    1    2    0    0  0.41545210691E+02  0.18543343660E+02 -0.61185197363E+03  0.61874987776E+03  0.80116873818E+02 0.  0.
         25    2    1    2    0    0 -0.33937806610E+01 -0.14573060631E+03  0.99105684844E+02  0.21614515140E+03  0.12509141595E+03 0.  0.
         24    2    1    2    0    0 -0.38151430030E+02  0.12718726265E+03  0.41294703037E+03  0.44085739631E+03  0.78726505078E+02 0.  0.
        -13    1    5    5    0    0 -0.44250093075E+02  0.12796365932E+03  0.31689450233E+03  0.34460832034E+03  0.00000000000E+00 0.  1.
         14    1    5    5    0    0  0.60986630450E+01 -0.77639666905E+00  0.96052528037E+02  0.96249075970E+02  0.00000000000E+00 0. -1.
         11    1    3    3    0    0  0.53478834813E+02  0.26263020916E+02 -0.58780460385E+03  0.59081637109E+03  0.00000000000E+00 0. -1.
        -12    1    3    3    0    0 -0.11933624122E+02 -0.77196772562E+01 -0.24047369774E+02  0.27933506666E+02  0.00000000000E+00 0.  1.
          5    1    4    4  501    0  0.55695828791E+02 -0.39774318230E+02  0.51496228916E+02  0.85751709767E+02  0.41800000000E+01 0. -1.
         -5    1    4    4    0  501 -0.59089609452E+02 -0.10595628808E+03  0.47609455928E+02  0.13039344164E+03  0.41800000000E+01 0. -1.
</event>
<event>
11    1  0.1078607E-008  0.2316661E+03  0.7561462E-02  0.1034146E+00
         22   -1    0    0    0    0  0.00000000000E+00  0.00000000000E+00  0.10710583936E+04  0.10710583936E+04  0.00000000000E+00 0.  1.
         22   -1    0    0    0    0 -0.00000000000E+00 -0.00000000000E+00 -0.27440878572E+03  0.27440878572E+03  0.00000000000E+00 0.  1.
        -24    2    1    2    0    0 -0.36656328302E+02  0.19210491779E+03 -0.18014278275E+03  0.27787155145E+03  0.80704343661E+02 0.  0.
         25    2    1    2    0    0  0.55632691215E+02 -0.18405692267E+03  0.26251200676E+03  0.34861455009E+03  0.12509038224E+03 0.  0.
         24    2    1    2    0    0 -0.18976362912E+02 -0.80479951279E+01  0.71428038390E+03  0.71898107781E+03  0.79450933564E+02 0.  0.
        -11    1    5    5    0    0  0.19736127263E+02 -0.13768391602E+02  0.53216082306E+03  0.53270463197E+03  0.00000000000E+00 0.  1.
         12    1    5    5    0    0 -0.38712490175E+02  0.57203964739E+01  0.18211956085E+03  0.18627644584E+03  0.00000000000E+00 0. -1.
         13    1    3    3    0    0  0.13059858546E+02  0.46339646579E+02 -0.11524583462E+02  0.49504936867E+02  0.00000000000E+00 0. -1.
        -14    1    3    3    0    0 -0.49716186848E+02  0.14576527121E+03 -0.16861819928E+03  0.22836661458E+03  0.00000000000E+00 0.  1.
          5    1    4    4  501    0  0.29161686654E+02 -0.15297123314E+03  0.11007107454E+03  0.19074515980E+03  0.41800000000E+01 0. -1.
         -5    1    4    4    0  501  0.26471004561E+02 -0.31085689526E+02  0.15244093221E+03  0.15786939029E+03  0.41800000000E+01 0. -1.
</event>
<event>
11    1  0.1078607E-008  0.1500002E+03  0.7561462E-02  0.1096879E+00
         22   -1    0    0    0    0  0.00000000000E+00  0.00000000000E+00  0.75850641024E+03  0.75850641024E+03  0.00000000000E+00 0.  1.
         22   -1    0    0    0    0 -0.00000000000E+00 -0.00000000000E+00 -0.22917531940E+03  0.22917531940E+03  0.00000000000E+00 0. -1.
        -24    2    1    2    0    0  0.57961665258E+02 -0.57689407257E+02 -0.18696194080E+03  0.22265699944E+03  0.89071598980E+02 0.  0.
         25    2    1    2    0    0 -0.68051353687E+02  0.74407989203E+02  0.29878932858E+03  0.33924885967E+03  0.12508872979E+03 0.  0.
         24    2    1    2    0    0  0.10089688430E+02 -0.16718581946E+02  0.41750370305E+03  0.42577587053E+03  0.81206139355E+02 0.  0.
        -11    1    5    5    0    0 -0.33554453116E+01  0.16586802656E+02  0.33926586241E+03  0.33968766011E+03  0.00000000000E+00 0.  1.
         12    1    5    5    0    0  0.13445133741E+02 -0.33305384602E+02  0.78237840649E+02  0.86088210425E+02  0.00000000000E+00 0. -1.
         13    1    3    3    0    0  0.44121302337E+01  0.24611261842E+01 -0.11361884144E+03  0.11373110905E+03  0.00000000000E+00 0. -1.
        -14    1    3    3    0    0  0.53549535024E+02 -0.60150533441E+02 -0.73343099355E+02  0.10892589039E+03  0.00000000000E+00 0.  1.
          5    1    4    4  501    0 -0.55952215565E+02  0.75746891807E+02  0.30884857315E+03  0.32291354196E+03  0.41800000000E+01 0.  1.
         -5    1    4    4    0  501 -0.12099138122E+02 -0.13389026033E+01 -0.10059244570E+02  0.16335317713E+02  0.41800000000E+01 0.  1.
</event>
<event>
11    1  0.1078607E-008  0.8787444E+03  0.7561462E-02  0.8803755E-01
         22   -1    0    0    0    0  0.00000000000E+00  0.00000000000E+00  0.37335987213E+03  0.37335987213E+03  0.00000000000E+00 0.  1.
         22   -1    0    0    0    0 -0.00000000000E+00 -0.00000000000E+00 -0.28523792106E+04  0.28523792106E+04  0.00000000000E+00 0.  1.
         24    2    1    2    0    0 -0.31457273659E+02  0.20729624333E+02 -0.18931358310E+03  0.20931407529E+03  0.80953517376E+02 0.  0.
         25    2    1    2    0    0  0.57163861296E+03  0.65975992027E+03 -0.18275539179E+04  0.20292004268E+04  0.12508874090E+03 0.  0.
        -24    2    1    2    0    0 -0.54018133930E+03 -0.68048954460E+03 -0.46215183754E+03  0.98722458070E+03  0.78524850508E+02 0.  0.
        -13    1    3    3    0    0  0.15151829991E+02 -0.95233008554E+01 -0.11573641088E+03  0.11711186112E+03  0.00000000000E+00 0.  1.
         14    1    3    3    0    0 -0.46609103650E+02  0.30252925189E+02 -0.73577172222E+02  0.92202214169E+02  0.00000000000E+00 0. -1.
         11    1    5    5    0    0 -0.17628339990E+03 -0.25886911548E+03 -0.13277477614E+03  0.34017377502E+03  0.00000000000E+00 0. -1.
        -12    1    5    5    0    0 -0.36389793940E+03 -0.42162042912E+03 -0.32937706141E+03  0.64705080568E+03  0.00000000000E+00 0.  1.
          5    1    4    4  501    0  0.93676691460E+02  0.57287690555E+02 -0.28802070955E+03  0.30827034165E+03  0.41800000000E+01 0.  1.
         -5    1    4    4    0  501  0.47796192150E+03  0.60247222971E+03 -0.15395332083E+04  0.17209300851E+04  0.41800000000E+01 0.  1.
</event>
<event>
11    1  0.1078607E-008  0.1958440E+03  0.7561462E-02  0.1057502E+00
         22   -1    0    0    0    0  0.00000000000E+00  0.00000000000E+00  0.46744696497E+03  0.46744696497E+03  0.00000000000E+00 0. -1.
         22   -1    0    0    0    0 -0.00000000000E+00 -0.00000000000E+00 -0.63599089363E+03  0.63599089363E+03  0.00000000000E+00 0.  1.
        -24    2    1    2    0    0  0.51472744288E+02 -0.13316332437E+03 -0.48695933468E+03  0.51406474439E+03  0.82166011419E+02 0.  0.
         25    2    1    2    0    0 -0.10677600178E+03  0.21722649816E+03  0.34998392229E+02  0.27470129690E+03  0.12508976377E+03 0.  0.
         24    2    1    2    0    0  0.55303257491E+02 -0.84063173798E+02  0.28341701379E+03  0.31467181731E+03  0.92563931553E+02 0.  0.
        -11    1    5    5    0    0 -0.37253973654E+01  0.11291886335E+02  0.24366772181E+01  0.12137655391E+02  0.00000000000E+00 0.  1.
         12    1    5    5    0    0  0.59028654856E+02 -0.95355060133E+02  0.28098033658E+03  0.30253416192E+03  0.00000000000E+00 0. -1.
         11    1    3    3    0    0  0.18249299867E+02 -0.17575369245E+02 -0.21766427052E+03  0.21913389790E+03  0.00000000000E+00 0. -1.
        -12    1    3    3    0    0  0.33223444421E+02 -0.11558795512E+03 -0.26929506416E+03  0.29493084649E+03  0.00000000000E+00 0.  1.
          5    1    4    4  501    0 -0.56632607260E+02  0.11146837660E+02 -0.74946113055E+01  0.58353627081E+02  0.41800000000E+01 0. -1.
         -5    1    4    4    0  501 -0.50143394519E+02  0.20607966050E+03  0.42493003534E+02  0.21634766982E+03  0.41800000000E+01 0. -1.
</event>
<event>
11    1  0.1078607E-008  0.1353780E+03  0.7561462E-02  0.1112832E+00
         22   -1    0    0    0    0  0.00000000000E+00  0.00000000000E+00  0.16534312528E+03  0.16534312528E+03  0.00000000000E+00 0. -1.
         22   -1    0    0    0    0 -0.00000000000E+00 -0.00000000000E+00 -0.10609815169E+04  0.10609815169E+04  0.00000000000E+00 0.  1.
        -24    2    1    2    0    0 -0.14085641410E+02  0.45609076134E+02 -0.68961988538E+03  0.69576732918E+03  0.78980990872E+02 0.  0.
         25    2    1    2    0    0  0.49735581037E+02 -0.80685816905E+02 -0.33556478585E+03  0.37045258851E+03  0.12509023048E+03 0.  0.
         24    2    1    2    0    0 -0.35649939626E+02  0.35076740771E+02  0.12954627966E+03  0.16010472445E+03  0.79686813710E+02 0.  0.
        -13    1    5    5    0    0 -0.44029974683E+01 -0.12728550895E+02 -0.46599721583E+01  0.14251937942E+02  0.00000000000E+00 0.  1.
         14    1    5    5    0    0 -0.31246942158E+02  0.47805291665E+02  0.13420625181E+03  0.14585278651E+03  0.00000000000E+00 0. -1.
         13    1    3    3    0    0 -0.20672868930E+00  0.65394453444E+02 -0.41925864099E+03  0.42432803975E+03  0.00000000000E+00 0. -1.
        -14    1    3    3    0    0 -0.13878912721E+02 -0.19785377310E+02 -0.27036124440E+03  0.27143928943E+03  0.00000000000E+00 0.  1.
          5    1    4    4  501    0  0.52692408504E+02 -0.66250293475E+02 -0.87148243415E+02  0.12156430409E+03  0.41800000000E+01 0. -1.
         -5    1    4    4    0  501 -0.29568274678E+01 -0.14435523429E+02 -0.24841654244E+03  0.24888828442E+03  0.41800000000E+01 0. -1.
</event>
<event>
11    1  0.1078607E-008  0.1389998E+03  0.7561462E-02  0.1108680E+00
         22   -1    0    0    0    0  0.00000000000E+00  0.00000000000E+00  0.42813993011E+03  0.42813993011E+03  0.00000000000E+00 0. -1.
         22   -1    0    0    0    0 -0.00000000000E+00 -0.00000000000E+00 -0.26507679523E+03  0.26507679523E+03  0.00000000000E+00 0.  1.
         24    2    1    2    0    0 -0.46727173612E+00  0.41826986938E+02 -0.19199662858E+03  0.21276832130E+03  0.81596188550E+02 0.  0.
         25    2    1    2    0    0 -0.27577792416E+02  0.17104947149E+02  0.21138762474E+02  0.13095746237E+03  0.12509954364E+03 0.  0.
        -24    2    1    2    0    0  0.28045064152E+02 -0.58931934087E+02  0.33392100098E+03  0.34949094166E+03  0.79882319247E+02 0.  0.
        -11    1    3    3    0    0 -0.18302092914E+01 -0.86015308368E+00 -0.15844162847E+03  0.15845453342E+03  0.00000000000E+00 0.  1.
         12    1    3    3    0    0  0.13629375553E+01  0.42687140021E+02 -0.33555000109E+02  0.54313787884E+02  0.00000000000E+00 0. -1.
         13    1    5    5    0    0  0.31485561666E+02 -0.70408532480E+02  0.32629960196E+03  0.33529111572E+03  0.00000000000E+00 0. -1.
        -14    1    5    5    0    0 -0.34404975143E+01  0.11476598393E+02  0.76213990230E+01  0.14199825946E+02  0.00000000000E+00 0.  1.
          5    1    4    4  501    0 -0.60895839340E+02  0.50725145036E+02  0.10598842649E+01  0.79372157225E+02  0.41800000000E+01 0. -1.
         -5    1    4    4    0  501  0.33318046924E+02 -0.33620197886E+02  0.20078878209E+02  0.51585305145E+02  0.41800000000E+01 0. -1.
</event>
<event>
11    1  0.1078607E-008  0.1707279E+03  0.7561462E-02  0.1077400E+00
         22   -1    0    0    0    0  0.00000000000E+00  0.00000000000E+00  0.29773280924E+04  0.29773280924E+04  0.00000000000E+00 0. -1.
         22   -1    0    0    0    0 -0.00000000000E+00 -0.00000000000E+00 -0.10961409354E+04  0.10961409354E+04  0.00000000000E+00 0. -1.
         24    2    1    2    0    0  0.29824240923E+02  0.25509388904E+02 -0.10030715054E+04  0.10070597677E+04  0.80478049622E+02 0.  0.
         25    2    1    2    0    0 -0.44063932513E+02 -0.14025982770E+03  0.14981226383E+02  0.19361413929E+03  0.12509016098E+03 0.  0.
        -24    2    1    2    0    0  0.14239691590E+02  0.11475043879E+03  0.28692774360E+04  0.28727951209E+04  0.82633948926E+02 0.  0.
        -13    1    3    3    0    0  0.11116582050E+02  0.30430014198E+02 -0.13723203213E+03  0.14100423682E+03  0.00000000000E+00 0.  1.
         14    1    3    3    0    0  0.18707658873E+02 -0.49206252939E+01 -0.86583947325E+03  0.86605553084E+03  0.00000000000E+00 0. -1.
         11    1    5    5    0    0  0.46308203153E+02  0.77120116573E+02  0.15673972054E+04  0.15699764207E+04  0.00000000000E+00 0. -1.
        -12    1    5    5    0    0 -0.32068511563E+02  0.37630322218E+02  0.13018802306E+04  0.13028187002E+04  0.00000000000E+00 0.  1.
          5    1    4    4  501    0  0.59159612007E+01  0.21609267111E+02 -0.38355746824E+01  0.23111535110E+02  0.41800000000E+01 0. -1.
         -5    1    4    4    0  501 -0.49979893714E+02 -0.16186909481E+03  0.18816801065E+02  0.17050260418E+03  0.41800000000E+01 0. -1.
</event>
<event>
11    1  0.1078607E-008  0.4453168E+03  0.7561462E-02  0.9524766E-01
         22   -1    0    0    0    0  0.00000000000E+00  0.00000000000E+00  0.41463986630E+03  0.41463986630E+03  0.00000000000E+00 0.  1.
         22   -1    0    0    0    0 -0.00000000000E+00 -0.00000000000E+00 -0.66191041528E+03  0.66191041528E+03  0.00000000000E+00 0.  1.
        -24    2    1    2    0    0 -0.41092776521E+03 -0.16898902771E+03 -0.95633597506E+02  0.46174840702E+03  0.81528441095E+02 0.  0.
         25    2    1    2    0    0  0.40199106122E+03  0.10920299905E+03 -0.22505600631E+03  0.48971484412E+03  0.12509322231E+03 0.  0.
         24    2    1    2    0    0  0.89367039955E+01  0.59786028653E+02  0.73419054832E+02  0.12508703045E+03  0.81253760978E+02 0.  0.
        -13    1    5    5    0    0 -0.92877979555E+01  0.50155291590E+02  0.23204949273E+01  0.51060759513E+02  0.00000000000E+00 0.  1.
         14    1    5    5    0    0  0.18224501951E+02  0.96307370630E+01  0.71098559905E+02  0.74026270933E+02  0.00000000000E+00 0. -1.
         11    1    3    3    0    0 -0.19542034888E+03 -0.91590685839E+02 -0.86719737870E+02  0.23259036830E+03  0.00000000000E+00 0. -1.
        -12    1    3    3    0    0 -0.21550741633E+03 -0.77398341868E+02 -0.89138596355E+01  0.22915803872E+03  0.00000000000E+00 0.  1.
          5    1    4    4  501    0  0.88426805932E+02  0.38805993779E+02  0.12014398030E+01  0.96664993757E+02  0.41800000000E+01 0. -1.
         -5    1    4    4    0  501  0.31356425529E+03  0.70397005275E+02 -0.22625744611E+03  0.39304985036E+03  0.41800000000E+01 0. -1.
</event>
<event>
11    1  0.1078607E-008  0.1802143E+03  0.7561462E-02  0.1069470E+00
         22   -1    0    0    0    0  0.00000000000E+00  0.00000000000E+00  0.20273341270E+04  0.20273341270E+04  0.00000000000E+00 0.  1.
         22   -1    0    0    0    0 -0.00000000000E+00 -0.00000000000E+00 -0.13925777584E+04  0.13925777584E+04  0.00000000000E+00 0. -1.
        -24    2    1    2    0    0  0.27211624832E+01 -0.43682486882E+02 -0.10400978357E+04  0.10440773348E+04  0.79864941295E+02 0.  0.
         25    2    1    2    0    0  0.71306341307E+02  0.14987464078E+03 -0.31649793132E+03  0.37863456236E+03  0.12508472739E+03 0.  0.
         24    2    1    2    0    0 -0.74027503790E+02 -0.10619215390E+03  0.19913521356E+04  0.19971999882E+04  0.81040854258E+02 0.  0.
        -11    1    5    5    0    0 -0.84720862710E+02 -0.10694804089E+03  0.19370892153E+04  0.19418882914E+04  0.00000000000E+00 0.  1.
         12    1    5    5    0    0  0.10693358920E+02  0.75588699207E+00  0.54262920327E+02  0.55311696887E+02  0.00000000000E+00 0. -1.
         11    1    3    3    0    0  0.17144774909E+02 -0.81030502669E+01 -0.84634760114E+03  0.84656001836E+03  0.00000000000E+00 0. -1.
        -12    1    3    3    0    0 -0.14423612426E+02 -0.35579436615E+02 -0.19375023460E+03  0.19751731649E+03  0.00000000000E+00 0.  1.
          5    1    4    4  501    0  0.10062043197E+03  0.13791367331E+03 -0.23026113072E+03  0.28667457742E+03  0.41800000000E+01 0. -1.
         -5    1    4    4    0  501 -0.29314090665E+02  0.11960967474E+02 -0.86236800597E+02  0.91959984948E+02  0.41800000000E+01 0. -1.
</event>
<event>
11    1  0.1078607E-008  0.1801937E+03  0.7561462E-02  0.1069486E+00
         22   -1    0    0    0    0  0.00000000000E+00  0.00000000000E+00  0.77676619776E+03  0.77676619776E+03  0.00000000000E+00 0. -1.
         22   -1    0    0    0    0 -0.00000000000E+00 -0.00000000000E+00 -0.93112469731E+03  0.93112469731E+03  0.00000000000E+00 0. -1.
         24    2    1    2    0    0  0.12035365982E+03  0.45933003997E+01 -0.77983871409E+03  0.79312765388E+03  0.79980957157E+02 0.  0.
         25    2    1    2    0    0  0.36976032684E+02 -0.39485035213E+02 -0.98759628882E+02  0.16830966165E+03  0.12509349667E+03 0.  0.
        -24    2    1    2    0    0 -0.15732969251E+03  0.34891734814E+02  0.72423984343E+03  0.74645357954E+03  0.81850658508E+02 0.  0.
        -13    1    3    3    0    0  0.87927892985E+02 -0.25700084202E+02 -0.38240661077E+03  0.39322592063E+03  0.00000000000E+00 0.  1.
         14    1    3    3    0    0  0.32425766837E+02  0.30293384602E+02 -0.39743210332E+03  0.39990173324E+03  0.00000000000E+00 0. -1.
         11    1    5    5    0    0 -0.90070529369E+02 -0.16155921566E+02  0.46130344925E+03  0.47029202242E+03  0.00000000000E+00 0. -1.
        -12    1    5    5    0    0 -0.67259163137E+02  0.51047656380E+02  0.26293639418E+03  0.27616155712E+03  0.00000000000E+00 0.  1.
          5    1    4    4  501    0  0.24562868587E+00  0.20730333693E+02  0.20651741714E+02  0.29559666850E+02  0.41800000000E+01 0.  1.
         -5    1    4    4    0  501  0.36730403998E+02 -0.60215368906E+02 -0.11941137060E+03  0.13874999480E+03  0.41800000000E+01 0.  1.
</event>
<event>
11    1  0.1078607E-008  0.1751973E+03  0.7561462E-02  0.1073595E+00
         22   -1    0    0    0    0  0.00000000000E+00  0.00000000000E+00  0.41727205997E+04  0.41727205997E+04  0.00000000000E+00 0.  1.
         22   -1    0    0    0    0 -0.00000000000E+00 -0.00000000000E+00 -0.22753229613E+04  0.22753229613E+04  0.00000000000E+00 0.  1.
         24    2    1    2    0    0 -0.38455684707E+02  0.33430951667E+01 -0.22672997065E+04  0.22693663654E+04  0.88801604601E+02 0.  0.
         25    2    1    2    0    0  0.66319472080E+02 -0.11848387351E+03  0.17381101425E+04  0.17478883876E+04  0.12510094885E+03 0.  0.
        -24    2    1    2    0    0 -0.27863787373E+02  0.11514077835E+03  0.24265872025E+04  0.24307888081E+04  0.79843528689E+02 0.  0.
        -11    1    3    3    0    0 -0.57539891475E+02  0.67751650339E+01 -0.21205287912E+04  0.21213201305E+04  0.00000000000E+00 0.  1.
         12    1    3    3    0    0  0.19084206768E+02 -0.34320698673E+01 -0.14677091538E+03  0.14804623485E+03  0.00000000000E+00 0. -1.
         11    1    5    5    0    0 -0.41442222558E+02  0.32770661142E+02  0.60975135577E+03  0.61203602010E+03  0.00000000000E+00 0. -1.
        -12    1    5    5    0    0  0.13578435186E+02  0.82370117204E+02  0.18168358467E+04  0.18187527880E+04  0.00000000000E+00 0.  1.
          5    1    4    4  501    0  0.43979569326E+02 -0.12661559957E+03  0.95101525889E+03  0.96042345224E+03  0.41800000000E+01 0. -1.
         -5    1    4    4    0  501  0.22339902754E+02  0.81317260535E+01  0.78709488358E+03  0.78746493533E+03  0.41800000000E+01 0. -1.
</event>
<event>
11    1  0.1078607E-008  0.1437420E+03  0.7561462E-02  0.1103450E+00
         22   -1    0    0    0    0  0.00000000000E+00  0.00000000000E+00  0.78144313229E+03  0.78144313229E+03  0.00000000000E+00 0. -1.
         22   -1    0    0    0    0 -0.00000000000E+00 -0.00000000000E+00 -0.27919112428E+03  0.27919112428E+03  0.00000000000E+00 0. -1.
        -24    2    1    2    0    0 -0.19140413171E+01 -0.62609511821E+02 -0.15648944250E+03  0.18700127110E+03  0.80974781586E+02 0.  0.
         25    2    1    2    0    0 -0.17296269974E+02  0.10563930975E+03 -0.39328667046E+02  0.16927135900E+03  0.12508886524E+03 0.  0.
         24    2    1    2    0    0  0.19210311291E+02 -0.43029797934E+02  0.69807011755E+03  0.70436162647E+03  0.81257690459E+02 0.  0.
        -11    1    5    5    0    0 -0.28879386508E+02 -0.31415394299E+00  0.17777377061E+03  0.18010450070E+03  0.00000000000E+00 0.  1.
         12    1    5    5    0    0  0.48089697799E+02 -0.42715643991E+02  0.52029634694E+03  0.52425712577E+03  0.00000000000E+00 0. -1.
         13    1    3    3    0    0  0.34572697669E+02 -0.47904079554E+02 -0.11801442178E+03  0.13197528560E+03  0.00000000000E+00 0. -1.
        -14    1    3    3    0    0 -0.36486738987E+02 -0.14705432266E+02 -0.38475020722E+02  0.55025985494E+02  0.00000000000E+00 0.  1.
          5    1    4    4  501    0  0.32117005245E+02  0.91884781638E+02  0.10060411924E+02  0.97943858463E+02  0.41800000000E+01 0.  1.
         -5    1    4    4    0  501 -0.49413275219E+02  0.13754528117E+02 -0.49389078971E+02  0.71327500539E+02  0.41800000000E+01 0.  1.
</event>
<event>
11    1  0.1078607E-008  0.1441688E+03  0.7561462E-02  0.1102991E+00
         22   -1    0    0    0    0  0.00000000000E+00  0.00000000000E+00  0.22391823667E+03  0.22391823667E+03  0.00000000000E+00 0.  1.
         22   -1    0    0    0    0 -0.00000000000E+00 -0.00000000000E+00 -0.12729728069E+04  0.12729728069E+04  0.00000000000E+00 0.  1.
        -24    2    1    2    0    0 -0.45399647997E+02 -0.55119361556E+02 -0.11320289519E+04  0.11371886229E+04  0.81296642655E+02 0.  0.
         25    2    1    2    0    0  0.80195512935E+01  0.91408192496E+02 -0.77365119946E+02  0.17335662651E+03  0.12508951719E+03 0.  0.
         24    2    1    2    0    0  0.37380096703E+02 -0.36288830939E+02  0.16033950162E+03  0.18634579412E+03  0.79384181841E+02 0.  0.
        -13    1    5    5    0    0  0.29618692011E+01  0.11297815866E+02  0.10501279632E+03  0.10566030808E+03  0.00000000000E+00 0.  1.
         14    1    5    5    0    0  0.34418227502E+02 -0.47586646805E+02  0.55326705302E+02  0.80685486043E+02  0.00000000000E+00 0. -1.
         11    1    3    3    0    0 -0.43327978596E+02  0.32669897113E+01 -0.30247893965E+03  0.30558386064E+03  0.00000000000E+00 0. -1.
        -12    1    3    3    0    0 -0.20716694007E+01 -0.58386351268E+02 -0.82955001228E+03  0.83160476231E+03  0.00000000000E+00 0.  1.
          5    1    4    4  501    0  0.32774160040E+02  0.95374554687E+02 -0.97950691395E+02  0.14064942799E+03  0.41800000000E+01 0. -1.
         -5    1    4    4    0  501 -0.24754608747E+02 -0.39663621914E+01  0.20585571450E+02  0.32707198522E+02  0.41800000000E+01 0. -1.
</event>
<event>
11    1  0.1078607E-008  0.1456505E+03  0.7561462E-02  0.1101408E+00
         22   -1    0    0    0    0  0.00000000000E+00  0.00000000000E+00  0.12310295651E+03  0.12310295651E+03  0.00000000000E+00 0. -1.
         22   -1    0    0    0    0 -0.00000000000E+00 -0.00000000000E+00 -0.83782807508E+03  0.83782807508E+03  0.00000000000E+00 0.  1.
         24    2    1    2    0    0 -0.14023045243E+02  0.76263908550E+02 -0.50806315768E+03  0.52024531077E+03  0.80710480360E+02 0.  0.
         25    2    1    2    0    0  0.62274064538E+02 -0.50777963763E+02 -0.28039180515E+03  0.31736786963E+03  0.12508532912E+03 0.  0.
        -24    2    1    2    0    0 -0.48251019295E+02 -0.25485944786E+02  0.73729844259E+02  0.12331785118E+03  0.82422741042E+02 0.  0.
        -11    1    3    3    0    0  0.23779842233E+02  0.63356958849E+02 -0.24531191711E+03  0.25447499250E+03  0.00000000000E+00 0.  1.
         12    1    3    3    0    0 -0.37802887476E+02  0.12906949701E+02 -0.26275124057E+03  0.26577031827E+03  0.00000000000E+00 0. -1.
         11    1    5    5    0    0 -0.72842756637E+01  0.10818380686E+02  0.66894994778E+02  0.68154518258E+02  0.00000000000E+00 0. -1.
        -12    1    5    5    0    0 -0.40966743631E+02 -0.36304325472E+02  0.68348494806E+01  0.55163332923E+02  0.00000000000E+00 0.  1.
          5    1    4    4  501    0  0.42368619067E+02 -0.17387352107E+02 -0.13927785900E+02  0.48050759776E+02  0.41800000000E+01 0.  1.
         -5    1    4    4    0  501  0.19905445471E+02 -0.33390611656E+02 -0.26646401925E+03  0.26931710986E+03  0.41800000000E+01 0.  1.
</event>
<event>
11    1  0.1336236E-008  0.2205696E+03  0.7561462E-02  0.1040861E+00
         22   -1    0    0    0    0  0.00000000000E+00  0.00000000000E+00  0.72985938474E+03  0.72985938474E+03  0.00000000000E+00 0. -1.
         22   -1    0    0    0    0 -0.00000000000E+00 -0.00000000000E+00 -0.71857142593E+03  0.71857142593E+03  0.00000000000E+00 0.  1.
        -24    2    1    2    0    0 -0.32569537128E+02  0.17537974714E+03 -0.55381220621E+03  0.58729386549E+03  0.79920549565E+02 0.  0.
         25    2    1    2    0    0 -0.57267585202E+02 -0.21523229617E+03 -0.26140175336E+02  0.25677719459E+03  0.12508677495E+03 0.  0.
         24    2    1    2    0    0  0.89837122330E+02  0.39852549033E+02  0.59124034036E+03  0.60435975058E+03  0.77631397272E+02 0.  0.
        -13    1    5    5    0    0 -0.59554438406E+01  0.25401541543E+02  0.17887359162E+03  0.18076633371E+03  0.00000000000E+00 0.  1.
         14    1    5    5    0    0  0.95792566170E+02  0.14451007490E+02  0.41236674874E+03  0.42359341687E+03  0.00000000000E+00 0. -1.
         11    1    3    3    0    0 -0.56646240968E+01  0.23727478049E+02 -0.19513692269E+02  0.31238843876E+02  0.00000000000E+00 0. -1.
        -12    1    3    3    0    0 -0.26904913031E+02  0.15165226909E+03 -0.53429851394E+03  0.55605502162E+03  0.00000000000E+00 0.  1.
          5    1    4    4  501    0 -0.26165437270E+02 -0.37426658447E+02 -0.57472333426E+02  0.73525005131E+02  0.41800000000E+01 0.  1.
         -5    1    4    4    0  501 -0.31102147931E+02 -0.17780563772E+03  0.31332158090E+02  0.18325218946E+03  0.41800000000E+01 0.  1.
</event>
<event>
11    1  0.1078607E-008  0.1460865E+03  0.7561462E-02  0.1100946E+00
         22   -1    0    0    0    0  0.00000000000E+00  0.00000000000E+00  0.12494025573E+04  0.12494025573E+04  0.00000000000E+00 0.  1.
         22   -1    0    0    0    0 -0.00000000000E+00 -0.00000000000E+00 -0.10120333303E+04  0.10120333303E+04  0.00000000000E+00 0. -1.
         24    2    1    2    0    0  0.32198803359E+02  0.32187426922E+02 -0.66044618549E+03  0.66697818706E+03  0.81227733594E+02 0.  0.
         25    2    1    2    0    0  0.42226504915E+02 -0.18233641146E+02 -0.33300457540E+03  0.35868563303E+03  0.12509113767E+03 0.  0.
        -24    2    1    2    0    0 -0.74425308274E+02 -0.13953785776E+02  0.12308199879E+04  0.12357720675E+04  0.80504197058E+02 0.  0.
        -13    1    3    3    0    0 -0.17732127258E+02  0.20818724492E+01 -0.40062831306E+02  0.43861064536E+02  0.00000000000E+00 0.  1.
         14    1    3    3    0    0  0.49930930616E+02  0.30105554472E+02 -0.62038335418E+03  0.62311712253E+03  0.00000000000E+00 0. -1.
         13    1    5    5    0    0 -0.58703164843E+02 -0.88280563436E+01  0.36513373341E+03  0.36992788407E+03  0.00000000000E+00 0. -1.
        -14    1    5    5    0    0 -0.15722143431E+02 -0.51257294321E+01  0.86568625445E+03  0.86584418346E+03  0.00000000000E+00 0.  1.
          5    1    4    4  501    0  0.73757285215E+02 -0.46794699551E+02 -0.18493114025E+03  0.20456509981E+03  0.41800000000E+01 0.  1.
         -5    1    4    4    0  501 -0.31530780299E+02  0.28561058405E+02 -0.14807343515E+03  0.15412053322E+03  0.41800000000E+01 0.  1.
</event>
<event>
11    1  0.1078607E-008  0.1261564E+03  0.7561462E-02  0.1124084E+00
         22   -1    0    0    0    0  0.00000000000E+00  0.00000000000E+00  0.16772570676E+03  0.16772570676E+03  0.00000000000E+00 0.  1.
         22   -1    0    0    0    0 -0.00000000000E+00 -0.00000000000E+00 -0.25931534198E+03  0.25931534198E+03  0.00000000000E+00 0. -1.
         24    2    1    2    0    0  0.31406003436E+01  0.14374779230E+02 -0.13814087848E+03  0.15958057484E+03  0.78527446861E+02 0.  0.
         25    2    1    2    0    0 -0.83408869097E+01 -0.27926354881E+02 -0.53571040074E+02  0.13916420186E+03  0.12508943622E+03 0.  0.
        -24    2    1    2    0    0  0.52002865661E+01  0.13551575651E+02  0.10012228333E+03  0.12829627205E+03  0.78897234548E+02 0.  0.
        -11    1    3    3    0    0 -0.27775997742E+02  0.33287582243E+02 -0.68344786841E+02  0.80935647711E+02  0.00000000000E+00 0.  1.
         12    1    3    3    0    0  0.30916598085E+02 -0.18912803013E+02 -0.69796091637E+02  0.78644927127E+02  0.00000000000E+00 0. -1.
         11    1    5    5    0    0  0.40584537689E+02  0.18367781001E+01  0.36783638328E+02  0.54804329226E+02  0.00000000000E+00 0. -1.
        -12    1    5    5    0    0 -0.35384251123E+02  0.11714797551E+02  0.63338644999E+02  0.73491942820E+02  0.00000000000E+00 0.  1.
          5    1    4    4  501    0 -0.42252252596E+01  0.21459149086E+02  0.32713856267E+02  0.39572925085E+02  0.41800000000E+01 0. -1.
         -5    1    4    4    0  501 -0.41156616501E+01 -0.49385503967E+02 -0.86284896341E+02  0.99591276774E+02  0.41800000000E+01 0. -1.
</event>
<event>
11    1  0.1078607E-008  0.2701939E+03  0.7561462E-02  0.1013660E+00
         22   -1    0    0    0    0  0.00000000000E+00  0.00000000000E+00  0.30633364385E+03  0.30633364385E+03  0.00000000000E+00 0. -1.
         22   -1    0    0    0    0 -0.00000000000E+00 -0.00000000000E+00 -0.82022366427E+03  0.82022366427E+03  0.00000000000E+00 0.  1.
         24    2    1    2    0    0  0.69652349689E+02  0.21053180256E+03 -0.48430274573E+03  0.53870843056E+03  0.80514184636E+02 0.  0.
         25    2    1    2    0    0 -0.86395969641E+02 -0.28482716287E+03 -0.20349201558E+03  0.38163800554E+03  0.12509112914E+03 0.  0.
        -24    2    1    2    0    0  0.16743619952E+02  0.74295360306E+02  0.17390474089E+03  0.20621087202E+03  0.80497922109E+02 0.  0.
        -11    1    3    3    0    0  0.41254587100E+02  0.18003269739E+03 -0.44333583007E+03  0.48027114353E+03  0.00000000000E+00 0.  1.
         12    1    3    3    0    0  0.28397762589E+02  0.30499105172E+02 -0.40966915657E+02  0.58437287024E+02  0.00000000000E+00 0. -1.
         13    1    5    5    0    0  0.19539904591E+02  0.90708700015E+02  0.15772379579E+03  0.18299363893E+03  0.00000000000E+00 0. -1.
        -14    1    5    5    0    0 -0.27962846384E+01 -0.16413339709E+02  0.16180945098E+02  0.23217233092E+02  0.00000000000E+00 0.  1.
          5    1    4    4  501    0 -0.79511667672E+02 -0.13997066311E+03 -0.45926879890E+02  0.16745340403E+03  0.41800000000E+01 0. -1.
         -5    1    4    4    0  501 -0.68843019693E+01 -0.14485649976E+03 -0.15756513569E+03  0.21418460150E+03  0.41800000000E+01 0. -1.
</event>
<event>
11    1  0.1078607E-008  0.1616242E+03  0.7561462E-02  0.1085560E+00
         22   -1    0    0    0    0  0.00000000000E+00  0.00000000000E+00  0.36706944016E+03  0.36706944016E+03  0.00000000000E+00 0.  1.
         22   -1    0    0    0    0 -0.00000000000E+00 -0.00000000000E+00 -0.48273900253E+03  0.48273900253E+03  0.00000000000E+00 0.  1.
        -24    2    1    2    0    0  0.13994050081E+02 -0.79123748937E+02 -0.33073169037E+03  0.34904007368E+03  0.77389411022E+02 0.  0.
         25    2    1    2    0    0  0.89706573004E+02  0.74506742877E+02 -0.71550368091E+02  0.18537976191E+03  0.12509067502E+03 0.  0.
         24    2    1    2    0    0 -0.10370062309E+03  0.46170060609E+01  0.28661249609E+03  0.31538860710E+03  0.80920421387E+02 0.  0.
        -11    1    5    5    0    0 -0.90936809788E+02 -0.14822208251E+02  0.27369358790E+03  0.28878604760E+03  0.00000000000E+00 0.  1.
         12    1    5    5    0    0 -0.12763813298E+02  0.19439214312E+02  0.12918908196E+02  0.26602559500E+02  0.00000000000E+00 0. -1.
         13    1    3    3    0    0  0.28747447550E+02 -0.43808878815E+02 -0.81528676721E+02  0.96915214138E+02  0.00000000000E+00 0. -1.
        -14    1    3    3    0    0 -0.14753397469E+02 -0.35314870123E+02 -0.24920301365E+03  0.25212485955E+03  0.00000000000E+00 0.  1.
          5    1    4    4  501    0 -0.22256872814E+02  0.26649624246E+02  0.12750257623E+02  0.37223814009E+02  0.41800000000E+01 0. -1.
         -5    1    4    4    0  501  0.11196344582E+03  0.47857118631E+02 -0.84300625714E+02  0.14815594790E+03  0.41800000000E+01 0. -1.
</event>
<event>
11    1  0.1078607E-008  0.1840830E+03  0.7561462E-02  0.1066387E+00
         22   -1    0    0    0    0  0.00000000000E+00  0.00000000000E+00  0.20385531430E+04  0.20385531430E+04  0.00000000000E+00 0. -1.
         22   -1    0    0    0    0 -0.00000000000E+00 -0.00000000000E+00 -0.23003536561E+03  0.23003536561E+03  0.00000000000E+00 0. -1.
         24    2    1    2    0    0 -0.36223485917E+02 -0.11794719984E+03 -0.85471864837E+02  0.16987577135E+03  0.79552844901E+02 0.  0.
         25    2    1    2    0    0  0.13239894435E+03  0.20525990518E+02 -0.14254891190E+02  0.18385202112E+03  0.12509023541E+03 0.  0.
        -24    2    1    2    0    0 -0.96175458431E+02  0.97421209321E+02  0.19082445334E+04  0.19148607161E+04  0.80955247556E+02 0.  0.
        -11    1    3    3    0    0 -0.23230325471E+02 -0.74566599009E+02 -0.59043901840E+01  0.78324246136E+02  0.00000000000E+00 0.  1.
         12    1    3    3    0    0 -0.12993160446E+02 -0.43380600830E+02 -0.79567474653E+02  0.91551525216E+02  0.00000000000E+00 0. -1.
         13    1    5    5    0    0 -0.93040052816E+02  0.54834699624E+02  0.16043414044E+04  0.16079722129E+04  0.00000000000E+00 0. -1.
        -14    1    5    5    0    0 -0.31354056156E+01  0.42586509697E+02  0.30390312899E+03  0.30688850318E+03  0.00000000000E+00 0.  1.
          5    1    4    4  501    0  0.46806174904E+02  0.22527548184E+02  0.53427513453E+02  0.74634308666E+02  0.41800000000E+01 0. -1.
         -5    1    4    4    0  501  0.85592769445E+02 -0.20015576659E+01 -0.67682404643E+02  0.10921771245E+03  0.41800000000E+01 0. -1.
</event>
<event>
11    1  0.1078607E-008  0.3906885E+03  0.7561462E-02  0.9677639E-01
         22   -1    0    0    0    0  0.00000000000E+00  0.00000000000E+00  0.68246438869E+03  0.68246438869E+03  0.00000000000E+00 0.  1.
         22   -1    0    0    0    0 -0.00000000000E+00 -0.00000000000E+00 -0.96203394861E+03  0.96203394861E+03  0.00000000000E+00 0. -1.
        -24    2    1    2    0    0 -0.13760926192E+03  0.87227627151E+00 -0.27872634893E+03  0.32139764466E+03  0.81676181159E+02 0.  0.
         25    2    1    2    0    0 -0.11751483470E+03 -0.28042306484E+03 -0.55623344041E+03  0.64613186911E+03  0.12507565860E+03 0.  0.
         24    2    1    2    0    0  0.25512409662E+03  0.27955078856E+03  0.55539022943E+03  0.67696882353E+03  0.81188256664E+02 0.  0.
        -13    1    5    5    0    0  0.13176941213E+03  0.13705129403E+03  0.20838422308E+03  0.28208193774E+03  0.00000000000E+00 0.  1.
         14    1    5    5    0    0  0.12335468450E+03  0.14249949453E+03  0.34700600635E+03  0.39488688579E+03  0.00000000000E+00 0. -1.
         13    1    3    3    0    0 -0.14184387850E+03 -0.15673773938E+02 -0.24317287954E+03  0.28195461053E+03  0.00000000000E+00 0. -1.
        -14    1    3    3    0    0  0.42346165756E+01  0.16546050210E+02 -0.35553469389E+02  0.39443034121E+02  0.00000000000E+00 0.  1.
          5    1    4    4  501    0 -0.74301483890E+02 -0.24731320192E+03 -0.36414463610E+03  0.44643400269E+03  0.41800000000E+01 0.  1.
         -5    1    4    4    0  501 -0.43213350814E+02 -0.33109862912E+02 -0.19208880431E+03  0.19969786642E+03  0.41800000000E+01 0.  1.
</event>
<event>
11    1  0.1078607E-008  0.1878233E+03  0.7561462E-02  0.1063485E+00
         22   -1    0    0    0    0  0.00000000000E+00  0.00000000000E+00  0.45270655300E+03  0.45270655300E+03  0.00000000000E+00 0.  1.
         22   -1    0    0    0    0 -0.00000000000E+00 -0.00000000000E+00 -0.21345715055E+04  0.21345715055E+04  0.00000000000E+00 0. -1.
         24    2    1    2    0    0  0.96782035548E+02  0.95737695505E+02 -0.18223585206E+04  0.18291528682E+04  0.79228585694E+02 0.  0.
         25    2    1    2    0    0 -0.75437089689E+02 -0.21564167822E+03 -0.23788870923E+03  0.35274703417E+03  0.12508934507E+03 0.  0.
        -24    2    1    2    0    0 -0.21344945859E+02  0.11990398272E+03  0.37838227731E+03  0.40537815617E+03  0.79534457477E+02 0.  0.
        -13    1    3    3    0    0  0.47721065843E+02  0.17654871566E+02 -0.32515355133E+03  0.32911066005E+03  0.00000000000E+00 0.  1.
         14    1    3    3    0    0  0.49060969705E+02  0.78082823940E+02 -0.14972049693E+04  0.15000422082E+04  0.00000000000E+00 0. -1.
         11    1    5    5    0    0 -0.17811841751E+02  0.19644234519E+02  0.19985340867E+02  0.33204992185E+02  0.00000000000E+00 0. -1.
        -12    1    5    5    0    0 -0.35331041077E+01  0.10025974820E+03  0.35839693645E+03  0.37217316398E+03  0.00000000000E+00 0.  1.
          5    1    4    4  501    0 -0.90599508428E+02 -0.90567523156E+02 -0.15822487257E+03  0.20362546471E+03  0.41800000000E+01 0. -1.
         -5    1    4    4    0  501  0.15162418738E+02 -0.12507415507E+03 -0.79663836657E+02  0.14912156946E+03  0.41800000000E+01 0. -1.
</event>
<event>
11    1  0.1078607E-008  0.1754164E+03  0.7561462E-02  0.1073412E+00
         22   -1    0    0    0    0  0.00000000000E+00  0.00000000000E+00  0.17953374855E+03  0.17953374855E+03  0.00000000000E+00 0.  1.
         22   -1    0    0    0    0 -0.00000000000E+00 -0.00000000000E+00 -0.46409232384E+03  0.46409232384E+03  0.00000000000E+00 0. -1.
        -24    2    1    2    0    0  0.10849247191E+03  0.76082872474E+01 -0.23537642611E+03  0.27198472037E+03  0.82128701722E+02 0.  0.
         25    2    1    2    0    0 -0.16795837319E+03 -0.45828749261E+02 -0.11980828935E+03  0.24558660872E+03  0.12509383199E+03 0.  0.
         24    2    1    2    0    0  0.59465901278E+02  0.38220462013E+02  0.70626140173E+02  0.12605474331E+03  0.76842367900E+02 0.  0.
        -11    1    5    5    0    0  0.32844627265E+02  0.44027051147E+02  0.80171946581E+02  0.97183804162E+02  0.00000000000E+00 0.  1.
         12    1    5    5    0    0  0.26621274013E+02 -0.58065891333E+01 -0.95458064080E+01  0.28870939150E+02  0.00000000000E+00 0. -1.
         11    1    3    3    0    0  0.11734385000E+03  0.57262832670E+01 -0.23522765952E+03  0.26293425272E+03  0.00000000000E+00 0. -1.
        -12    1    3    3    0    0 -0.88513780882E+01  0.18820039805E+01 -0.14876659420E+00  0.90504676422E+01  0.00000000000E+00 0.  1.
          5    1    4    4  501    0 -0.16744037319E+03 -0.75979250261E+02 -0.10172098106E+03  0.21017553480E+03  0.41800000000E+01 0.  1.
         -5    1    4    4    0  501 -0.51799999986E+00  0.30150501000E+02 -0.18087308292E+02  0.35411073914E+02  0.41800000000E+01 0.  1.
</event>
<event>
11    1  0.1078607E-008  0.1458896E+03  0.7561462E-02  0.1101154E+00
         22   -1    0    0    0    0  0.00000000000E+00  0.00000000000E+00  0.33003241694E+03  0.33003241694E+03  0.00000000000E+00 0. -1.
         22   -1    0    0    0    0 -0.00000000000E+00 -0.00000000000E+00 -0.11853952579E+04  0.11853952579E+04  0.00000000000E+00 0. -1.
         24    2    1    2    0    0  0.42424615241E+02  0.53496824339E+02 -0.82499903819E+03  0.83162716907E+03  0.79489478174E+02 0.  0.
         25    2    1    2    0    0 -0.96400638877E+02 -0.10288622327E+03 -0.32139029408E+03  0.37258401484E+03  0.12509384026E+03 0.  0.
        -24    2    1    2    0    0  0.53976023636E+02  0.49389398934E+02  0.29102649128E+03  0.31121649095E+03  0.82501889423E+02 0.  0.
        -11    1    3    3    0    0 -0.38786328072E+01  0.19224760445E+02 -0.40324246844E+02  0.44840607603E+02  0.00000000000E+00 0.  1.
         12    1    3    3    0    0  0.46303248048E+02  0.34272063894E+02 -0.78467479134E+03  0.78678656147E+03  0.00000000000E+00 0. -1.
         13    1    5    5    0    0  0.51783386156E+02  0.21375501139E+02  0.27095195591E+03  0.27668283926E+03  0.00000000000E+00 0. -1.
        -14    1    5    5    0    0  0.21926374804E+01  0.28013897795E+02  0.20074535375E+02  0.34533651694E+02  0.00000000000E+00 0.  1.
          5    1    4    4  501    0 -0.18772944677E+01 -0.46930565037E+02 -0.19006554619E+02  0.50840177888E+02  0.41800000000E+01 0. -1.
         -5    1    4    4    0  501 -0.94523344409E+02 -0.55955658236E+02 -0.30238373946E+03  0.32174383696E+03  0.41800000000E+01 0. -1.
</event>
<event>
11    1  0.1078607E-008  0.1274805E+03  0.7561462E-02  0.1122404E+00
         22   -1    0    0    0    0  0.00000000000E+00  0.00000000000E+00  0.23905394950E+03  0.23905394950E+03  0.00000000000E+00 0.  1.
         22   -1    0    0    0    0 -0.00000000000E+00 -0.00000000000E+00 -0.85488538128E+03  0.85488538128E+03  0.00000000000E+00 0.  1.
         24    2    1    2    0    0  0.31789240355E+02 -0.80236155923E+01 -0.62596316941E+03  0.63628517406E+03  0.10933434530E+03 0.  0.
         25    2    1    2    0    0  0.32481946341E+01 -0.63909131371E+01 -0.19598260626E+03  0.23261152948E+03  0.12509015609E+03 0.  0.
        -24    2    1    2    0    0 -0.35037434989E+02  0.14414528729E+02  0.20611434388E+03  0.22504262725E+03  0.82010126416E+02 0.  0.
        -13    1    3    3    0    0  0.47324856936E+02 -0.44127241766E+02 -0.24868295899E+03  0.25696316787E+03  0.00000000000E+00 0.  1.
         14    1    3    3    0    0 -0.15535616581E+02  0.36103626174E+02 -0.37728021041E+03  0.37932200618E+03  0.00000000000E+00 0. -1.
         13    1    5    5    0    0  0.11901674443E+02 -0.19137063101E+02  0.19798768896E+02  0.29997804728E+02  0.00000000000E+00 0. -1.
        -14    1    5    5    0    0 -0.46939109432E+02  0.33551591831E+02  0.18631557499E+03  0.19504482252E+03  0.00000000000E+00 0.  1.
          5    1    4    4  501    0 -0.32423317600E+02 -0.18751639019E+02 -0.51528781732E+01  0.38038402221E+02  0.41800000000E+01 0. -1.
         -5    1    4    4    0  501  0.35671512234E+02  0.12360725882E+02 -0.19082972808E+03  0.19457312726E+03  0.41800000000E+01 0. -1.
</event>
<event>
11    1  0.1078607E-008  0.1599457E+03  0.7561462E-02  0.1087128E+00
         22   -1    0    0    0    0  0.00000000000E+00  0.00000000000E+00  0.14362760700E+04  0.14362760700E+04  0.00000000000E+00 0.  1.
         22   -1    0    0    0    0 -0.00000000000E+00 -0.00000000000E+00 -0.87428549062E+03  0.87428549062E+03  0.00000000000E+00 0. -1.
        -24    2    1    2    0    0  0.48325660836E+02 -0.58655850998E+02 -0.65420899615E+03  0.66334927113E+03  0.79164174423E+02 0.  0.
         25    2    1    2    0    0 -0.12010452194E+03  0.12632204131E+03 -0.15842617837E+03  0.26669955977E+03  0.12508975528E+03 0.  0.
         24    2    1    2    0    0  0.71778861101E+02 -0.67666190315E+02  0.13746257539E+04  0.13805127297E+04  0.80551321576E+02 0.  0.
        -11    1    5    5    0    0  0.57859962808E+02 -0.18764473507E+00  0.69447499225E+03  0.69688114149E+03  0.00000000000E+00 0.  1.
         12    1    5    5    0    0  0.13918898293E+02 -0.67478545580E+02  0.68015076161E+03  0.68363158819E+03  0.00000000000E+00 0. -1.
         13    1    3    3    0    0  0.40834639682E+01 -0.20565236449E+02 -0.46186403919E+03  0.46233969582E+03  0.00000000000E+00 0. -1.
        -14    1    3    3    0    0  0.44242196868E+02 -0.38090614549E+02 -0.19234495695E+03  0.20100957531E+03  0.00000000000E+00 0.  1.
          5    1    4    4  501    0 -0.44999773069E+02  0.27668286258E+01  0.82326704251E+01  0.46020475652E+02  0.41800000000E+01 0.  1.
         -5    1    4    4    0  501 -0.75104748868E+02  0.12355521269E+03 -0.16665884880E+03  0.22067908412E+03  0.41800000000E+01 0.  1.
</event>
<event>
11    1  0.1078607E-008  0.1420551E+03  0.7561462E-02  0.1105285E+00
         22   -1    0    0    0    0  0.00000000000E+00  0.00000000000E+00  0.42080164937E+03  0.42080164937E+03  0.00000000000E+00 0. -1.
         22   -1    0    0    0    0 -0.00000000000E+00 -0.00000000000E+00 -0.39716510315E+03  0.39716510315E+03  0.00000000000E+00 0.  1.
        -24    2    1    2    0    0 -0.11936695229E+02  0.21791596781E+02 -0.33045200614E+03  0.34069300220E+03  0.79093836701E+02 0.  0.
         25    2    1    2    0    0  0.71199991867E+01  0.48758437139E+02  0.34165900439E+02  0.13871871081E+03  0.12508993723E+03 0.  0.
         24    2    1    2    0    0  0.48166960424E+01 -0.70550033920E+02  0.31992265193E+03  0.33855503950E+03  0.85255520101E+02 0.  0.
        -11    1    5    5    0    0  0.50184231255E+00 -0.25372358427E+02  0.13413346251E+02  0.28704116003E+02  0.00000000000E+00 0.  1.
         12    1    5    5    0    0  0.43148537299E+01 -0.45177675493E+02  0.30650930568E+03  0.30985092350E+03  0.00000000000E+00 0. -1.
         11    1    3    3    0    0 -0.34932564528E+02  0.29537513842E+00 -0.68866132315E+02  0.77219916414E+02  0.00000000000E+00 0. -1.
        -12    1    3    3    0    0  0.22995869299E+02  0.21496221643E+02 -0.26158587383E+03  0.26347308579E+03  0.00000000000E+00 0.  1.
          5    1    4    4  501    0 -0.29437232505E+01 -0.16650015967E+02 -0.37337883838E+02  0.41200467325E+02  0.41800000000E+01 0.  1.
         -5    1    4    4    0  501  0.10063722437E+02  0.65408453106E+02  0.71503784277E+02  0.97518243488E+02  0.41800000000E+01 0.  1.
</event>
<event>
11    1  0.1078607E-008  0.1706663E+03  0.7561462E-02  0.1077453E+00
         22   -1    0    0    0    0  0.00000000000E+00  0.00000000000E+00  0.39573124511E+03  0.39573124511E+03  0.00000000000E+00 0.  1.
         22   -1    0    0    0    0 -0.00000000000E+00 -0.00000000000E+00 -0.25958863058E+04  0.25958863058E+04  0.00000000000E+00 0.  1.
         24    2    1    2    0    0  0.60732514385E+02 -0.16368676741E+02 -0.13857925870E+04  0.13896108267E+04  0.81491004287E+02 0.  0.
         25    2    1    2    0    0  0.26256347912E+02  0.93827366112E+02 -0.11899806716E+04  0.12004968271E+04  0.12508262375E+03 0.  0.
        -24    2    1    2    0    0 -0.86988862297E+02 -0.77458689371E+02  0.37561819789E+03  0.40150989702E+03  0.80958360277E+02 0.  0.
        -13    1    3    3    0    0  0.25244671327E+02 -0.35321833951E+01 -0.11866668522E+04  0.11869406000E+04  0.00000000000E+00 0.  1.
         14    1    3    3    0    0  0.35487843058E+02 -0.12836493345E+02 -0.19912573477E+03  0.20267022676E+03  0.00000000000E+00 0. -1.
         13    1    5    5    0    0 -0.68108126929E+02 -0.10077110718E+02  0.14512693363E+03  0.16063029595E+03  0.00000000000E+00 0. -1.
        -14    1    5    5    0    0 -0.18880735367E+02 -0.67381578654E+02  0.23049126426E+03  0.24087960107E+03  0.00000000000E+00 0.  1.
          5    1    4    4  501    0  0.27426540576E+02  0.73222153754E+01 -0.53399588178E+02  0.60620280299E+02  0.41800000000E+01 0.  1.
         -5    1    4    4    0  501 -0.11701926638E+01  0.86505150736E+02 -0.11365810834E+04  0.11398765468E+04  0.41800000000E+01 0.  1.
</event>
<event>
11    1  0.1078607E-008  0.1344775E+03  0.7561462E-02  0.1113887E+00
         22   -1    0    0    0    0  0.00000000000E+00  0.00000000000E+00  0.11926820826E+04  0.11926820826E+04  0.00000000000E+00 0. -1.
         22   -1    0    0    0    0 -0.00000000000E+00 -0.00000000000E+00 -0.69168577581E+03  0.69168577581E+03  0.00000000000E+00 0.  1.
         24    2    1    2    0    0  0.28254690119E+02  0.70072758863E+01 -0.36524456159E+03  0.37533678531E+03  0.81404442177E+02 0.  0.
         25    2    1    2    0    0  0.17330292390E+02 -0.26310095113E+02 -0.30651909725E+03  0.33255590718E+03  0.12508762643E+03 0.  0.
        -24    2    1    2    0    0 -0.45584982510E+02  0.19302819227E+02  0.11727599656E+04  0.11764751659E+04  0.79229347947E+02 0.  0.
        -11    1    3    3    0    0 -0.27077545664E+02 -0.53976042215E+00 -0.17436836189E+03  0.17645909001E+03  0.00000000000E+00 0.  1.
         12    1    3    3    0    0  0.55332235784E+02  0.75470363085E+01 -0.19087619970E+03  0.19887769529E+03  0.00000000000E+00 0. -1.
         13    1    5    5    0    0 -0.30825964447E+02  0.24638828170E+02  0.11336106308E+04  0.11342973041E+04  0.00000000000E+00 0. -1.
        -14    1    5    5    0    0 -0.14759018063E+02 -0.53360089433E+01  0.39149334813E+02  0.42177861752E+02  0.00000000000E+00 0.  1.
          5    1    4    4  501    0 -0.10282623867E+02 -0.66129772637E+01 -0.29672379202E+03  0.29700495782E+03  0.41800000000E+01 0.  1.
         -5    1    4    4    0  501  0.27612916257E+02 -0.19697117849E+02 -0.97953052288E+01  0.35550949359E+02  0.41800000000E+01 0.  1.
</event>
<event>
11    1  0.1078607E-008  0.1805315E+03  0.7561462E-02  0.1069214E+00
         22   -1    0    0    0    0  0.00000000000E+00  0.00000000000E+00  0.17757135430E+04  0.17757135430E+04  0.00000000000E+00 0.  1.
         22   -1    0    0    0    0 -0.00000000000E+00 -0.00000000000E+00 -0.39680655338E+03  0.39680655338E+03  0.00000000000E+00 0. -1.
        -24    2    1    2    0    0  0.12841343267E+03  0.41306280236E+02 -0.32053958547E+03  0.35909703675E+03  0.89492108448E+02 0.  0.
         25    2    1    2    0    0 -0.10327567161E+03 -0.88219475190E+01  0.62577942948E+02  0.17407600419E+03  0.12507104056E+03 0.  0.
         24    2    1    2    0    0 -0.25137761059E+02 -0.32484332717E+02  0.16368686321E+04  0.16393470554E+04  0.80204179207E+02 0.  0.
        -11    1    5    5    0    0 -0.34382857569E+02 -0.31378581892E+02  0.16137866986E+04  0.16144578982E+04  0.00000000000E+00 0.  1.
         12    1    5    5    0    0  0.92450965100E+01 -0.11057508244E+01  0.23081933481E+02  0.24889157229E+02  0.00000000000E+00 0. -1.
         11    1    3    3    0    0  0.13806425514E+03  0.22932769812E+02 -0.29201228444E+03  0.32381912350E+03  0.00000000000E+00 0. -1.
        -12    1    3    3    0    0 -0.96508224689E+01  0.18373510424E+02 -0.28527301026E+02  0.35277913253E+02  0.00000000000E+00 0.  1.
          5    1    4    4  501    0 -0.79053543632E+02  0.52969820299E+02  0.28933148888E+02  0.99548300477E+02  0.41800000000E+01 0. -1.
         -5    1    4    4    0  501 -0.24222127983E+02 -0.61791767818E+02  0.33644794060E+02  0.74527703718E+02  0.41800000000E+01 0. -1.
</event>
<event>
11    1  0.1078607E-008  0.1315492E+03  0.7561462E-02  0.1117380E+00
         22   -1    0    0    0    0  0.00000000000E+00  0.00000000000E+00  0.66480294679E+03  0.66480294679E+03  0.00000000000E+00 0.  1.
         22   -1    0    0    0    0 -0.00000000000E+00 -0.00000000000E+00 -0.91942210770E+03  0.91942210770E+03  0.00000000000E+00 0. -1.
        -24    2    1    2    0    0 -0.21719278252E+02  0.35830576507E+02 -0.86097477929E+03  0.86595532212E+03  0.82737488955E+02 0.  0.
         25    2    1    2    0    0 -0.53731105636E+01 -0.95529639468E+01  0.22333005613E+02  0.12753612958E+03  0.12508625733E+03 0.  0.
         24    2    1    2    0    0  0.27092388815E+02 -0.26277612561E+02  0.58402261276E+03  0.59073360278E+03  0.80369563813E+02 0.  0.
        -13    1    5    5    0    0  0.42636355729E+02  0.98191916850E+01  0.41002077358E+03  0.41234852991E+03  0.00000000000E+00 0.  1.
         14    1    5    5    0    0 -0.15543966914E+02 -0.36096804246E+02  0.17400183918E+03  0.17838507287E+03  0.00000000000E+00 0. -1.
         11    1    3    3    0    0 -0.30458099498E+02  0.93553412365E+01 -0.77326200511E+03  0.77391817835E+03  0.00000000000E+00 0. -1.
        -12    1    3    3    0    0  0.87388212460E+01  0.26475235271E+02 -0.87712774182E+02  0.92037143775E+02  0.00000000000E+00 0.  1.
          5    1    4    4  501    0 -0.49140599548E+01 -0.63625435520E+02  0.33451961835E+02  0.72172364385E+02  0.41800000000E+01 0. -1.
         -5    1    4    4    0  501 -0.45905060879E+00  0.54072471573E+02 -0.11118956222E+02  0.55363765199E+02  0.41800000000E+01 0. -1.
</event>
<event>
11    1  0.1078607E-008  0.2619171E+03  0.7561462E-02  0.1017736E+00
         22   -1    0    0    0    0  0.00000000000E+00  0.00000000000E+00  0.31345774817E+04  0.31345774817E+04  0.00000000000E+00 0. -1.
         22   -1    0    0    0    0 -0.00000000000E+00 -0.00000000000E+00 -0.31795875659E+03  0.31795875659E+03  0.00000000000E+00 0.  1.
        -24    2    1    2    0    0  0.16942712037E+03  0.13027075562E+03 -0.15646238924E+03  0.27746809077E+03  0.82656174989E+02 0.  0.
         25    2    1    2    0    0 -0.23649090593E+03 -0.18991233288E+03  0.17017105938E+03  0.36959447017E+03  0.12508892902E+03 0.  0.
         24    2    1    2    0    0  0.67063785557E+02  0.59641577256E+02  0.28029100550E+04  0.28054736773E+04  0.79517978797E+02 0.  0.
        -13    1    5    5    0    0  0.44176081362E+02 -0.10161054885E+02  0.12615680783E+04  0.12623821883E+04  0.00000000000E+00 0.  1.
         14    1    5    5    0    0  0.22887704195E+02  0.69802632142E+02  0.15413419766E+04  0.15430914890E+04  0.00000000000E+00 0. -1.
         11    1    3    3    0    0  0.94159022159E+02  0.33473955466E+02 -0.37821394766E+02  0.10684982476E+03  0.00000000000E+00 0. -1.
        -12    1    3    3    0    0  0.75268098209E+02  0.96796800157E+02 -0.11864099447E+03  0.17061826602E+03  0.00000000000E+00 0.  1.
          5    1    4    4  501    0 -0.25909151039E+02 -0.44696098445E+02  0.85742652266E+02  0.10019131769E+03  0.41800000000E+01 0. -1.
         -5    1    4    4    0  501 -0.21058175489E+03 -0.14521623443E+03  0.84428407113E+02  0.26940315247E+03  0.41800000000E+01 0. -1.
</event>
<event>
11    1  0.1078607E-008  0.1558263E+03  0.7561462E-02  0.1091070E+00
         22   -1    0    0    0    0  0.00000000000E+00  0.00000000000E+00  0.13465727891E+04  0.13465727891E+04  0.00000000000E+00 0.  1.
         22   -1    0    0    0    0 -0.00000000000E+00 -0.00000000000E+00 -0.11594867471E+03  0.11594867471E+03  0.00000000000E+00 0.  1.
         24    2    1    2    0    0  0.56412000072E+02  0.44241164450E+01 -0.35732882969E+02  0.10228519177E+03  0.77353312610E+02 0.  0.
         25    2    1    2    0    0 -0.13170084351E+03 -0.52789552743E+02  0.16083853227E+03  0.24829317188E+03  0.12509443105E+03 0.  0.
        -24    2    1    2    0    0  0.75288843442E+02  0.48365436298E+02  0.11055184651E+04  0.11119431002E+04  0.78985795861E+02 0.  0.
        -13    1    3    3    0    0  0.76074319810E+02  0.35380147565E+01 -0.28142144534E+02  0.81189900739E+02  0.00000000000E+00 0.  1.
         14    1    3    3    0    0 -0.19662319738E+02  0.88610168844E+00 -0.75907384351E+01  0.21095291031E+02  0.00000000000E+00 0. -1.
         13    1    5    5    0    0  0.20630302833E+02 -0.10699418984E+02  0.80973834836E+02  0.84242797257E+02  0.00000000000E+00 0. -1.
        -14    1    5    5    0    0  0.54658540610E+02  0.59064855282E+02  0.10245446303E+04  0.10277003029E+04  0.00000000000E+00 0.  1.
          5    1    4    4  501    0 -0.57717430252E+02  0.37166363552E+02  0.36456066312E+02  0.77840590347E+02  0.41800000000E+01 0. -1.
         -5    1    4    4    0  501 -0.73983413263E+02 -0.89955916295E+02  0.12438246595E+03  0.17045258153E+03  0.41800000000E+01 0. -1.
</event>
<event>
11    1  0.1078607E-008  0.1783947E+03  0.7561462E-02  0.1070949E+00
         22   -1    0    0    0    0  0.00000000000E+00  0.00000000000E+00  0.24327589975E+03  0.24327589975E+03  0.00000000000E+00 0. -1.
         22   -1    0    0    0    0 -0.00000000000E+00 -0.00000000000E+00 -0.35474828011E+03  0.35474828011E+03  0.00000000000E+00 0. -1.
        -24    2    1    2    0    0 -0.26199303149E+02  0.11441069880E+03 -0.18837784032E+03  0.23564223440E+03  0.79150744926E+02 0.  0.
         25    2    1    2    0    0  0.53257715178E+02 -0.15312972281E+03 -0.44592653605E+02  0.20957762157E+03  0.12509667651E+03 0.  0.
         24    2    1    2    0    0 -0.27058412030E+02  0.38719024016E+02  0.12149811357E+03  0.15280432389E+03  0.79724834994E+02 0.  0.
        -13    1    5    5    0    0  0.10152303340E+01  0.24370441571E+02 -0.28168620998E+01  0.24553692738E+02  0.00000000000E+00 0.  1.
         14    1    5    5    0    0 -0.28073642364E+02  0.14348582444E+02  0.12431497567E+03  0.12825063115E+03  0.00000000000E+00 0. -1.
         13    1    3    3    0    0 -0.24104825047E+02  0.11776113676E+03 -0.19432798101E+03  0.22849965453E+03  0.00000000000E+00 0. -1.
        -14    1    3    3    0    0 -0.20944781014E+01 -0.33504379559E+01  0.59501406811E+01  0.71425798658E+01  0.00000000000E+00 0.  1.
          5    1    4    4  501    0  0.16373878363E+02 -0.14726469323E+03  0.38328356196E+01  0.14828066898E+03  0.41800000000E+01 0.  1.
         -5    1    4    4    0  501  0.36883836815E+02 -0.58650295822E+01 -0.48425489224E+02  0.61296952590E+02  0.41800000000E+01 0.  1.
</event>
<event>
11    1  0.1078607E-008  0.1384157E+03  0.7561462E-02  0.1109341E+00
         22   -1    0    0    0    0  0.00000000000E+00  0.00000000000E+00  0.52118384458E+03  0.52118384458E+03  0.00000000000E+00 0. -1.
         22   -1    0    0    0    0 -0.00000000000E+00 -0.00000000000E+00 -0.25593245538E+03  0.25593245538E+03  0.00000000000E+00 0.  1.
        -24    2    1    2    0    0 -0.12351695269E+02  0.45154195986E+02 -0.12448867974E+03  0.15503951459E+03  0.79676558105E+02 0.  0.
         25    2    1    2    0    0  0.46443049736E+02 -0.91012957717E+02 -0.51581834019E+02  0.16955636430E+03  0.12509340404E+03 0.  0.
         24    2    1    2    0    0 -0.34091354468E+02  0.45858761731E+02  0.44132190295E+03  0.45252042107E+03  0.82124679495E+02 0.  0.
        -13    1    5    5    0    0 -0.38970105097E+02  0.26428030371E+01  0.84889262304E+02  0.93444316861E+02  0.00000000000E+00 0.  1.
         14    1    5    5    0    0  0.48787506292E+01  0.43215958694E+02  0.35643264065E+03  0.35907610421E+03  0.00000000000E+00 0. -1.
         11    1    3    3    0    0  0.22813507492E+02 -0.69384053331E+01 -0.61926846713E+02  0.66359113440E+02  0.00000000000E+00 0. -1.
        -12    1    3    3    0    0 -0.35165202761E+02  0.52092601319E+02 -0.62561833023E+02  0.88680401152E+02  0.00000000000E+00 0.  1.
          5    1    4    4  501    0 -0.37170674806E+02 -0.60326955845E+02 -0.33872317846E+02  0.78649901356E+02  0.41800000000E+01 0. -1.
         -5    1    4    4    0  501  0.83613724542E+02 -0.30686001872E+02 -0.17709516173E+02  0.90906462948E+02  0.41800000000E+01 0. -1.
</event>
<event>
11    1  0.1098846E-008  0.1864243E+03  0.7561462E-02  0.1064562E+00
         22   -1    0    0    0    0  0.00000000000E+00  0.00000000000E+00  0.57731306001E+03  0.57731306001E+03  0.00000000000E+00 0. -1.
         22   -1    0    0    0    0 -0.00000000000E+00 -0.00000000000E+00 -0.70406702732E+03  0.70406702732E+03  0.00000000000E+00 0. -1.
         24    2    1    2    0    0 -0.13331549434E+02  0.42890902021E+02 -0.38007174257E+03  0.39068286322E+03  0.78493378257E+02 0.  0.
         25    2    1    2    0    0  0.66385523630E+01  0.96778672038E+02 -0.28661736781E+03  0.32742010334E+03  0.12507688356E+03 0.  0.
        -24    2    1    2    0    0  0.66929970708E+01 -0.13966957406E+03  0.53993514307E+03  0.56327712077E+03  0.78732267387E+02 0.  0.
        -11    1    3    3    0    0  0.30889108161E+02  0.32444011516E+02 -0.20170006797E+03  0.20661478240E+03  0.00000000000E+00 0.  1.
         12    1    3    3    0    0 -0.44220657595E+02  0.10446890505E+02 -0.17837167460E+03  0.18406808082E+03  0.00000000000E+00 0. -1.
         11    1    5    5    0    0  0.11349639110E+02 -0.14836593428E+03  0.52216392601E+03  0.54295159120E+03  0.00000000000E+00 0. -1.
        -12    1    5    5    0    0 -0.46566420396E+01  0.86963602233E+01  0.17771217066E+02  0.20325529568E+02  0.00000000000E+00 0.  1.
          5    1    4    4  501    0  0.48796469330E+02  0.43959598184E+02 -0.22977525857E+03  0.23901398190E+03  0.41800000000E+01 0. -1.
         -5    1    4    4    0  501 -0.42157916967E+02  0.52819073854E+02 -0.56842109240E+02  0.88406121443E+02  0.41800000000E+01 0. -1.
</event>
<event>
11    1  0.2529661E-008  0.2086879E+03  0.7561462E-02  0.1048545E+00
         22   -1    0    0    0    0  0.00000000000E+00  0.00000000000E+00  0.21392766142E+04  0.21392766142E+04  0.00000000000E+00 0.  1.
         22   -1    0    0    0    0 -0.00000000000E+00 -0.00000000000E+00 -0.60986817630E+03  0.60986817630E+03  0.00000000000E+00 0. -1.
        -24    2    1    2    0    0 -0.28411122351E+02 -0.32389914957E+02 -0.25676972839E+03  0.27282117464E+03  0.81513197993E+02 0.  0.
         25    2    1    2    0    0  0.19509384021E+03  0.29519527012E+02 -0.30095279583E+03  0.38099114612E+03  0.12509460075E+03 0.  0.
         24    2    1    2    0    0 -0.16668271786E+03  0.28703879456E+01  0.20871309621E+04  0.20953324697E+04  0.80691623569E+02 0.  0.
        -11    1    5    5    0    0 -0.16007787915E+03 -0.19889163654E+02  0.18508332332E+04  0.18578493382E+04  0.00000000000E+00 0.  1.
         12    1    5    5    0    0 -0.66048387058E+01  0.22759551599E+02  0.23629772890E+03  0.23748313154E+03  0.00000000000E+00 0. -1.
         13    1    3    3    0    0 -0.44013844238E+02 -0.12755646124E+02 -0.23556041799E+03  0.23997632282E+03  0.00000000000E+00 0. -1.
        -14    1    3    3    0    0  0.15602721886E+02 -0.19634268833E+02 -0.21209310404E+02  0.32844851814E+02  0.00000000000E+00 0.  1.
          5    1    4    4  501    0  0.17645966870E+03  0.27978583029E+01 -0.16677600245E+03  0.24285293921E+03  0.41800000000E+01 0. -1.
         -5    1    4    4    0  501  0.18634171512E+02  0.26721668709E+02 -0.13417679338E+03  0.13813820691E+03  0.41800000000E+01 0. -1.
</event>
<event>
11    1  0.1078607E-008  0.2583692E+03  0.7561462E-02  0.1019533E+00
         22   -1    0    0    0    0  0.00000000000E+00  0.00000000000E+00  0.17431824397E+03  0.17431824397E+03  0.00000000000E+00 0.  1.
         22   -1    0    0    0    0 -0.00000000000E+00 -0.00000000000E+00 -0.94564524342E+03  0.94564524342E+03  0.00000000000E+00 0.  1.
        -24    2    1    2    0    0  0.12299706614E+02 -0.27828692765E+02 -0.42438356820E+03  0.43234263196E+03  0.76766005049E+02 0.  0.
         25    2    1    2    0    0 -0.99469604231E+02 -0.18564478942E+03 -0.36838781554E+03  0.44239768854E+03  0.12509173508E+03 0.  0.
         24    2    1    2    0    0  0.87169897617E+02  0.21347348218E+03  0.21444384279E+02  0.24522316689E+03  0.80653712336E+02 0.  0.
        -11    1    5    5    0    0  0.90760887237E+02  0.13449060767E+03 -0.35889919040E+01  0.16229030490E+03  0.00000000000E+00 0.  1.
         12    1    5    5    0    0 -0.35909896198E+01  0.78982874516E+02  0.25033376183E+02  0.82932861981E+02  0.00000000000E+00 0. -1.
         13    1    3    3    0    0 -0.12356090296E+02  0.20531607505E+02 -0.20262070775E+03  0.20403276963E+03  0.00000000000E+00 0. -1.
        -14    1    3    3    0    0  0.24655796910E+02 -0.48360300270E+02 -0.22176286045E+03  0.22830986234E+03  0.00000000000E+00 0.  1.
          5    1    4    4  501    0  0.29562199683E+02 -0.27100727145E+02 -0.54536102055E+02  0.67823534921E+02  0.41800000000E+01 0. -1.
         -5    1    4    4    0  501 -0.12903180391E+03 -0.15854406227E+03 -0.31385171349E+03  0.37457415362E+03  0.41800000000E+01 0. -1.
</event>
<event>
11    1  0.1078607E-008  0.1492598E+03  0.7561462E-02  0.1097638E+00
         22   -1    0    0    0    0  0.00000000000E+00  0.00000000000E+00  0.10611839413E+04  0.10611839413E+04  0.00000000000E+00 0. -1.
         22   -1    0    0    0    0 -0.00000000000E+00 -0.00000000000E+00 -0.12215012372E+04  0.12215012372E+04  0.00000000000E+00 0.  1.
        -24    2    1    2    0    0  0.44432929911E+02  0.58843529864E+02 -0.11789008051E+04  0.11838845811E+04  0.79616248343E+02 0.  0.
         25    2    1    2    0    0  0.13232371381E+02 -0.11472392773E+03  0.16292335293E+03  0.23564405187E+03  0.12508966785E+03 0.  0.
         24    2    1    2    0    0 -0.57665301292E+02  0.55880397866E+02  0.85566015624E+03  0.86315654551E+03  0.80230999289E+02 0.  0.
        -11    1    5    5    0    0 -0.47974133588E+01 -0.12389129352E+02  0.27864073599E+02  0.30869277584E+02  0.00000000000E+00 0.  1.
         12    1    5    5    0    0 -0.52867887933E+02  0.68269527218E+02  0.82779608264E+03  0.83228726793E+03  0.00000000000E+00 0. -1.
         13    1    3    3    0    0  0.42596374070E+02  0.87233233624E+01 -0.25955119587E+03  0.26316795156E+03  0.00000000000E+00 0. -1.
        -14    1    3    3    0    0  0.18365558415E+01  0.50120206501E+02 -0.91934960920E+03  0.92071662957E+03  0.00000000000E+00 0.  1.
          5    1    4    4  501    0  0.35615052234E+02 -0.12759570066E+03  0.95603684247E+02  0.16342163753E+03  0.41800000000E+01 0.  1.
         -5    1    4    4    0  501 -0.22382680854E+02  0.12871772928E+02  0.67319668686E+02  0.72222414336E+02  0.41800000000E+01 0.  1.
</event>
<event>
11    1  0.1078607E-008  0.1353308E+03  0.7561462E-02  0.1112887E+00
         22   -1    0    0    0    0  0.00000000000E+00  0.00000000000E+00  0.83133797682E+02  0.83133797682E+02  0.00000000000E+00 0. -1.
         22   -1    0    0    0    0 -0.00000000000E+00 -0.00000000000E+00 -0.10093666921E+04  0.10093666921E+04  0.00000000000E+00 0.  1.
        -24    2    1    2    0    0 -0.19480412937E+02  0.28109339936E+02 -0.82641670275E+03  0.83099398649E+03  0.80105040537E+02 0.  0.
         25    2    1    2    0    0  0.55869485485E+02 -0.49122861915E+02 -0.83374597233E+02  0.16772834571E+03  0.12508804707E+03 0.  0.
         24    2    1    2    0    0 -0.36389072548E+02  0.21013521979E+02 -0.16441594471E+02  0.93778157618E+02  0.82208783658E+02 0.  0.
        -13    1    5    5    0    0  0.17433790984E+02  0.32086494773E+02 -0.34309796522E+00  0.36518460142E+02  0.00000000000E+00 0.  1.
         14    1    5    5    0    0 -0.53822863532E+02 -0.11072972795E+02 -0.16098496505E+02  0.57259697476E+02  0.00000000000E+00 0. -1.
         11    1    3    3    0    0 -0.12838494145E+02  0.13120426912E+02 -0.36025527472E+02  0.40432798121E+02  0.00000000000E+00 0. -1.
        -12    1    3    3    0    0 -0.66419187916E+01  0.14988913024E+02 -0.79039117527E+03  0.79056118837E+03  0.00000000000E+00 0.  1.
          5    1    4    4  501    0  0.17483551265E+02 -0.87561109642E+02 -0.39280288936E+02  0.97637267401E+02  0.41800000000E+01 0.  1.
         -5    1    4    4    0  501  0.38385934219E+02  0.38438247727E+02 -0.44094308297E+02  0.70091078308E+02  0.41800000000E+01 0.  1.
</event>
<event>
11    1  0.1078607E-008  0.1308086E+03  0.7561462E-02  0.1118279E+00
         22   -1    0    0    0    0  0.00000000000E+00  0.00000000000E+00  0.24555103076E+03  0.24555103076E+03  0.00000000000E+00 0. -1.
         22   -1    0    0    0    0 -0.00000000000E+00 -0.00000000000E+00 -0.59045155432E+03  0.59045155432E+03  0.00000000000E+00 0. -1.
        -24    2    1    2    0    0 -0.30847429957E+02 -0.20165880030E+02 -0.46575143472E+03  0.47388356092E+03  0.79265400489E+02 0.  0.
         25    2    1    2    0    0  0.36648132719E+02  0.38842963870E+02 -0.72869503852E+02  0.15430634230E+03  0.12509444915E+03 0.  0.
         24    2    1    2    0    0 -0.58007027625E+01 -0.18677083839E+02  0.19372041501E+03  0.20781268186E+03  0.72636285267E+02 0.  0.
        -13    1    5    5    0    0 -0.38860039937E+01  0.22712006300E+02  0.24663279796E+02  0.33752238852E+02  0.00000000000E+00 0.  1.
         14    1    5    5    0    0 -0.19146987688E+01 -0.41389090139E+02  0.16905713522E+03  0.17406044301E+03  0.00000000000E+00 0. -1.
         11    1    3    3    0    0  0.69028567795E+01 -0.18387229561E+02 -0.37583542862E+03  0.37634825501E+03  0.00000000000E+00 0. -1.
        -12    1    3    3    0    0 -0.37750286736E+02 -0.17786504694E+01 -0.89916006097E+02  0.97535305908E+02  0.00000000000E+00 0.  1.
          5    1    4    4  501    0  0.15193246809E+01 -0.13405264280E+02 -0.88239862732E+02  0.89363052952E+02  0.41800000000E+01 0.  1.
         -5    1    4    4    0  501  0.35128808039E+02  0.52248228150E+02  0.15370358879E+02  0.64943289346E+02  0.41800000000E+01 0.  1.
</event>
<event>
11    1  0.1078607E-008  0.1438747E+03  0.7561462E-02  0.1103307E+00
         22   -1    0    0    0    0  0.00000000000E+00  0.00000000000E+00  0.13117939908E+04  0.13117939908E+04  0.00000000000E+00 0. -1.
         22   -1    0    0    0    0 -0.00000000000E+00 -0.00000000000E+00 -0.13253595177E+03  0.13253595177E+03  0.00000000000E+00 0.  1.
        -24    2    1    2    0    0 -0.61774630315E+02 -0.20405683644E+02 -0.53334714194E+02  0.11835074489E+03  0.83245481578E+02 0.  0.
         25    2    1    2    0    0  0.96379312076E+02 -0.40787331060E+02  0.10648347561E+03  0.19478118792E+03  0.12509357465E+03 0.  0.
         24    2    1    2    0    0 -0.34604681760E+02  0.61193014704E+02  0.11261092776E+04  0.11311980098E+04  0.80899710028E+02 0.  0.
        -13    1    5    5    0    0 -0.12503232773E+02  0.36305538526E+02  0.16102551469E+03  0.16554044624E+03  0.00000000000E+00 0.  1.
         14    1    5    5    0    0 -0.22101448987E+02  0.24887476178E+02  0.96508376295E+03  0.96565756354E+03  0.00000000000E+00 0. -1.
         13    1    3    3    0    0 -0.29054773958E+01  0.95426674605E+01  0.18344243657E+02  0.20880986004E+02  0.00000000000E+00 0. -1.
        -14    1    3    3    0    0 -0.58869152919E+02 -0.29948351104E+02 -0.71678957851E+02  0.97469758889E+02  0.00000000000E+00 0.  1.
          5    1    4    4  501    0 -0.32686803899E+01  0.53120663035E+01  0.81831681051E+02  0.82175414472E+02  0.41800000000E+01 0.  1.
         -5    1    4    4    0  501  0.99647992465E+02 -0.46099397364E+02  0.24651794562E+02  0.11260577345E+03  0.41800000000E+01 0.  1.
</event>
<event>
11    1  0.1078607E-008  0.1345197E+03  0.7561462E-02  0.1113837E+00
         22   -1    0    0    0    0  0.00000000000E+00  0.00000000000E+00  0.36152179898E+03  0.36152179898E+03  0.00000000000E+00 0.  1.
         22   -1    0    0    0    0 -0.00000000000E+00 -0.00000000000E+00 -0.32787874133E+03  0.32787874133E+03  0.00000000000E+00 0. -1.
         24    2    1    2    0    0 -0.18821479945E+02 -0.54077054525E+02 -0.26796352060E+03  0.28442472333E+03  0.76252206105E+02 0.  0.
         25    2    1    2    0    0  0.26726372453E+02 -0.45215529278E+01  0.56675824773E+02  0.13998208151E+03  0.12509232833E+03 0.  0.
        -24    2    1    2    0    0 -0.79048925078E+01  0.58598607453E+02  0.24493075348E+03  0.26499373547E+03  0.82062913169E+02 0.  0.
        -11    1    3    3    0    0  0.37497592523E+01 -0.11180073945E+02  0.32089785512E+00  0.11796513184E+02  0.00000000000E+00 0.  1.
         12    1    3    3    0    0 -0.22571239197E+02 -0.42896980580E+02 -0.26828441846E+03  0.27262821015E+03  0.00000000000E+00 0. -1.
         11    1    5    5    0    0 -0.40845369789E+02  0.95043945196E+01  0.10714278928E+03  0.11505761619E+03  0.00000000000E+00 0. -1.
        -12    1    5    5    0    0  0.32940477281E+02  0.49094212934E+02  0.13778796420E+03  0.14993611928E+03  0.00000000000E+00 0.  1.
          5    1    4    4  501    0  0.57092674817E+02 -0.19618214003E+02 -0.13435986707E+02  0.61987466291E+02  0.41800000000E+01 0. -1.
         -5    1    4    4    0  501 -0.30366302364E+02  0.15096661075E+02  0.70111811479E+02  0.77994615223E+02  0.41800000000E+01 0. -1.
</event>
<event>
11    1  0.1078607E-008  0.1453134E+03  0.7561462E-02  0.1101766E+00
         22   -1    0    0    0    0  0.00000000000E+00  0.00000000000E+00  0.18437372298E+03  0.18437372298E+03  0.00000000000E+00 0.  1.
         22   -1    0    0    0    0 -0.00000000000E+00 -0.00000000000E+00 -0.19656767119E+04  0.19656767119E+04  0.00000000000E+00 0.  1.
         24    2    1    2    0    0  0.37179764866E+02  0.52721029577E+02 -0.13198479340E+04  0.13238050353E+04  0.79368513034E+02 0.  0.
         25    2    1    2    0    0 -0.86724047646E+02  0.26625784512E+01 -0.61773335147E+03  0.63621560009E+03  0.12509055326E+03 0.  0.
        -24    2    1    2    0    0  0.49544282780E+02 -0.55383608028E+02  0.15627829653E+03  0.19002979946E+03  0.78526675213E+02 0.  0.
        -13    1    3    3    0    0 -0.19004524431E+01  0.58122829383E+01 -0.84816367329E+03  0.84818571730E+03  0.00000000000E+00 0.  1.
         14    1    3    3    0    0  0.39080217309E+02  0.46908746639E+02 -0.47168426067E+03  0.47561931801E+03  0.00000000000E+00 0. -1.
         13    1    5    5    0    0 -0.80367096865E+01 -0.12286137647E+02 -0.32509315525E+01  0.15036835998E+02  0.00000000000E+00 0. -1.
        -14    1    5    5    0    0  0.57580992466E+02 -0.43097470382E+02  0.15952922809E+03  0.17499296346E+03  0.00000000000E+00 0.  1.
          5    1    4    4  501    0 -0.19580323223E+01  0.45871286640E+02 -0.10445273351E+03  0.11417466780E+03  0.41800000000E+01 0.  1.
         -5    1    4    4    0  501 -0.84766015323E+02 -0.43208708189E+02 -0.51328061796E+03  0.52204093230E+03  0.41800000000E+01 0.  1.
</event>
<event>
11    1  0.1078607E-008  0.1691718E+03  0.7561462E-02  0.1078755E+00
         22   -1    0    0    0    0  0.00000000000E+00  0.00000000000E+00  0.51234545352E+03  0.51234545352E+03  0.00000000000E+00 0.  1.
         22   -1    0    0    0    0 -0.00000000000E+00 -0.00000000000E+00 -0.60267263123E+03  0.60267263123E+03  0.00000000000E+00 0. -1.
         24    2    1    2    0    0  0.41652975588E+02  0.10815701339E+03 -0.51283239393E+03  0.53157224188E+03  0.78352244063E+02 0.  0.
         25    2    1    2    0    0  0.52149856034E+02 -0.11383934142E+03  0.39570576074E+02  0.18136129691E+03  0.12508831435E+03 0.  0.
        -24    2    1    2    0    0 -0.93802831622E+02  0.56823280289E+01  0.38293464015E+03  0.40208454597E+03  0.78751402593E+02 0.  0.
        -13    1    3    3    0    0  0.33286326075E+02  0.10128067730E+03 -0.29850817583E+03  0.31697458279E+03  0.00000000000E+00 0.  1.
         14    1    3    3    0    0  0.83666495134E+01  0.68763360977E+01 -0.21432421810E+03  0.21459765909E+03  0.00000000000E+00 0. -1.
         13    1    5    5    0    0 -0.27663024575E+01  0.14724193195E+02  0.98089346288E+01  0.17907246943E+02  0.00000000000E+00 0. -1.
        -14    1    5    5    0    0 -0.91036529165E+02 -0.90418651665E+01  0.37312570552E+03  0.38417729902E+03  0.00000000000E+00 0.  1.
          5    1    4    4  501    0 -0.17492717335E+02 -0.99990539856E+02  0.36115106721E+01  0.10165932633E+03  0.41800000000E+01 0.  1.
         -5    1    4    4    0  501  0.69642573369E+02 -0.13848801567E+02  0.35959065402E+02  0.79701970583E+02  0.41800000000E+01 0.  1.
</event>
<event>
11    1  0.1078607E-008  0.1542829E+03  0.7561462E-02  0.1092581E+00
         22   -1    0    0    0    0  0.00000000000E+00  0.00000000000E+00  0.10905692794E+04  0.10905692794E+04  0.00000000000E+00 0.  1.
         22   -1    0    0    0    0 -0.00000000000E+00 -0.00000000000E+00 -0.23770448706E+03  0.23770448706E+03  0.00000000000E+00 0.  1.
        -24    2    1    2    0    0  0.87590442818E+02  0.19075604452E+02 -0.20194153943E+03  0.22707233320E+03  0.52397469406E+02 0.  0.
         25    2    1    2    0    0 -0.11309365524E+03  0.97463747126E+01  0.32881557566E+03  0.36966651783E+03  0.12509390445E+03 0.  0.
         24    2    1    2    0    0  0.25503212418E+02 -0.28821979164E+02  0.72599075609E+03  0.73153491542E+03  0.81238132849E+02 0.  0.
        -11    1    5    5    0    0 -0.86535114575E+01 -0.43003941789E+02  0.54740662810E+03  0.54916139591E+03  0.00000000000E+00 0.  1.
         12    1    5    5    0    0  0.34156723876E+02  0.14181962624E+02  0.17858412799E+03  0.18237351952E+03  0.00000000000E+00 0. -1.
         13    1    3    3    0    0  0.38686300649E+02  0.10301656783E+02 -0.35957909384E+02  0.53811943262E+02  0.00000000000E+00 0. -1.
        -14    1    3    3    0    0  0.48904142170E+02  0.87739476690E+01 -0.16598363004E+03  0.17326038994E+03  0.00000000000E+00 0.  1.
          5    1    4    4  501    0 -0.67054598098E+02 -0.51827960339E+02  0.22459137208E+03  0.24008584592E+03  0.41800000000E+01 0.  1.
         -5    1    4    4    0  501 -0.46039057139E+02  0.61574335051E+02  0.10422420359E+03  0.12958067191E+03  0.41800000000E+01 0.  1.
</event>
<event>
11    1  0.1078607E-008  0.1633230E+03  0.7561462E-02  0.1083993E+00
         22   -1    0    0    0    0  0.00000000000E+00  0.00000000000E+00  0.94778897768E+02  0.94778897768E+02  0.00000000000E+00 0.  1.
         22   -1    0    0    0    0 -0.00000000000E+00 -0.00000000000E+00 -0.13003848607E+04  0.13003848607E+04  0.00000000000E+00 0. -1.
         24    2    1    2    0    0  0.25969996342E+01  0.23176204223E+01 -0.30050915220E+03  0.31029138873E+03  0.77219683978E+02 0.  0.
         25    2    1    2    0    0  0.93944018911E+02 -0.43833294443E+02 -0.93497158916E+03  0.94898145848E+03  0.12508836720E+03 0.  0.
        -24    2    1    2    0    0 -0.96541018545E+02  0.41515674021E+02  0.29874778460E+02  0.13589091123E+03  0.80809144993E+02 0.  0.
        -13    1    3    3    0    0  0.19293323121E+02  0.30901964940E+02 -0.88364784909E+02  0.95579804175E+02  0.00000000000E+00 0.  1.
         14    1    3    3    0    0 -0.16696323487E+02 -0.28584344517E+02 -0.21214436729E+03  0.21471158455E+03  0.00000000000E+00 0. -1.
         11    1    5    5    0    0 -0.53385667612E+02  0.34237356665E+02 -0.22811334444E+02  0.67398687501E+02  0.00000000000E+00 0. -1.
        -12    1    5    5    0    0 -0.43155350934E+02  0.72783173562E+01  0.52686112905E+02  0.68492223724E+02  0.00000000000E+00 0.  1.
          5    1    4    4  501    0  0.45926614138E+02 -0.82622292439E+02 -0.43341416749E+03  0.44362259870E+03  0.41800000000E+01 0. -1.
         -5    1    4    4    0  501  0.48017404773E+02  0.38788997996E+02 -0.50155742167E+03  0.50535885978E+03  0.41800000000E+01 0. -1.
</event>
<event>
11    1  0.1078607E-008  0.1704233E+03  0.7561462E-02  0.1077664E+00
         22   -1    0    0    0    0  0.00000000000E+00  0.00000000000E+00  0.19264711928E+03  0.19264711928E+03  0.00000000000E+00 0. -1.
         22   -1    0    0    0    0 -0.00000000000E+00 -0.00000000000E+00 -0.57674898570E+03  0.57674898570E+03  0.00000000000E+00 0.  1.
         24    2    1    2    0    0  0.41447155921E+02  0.52967851946E+02 -0.40154001620E+03  0.41487470076E+03  0.79769496991E+02 0.  0.
         25    2    1    2    0    0  0.47358697961E+02 -0.12511447342E+03 -0.64353018192E+02  0.19410965772E+03  0.12506306624E+03 0.  0.
        -24    2    1    2    0    0 -0.88805853882E+02  0.72146621475E+02  0.81791167971E+02  0.16041174650E+03  0.77139604509E+02 0.  0.
        -13    1    3    3    0    0  0.26321840470E+02  0.35627872658E+01 -0.29777599928E+03  0.29895832232E+03  0.00000000000E+00 0.  1.
         14    1    3    3    0    0  0.15125315451E+02  0.49405064681E+02 -0.10376401692E+03  0.11591637844E+03  0.00000000000E+00 0. -1.
         13    1    5    5    0    0 -0.94541106880E+02  0.82649437313E+02  0.70771972711E+02  0.14414445012E+03  0.00000000000E+00 0. -1.
        -14    1    5    5    0    0  0.57352529982E+01 -0.10502815838E+02  0.11019195260E+02  0.16267296384E+02  0.00000000000E+00 0.  1.
          5    1    4    4  501    0  0.58637091137E+02 -0.14519933090E+03 -0.67339808052E+02  0.17050887455E+03  0.41800000000E+01 0.  1.
         -5    1    4    4    0  501 -0.11278393176E+02  0.20084857479E+02  0.29867898607E+01  0.23600783171E+02  0.41800000000E+01 0.  1.
</event>
<event>
11    1  0.1078607E-008  0.1753392E+03  0.7561462E-02  0.1073477E+00
         22   -1    0    0    0    0  0.00000000000E+00  0.00000000000E+00  0.10908101415E+04  0.10908101415E+04  0.00000000000E+00 0. -1.
         22   -1    0    0    0    0 -0.00000000000E+00 -0.00000000000E+00 -0.24168919709E+03  0.24168919709E+03  0.00000000000E+00 0.  1.
         24    2    1    2    0    0 -0.93548738814E+02  0.65211996373E+02 -0.13232430719E+03  0.19223933746E+03  0.80263750173E+02 0.  0.
         25    2    1    2    0    0  0.10075126997E+03 -0.14619986788E+03  0.79786674802E+02  0.23137757411E+03  0.12507777004E+03 0.  0.
        -24    2    1    2    0    0 -0.72025311516E+01  0.80987871504E+02  0.90165857675E+03  0.90888242697E+03  0.80424904333E+02 0.  0.
        -13    1    3    3    0    0 -0.10547933889E+03  0.65622906676E+02 -0.13048170510E+03  0.18016029579E+03  0.00000000000E+00 0.  1.
         14    1    3    3    0    0  0.11930600073E+02 -0.41091030332E+00 -0.18426020860E+01  0.12079041676E+02  0.00000000000E+00 0. -1.
         11    1    5    5    0    0 -0.41274223378E+02  0.60062079585E+02  0.64910741700E+03  0.65318561966E+03  0.00000000000E+00 0. -1.
        -12    1    5    5    0    0  0.34071692226E+02  0.20925791919E+02  0.25255115975E+03  0.25569680731E+03  0.00000000000E+00 0.  1.
          5    1    4    4  501    0  0.75366438683E+02 -0.88887829708E+01  0.15376419682E+02  0.77543647224E+02  0.41800000000E+01 0.  1.
         -5    1    4    4    0  501  0.25384831282E+02 -0.13731108491E+03  0.64410255120E+02  0.15383392689E+03  0.41800000000E+01 0.  1.
</event>
<event>
11    1  0.1078607E-008  0.1450068E+03  0.7561462E-02  0.1102093E+00
         22   -1    0    0    0    0  0.00000000000E+00  0.00000000000E+00  0.12625256631E+04  0.12625256631E+04  0.00000000000E+00 0.  1.
         22   -1    0    0    0    0 -0.00000000000E+00 -0.00000000000E+00 -0.11226553019E+04  0.11226553019E+04  0.00000000000E+00 0. -1.
        -24    2    1    2    0    0  0.55574705574E+02 -0.47151276716E+02 -0.10767415012E+04  0.10821059653E+04  0.79178715410E+02 0.  0.
         25    2    1    2    0    0 -0.48752065448E+02  0.10282484319E+03  0.13507380743E+03  0.21642922338E+03  0.12508782122E+03 0.  0.
         24    2    1    2    0    0 -0.68226401264E+01 -0.55673566477E+02  0.10815380550E+04  0.10866457763E+04  0.89041475177E+02 0.  0.
        -11    1    5    5    0    0 -0.13990211667E+02  0.15651879789E+02  0.53692375346E+03  0.53733399706E+03  0.00000000000E+00 0.  1.
         12    1    5    5    0    0  0.71675715411E+01 -0.71325446266E+02  0.54461430155E+03  0.54931177925E+03  0.00000000000E+00 0. -1.
         13    1    3    3    0    0  0.49543532683E+02 -0.52482093563E+02 -0.10671353356E+04  0.10695731655E+04  0.00000000000E+00 0. -1.
        -14    1    3    3    0    0  0.60311728909E+01  0.53308168466E+01 -0.96061655708E+01  0.12532799833E+02  0.00000000000E+00 0.  1.
          5    1    4    4  501    0 -0.44400510199E+02  0.12357880216E+03  0.72129309596E+02  0.14987740107E+03  0.41800000000E+01 0. -1.
         -5    1    4    4    0  501 -0.43515552484E+01 -0.20753958965E+02  0.62944497830E+02  0.66551822310E+02  0.41800000000E+01 0. -1.
</event>
<event>
11    1  0.1078607E-008  0.1516080E+03  0.7561462E-02  0.1095247E+00
         22   -1    0    0    0    0  0.00000000000E+00  0.00000000000E+00  0.70359845345E+03  0.70359845345E+03  0.00000000000E+00 0. -1.
         22   -1    0    0    0    0 -0.00000000000E+00 -0.00000000000E+00 -0.41200873330E+03  0.41200873330E+03  0.00000000000E+00 0. -1.
         24    2    1    2    0    0  0.51740837610E+02 -0.66017350162E+02 -0.34781367200E+03  0.36635702169E+03  0.78789035496E+02 0.  0.
         25    2    1    2    0    0 -0.86774728126E+02  0.74850689678E+02  0.89542080674E+02  0.19182958991E+03  0.12509327786E+03 0.  0.
        -24    2    1    2    0    0  0.35033890516E+02 -0.88333395160E+01  0.54986131148E+03  0.55742057515E+03  0.84052569077E+02 0.  0.
        -13    1    3    3    0    0  0.32577355320E+02 -0.68431033614E+02 -0.15457562964E+03  0.17215607953E+03  0.00000000000E+00 0.  1.
         14    1    3    3    0    0  0.19163482290E+02  0.24136834515E+01 -0.19323804236E+03  0.19420094216E+03  0.00000000000E+00 0. -1.
         13    1    5    5    0    0  0.28932836099E+02 -0.11779740344E+02  0.54975769177E+03  0.55064452321E+03  0.00000000000E+00 0. -1.
        -14    1    5    5    0    0  0.61010544173E+01  0.29464008285E+01  0.10361971371E+00  0.67760519398E+01  0.00000000000E+00 0.  1.
          5    1    4    4  501    0  0.16206151024E+02 -0.10082205620E+02  0.48224479798E+02  0.52032326999E+02  0.41800000000E+01 0. -1.
         -5    1    4    4    0  501 -0.10298087915E+03  0.84932895298E+02  0.41317600876E+02  0.13979726291E+03  0.41800000000E+01 0. -1.
</event>
<event>
11    1  0.1078607E-008  0.1566661E+03  0.7561462E-02  0.1090256E+00
         22   -1    0    0    0    0  0.00000000000E+00  0.00000000000E+00  0.89516449685E+03  0.89516449685E+03  0.00000000000E+00 0. -1.
         22   -1    0    0    0    0 -0.00000000000E+00 -0.00000000000E+00 -0.53359428994E+03  0.53359428994E+03  0.00000000000E+00 0. -1.
         24    2    1    2    0    0  0.34827744445E+02 -0.14504856769E+02 -0.50074169031E+03  0.50874873821E+03  0.81606835268E+02 0.  0.
         25    2    1    2    0    0 -0.12097648691E+03  0.20090337857E+02  0.31972455464E+03  0.36456911003E+03  0.12509161879E+03 0.  0.
        -24    2    1    2    0    0  0.86148742469E+02 -0.55854810878E+01  0.54258734259E+03  0.55544093855E+03  0.81613776144E+02 0.  0.
        -11    1    3    3    0    0  0.33069470035E+02 -0.16119396560E+01 -0.66252226062E+02  0.74064469593E+02  0.00000000000E+00 0.  1.
         12    1    3    3    0    0  0.17582744097E+01 -0.12892917113E+02 -0.43448946425E+03  0.43468426862E+03  0.00000000000E+00 0. -1.
         13    1    5    5    0    0  0.61997133622E+02  0.10719739788E+02  0.49936454280E+03  0.50331253115E+03  0.00000000000E+00 0. -1.
        -14    1    5    5    0    0  0.24151608847E+02 -0.16305220876E+02  0.43222799784E+02  0.52128407408E+02  0.00000000000E+00 0.  1.
          5    1    4    4  501    0 -0.13343962768E+03 -0.12895061979E+02  0.28460662318E+03  0.31462806489E+03  0.41800000000E+01 0. -1.
         -5    1    4    4    0  501  0.12463140768E+02  0.32985399836E+02  0.35117931457E+02  0.49941045143E+02  0.41800000000E+01 0. -1.
</event>
<event>
11    1  0.1078607E-008  0.3528190E+03  0.7561462E-02  0.9800239E-01
         22   -1    0    0    0    0  0.00000000000E+00  0.00000000000E+00  0.18482487002E+04  0.18482487002E+04  0.00000000000E+00 0. -1.
         22   -1    0    0    0    0 -0.00000000000E+00 -0.00000000000E+00 -0.11257362818E+03  0.11257362818E+03  0.00000000000E+00 0. -1.
        -24    2    1    2    0    0  0.14053018001E+03  0.29430428575E+03  0.28502246911E+03  0.44100318598E+03  0.82959375824E+02 0.  0.
         25    2    1    2    0    0 -0.13276601321E+03 -0.31675629994E+03  0.12505837001E+04  0.13029076207E+04  0.12508920484E+03 0.  0.
         24    2    1    2    0    0 -0.77641667989E+01  0.22452014184E+02  0.20006890281E+03  0.21691152176E+03  0.80365833380E+02 0.  0.
        -13    1    5    5    0    0 -0.42163847773E+02 -0.98763583311E+00  0.99978166035E+02  0.10850990355E+03  0.00000000000E+00 0.  1.
         14    1    5    5    0    0  0.34399680975E+02  0.23439650017E+02  0.10009073678E+03  0.10840161822E+03  0.00000000000E+00 0. -1.
         13    1    3    3    0    0  0.11703641169E+03  0.18166613448E+03  0.14724260305E+03  0.26149663522E+03  0.00000000000E+00 0. -1.
        -14    1    3    3    0    0  0.23493768313E+02  0.11263815127E+03  0.13777986606E+03  0.17950655076E+03  0.00000000000E+00 0.  1.
          5    1    4    4  501    0 -0.73050671481E+02 -0.45025242696E+02  0.34533435752E+03  0.35586087726E+03  0.41800000000E+01 0. -1.
         -5    1    4    4    0  501 -0.59715341726E+02 -0.27173105724E+03  0.90524934262E+03  0.94704674342E+03  0.41800000000E+01 0. -1.
</event>
<event>
11    1  0.1078607E-008  0.1611168E+03  0.7561462E-02  0.1086032E+00
         22   -1    0    0    0    0  0.00000000000E+00  0.00000000000E+00  0.47113992384E+03  0.47113992384E+03  0.00000000000E+00 0.  1.
         22   -1    0    0    0    0 -0.00000000000E+00 -0.00000000000E+00 -0.66087185731E+03  0.66087185731E+03  0.00000000000E+00 0. -1.
        -24    2    1    2    0    0  0.54387037302E+02 -0.32284230346E+02 -0.58437095107E+03  0.59333846344E+03  0.80999397467E+02 0.  0.
         25    2    1    2    0    0  0.29006714928E+02 -0.42348232607E+02  0.16267224321E+02  0.13618687649E+03  0.12508988938E+03 0.  0.
         24    2    1    2    0    0 -0.83393752231E+02  0.74632462953E+02  0.37837179327E+03  0.40248644122E+03  0.79407801787E+02 0.  0.
        -13    1    5    5    0    0 -0.87887740610E+02  0.60730446533E+02  0.37109221459E+03  0.38616301456E+03  0.00000000000E+00 0.  1.
         14    1    5    5    0    0  0.44939883790E+01  0.13902016420E+02  0.72795786815E+01  0.16323426659E+02  0.00000000000E+00 0. -1.
         11    1    3    3    0    0  0.59822881053E+02 -0.43865150808E+02 -0.56663402625E+03  0.57146920150E+03  0.00000000000E+00 0. -1.
        -12    1    3    3    0    0 -0.54358437503E+01  0.11580920462E+02 -0.17736924817E+02  0.21869261944E+02  0.00000000000E+00 0.  1.
          5    1    4    4  501    0  0.61926983453E+02 -0.52138054591E+02  0.43647830602E+02  0.92064833310E+02  0.41800000000E+01 0. -1.
         -5    1    4    4    0  501 -0.32920268525E+02  0.97898219837E+01 -0.27380606281E+02  0.44122043182E+02  0.41800000000E+01 0. -1.
</event>
<event>
11    1  0.1078607E-008  0.1401031E+03  0.7561462E-02  0.1107443E+00
         22   -1    0    0    0    0  0.00000000000E+00  0.00000000000E+00  0.80488279004E+03  0.80488279004E+03  0.00000000000E+00 0. -1.
         22   -1    0    0    0    0 -0.00000000000E+00 -0.00000000000E+00 -0.83072087791E+03  0.83072087791E+03  0.00000000000E+00 0. -1.
         24    2    1    2    0    0  0.49829356467E+01 -0.56473944640E+02 -0.71396668438E+03  0.72069853765E+03  0.80273405894E+02 0.  0.
         25    2    1    2    0    0  0.52927495780E+02  0.28864571105E+02 -0.64956878746E+02  0.15330082998E+03  0.12508902870E+03 0.  0.
        -24    2    1    2    0    0 -0.57910431426E+02  0.27609373535E+02  0.75308547524E+03  0.76160430033E+03  0.93741568569E+02 0.  0.
        -11    1    3    3    0    0 -0.32889297677E+01 -0.39763415139E+02 -0.12039671204E+03  0.12683577773E+03  0.00000000000E+00 0.  1.
         12    1    3    3    0    0  0.82718654144E+01 -0.16710529501E+02 -0.59356997234E+03  0.59386275992E+03  0.00000000000E+00 0. -1.
         13    1    5    5    0    0 -0.48047957427E+02  0.17492577055E+02  0.74169636485E+03  0.74345685423E+03  0.00000000000E+00 0. -1.
        -14    1    5    5    0    0 -0.98624739997E+01  0.10116796480E+02  0.11389110396E+02  0.18147446102E+02  0.00000000000E+00 0.  1.
          5    1    4    4  501    0  0.43219708129E+02 -0.31276191507E+02 -0.74261493102E+02  0.91533518908E+02  0.41800000000E+01 0.  1.
         -5    1    4    4    0  501  0.97077876506E+01  0.60140762612E+02  0.93046143565E+01  0.61767311071E+02  0.41800000000E+01 0.  1.
</event>
<event>
11    1  0.1078607E-008  0.2084654E+03  0.7561462E-02  0.1048694E+00
         22   -1    0    0    0    0  0.00000000000E+00  0.00000000000E+00  0.41939350802E+02  0.41939350802E+02  0.00000000000E+00 0. -1.
         22   -1    0    0    0    0 -0.00000000000E+00 -0.00000000000E+00 -0.33813170544E+04  0.33813170544E+04  0.00000000000E+00 0.  1.
         24    2    1    2    0    0 -0.14067019117E+03  0.88140560186E+02 -0.25870134503E+04  0.25934603095E+04  0.76425938218E+02 0.  0.
         25    2    1    2    0    0  0.13591637715E+03 -0.10389260989E+03 -0.70241590654E+03  0.73369074030E+03  0.12508821154E+03 0.  0.
        -24    2    1    2    0    0  0.47538140190E+01  0.15752049705E+02 -0.49948346732E+02  0.96105355353E+02  0.80440513230E+02 0.  0.
        -11    1    3    3    0    0 -0.78224614990E+02  0.91187451901E+02 -0.17393808312E+04  0.17435251411E+04  0.00000000000E+00 0.  1.
         12    1    3    3    0    0 -0.62445576184E+02 -0.30468917146E+01 -0.84763261905E+03  0.84993516836E+03  0.00000000000E+00 0. -1.
         11    1    5    5    0    0  0.38505711117E+02  0.26410492293E+02 -0.27397574744E+02  0.54137149848E+02  0.00000000000E+00 0. -1.
        -12    1    5    5    0    0 -0.33751897098E+02 -0.10658442588E+02 -0.22550771988E+02  0.41968205505E+02  0.00000000000E+00 0.  1.
          5    1    4    4  501    0 -0.56047346406E+01 -0.64282889516E+02 -0.19853587820E+03  0.20880055141E+03  0.41800000000E+01 0.  1.
         -5    1    4    4    0  501  0.14152111180E+03 -0.39609720375E+02 -0.50388002834E+03  0.52489018889E+03  0.41800000000E+01 0.  1.
</event>
<event>
11    1  0.1078607E-008  0.1952342E+03  0.7561462E-02  0.1057946E+00
         22   -1    0    0    0    0  0.00000000000E+00  0.00000000000E+00  0.95953051630E+03  0.95953051630E+03  0.00000000000E+00 0. -1.
         22   -1    0    0    0    0 -0.00000000000E+00 -0.00000000000E+00 -0.16393807553E+03  0.16393807553E+03  0.00000000000E+00 0. -1.
        -24    2    1    2    0    0  0.15249919765E+03  0.77067208132E+01 -0.74962085441E+02  0.18816598082E+03  0.80447021416E+02 0.  0.
         25    2    1    2    0    0 -0.12579437037E+03 -0.82296529845E+02  0.32590246724E+03  0.38007522566E+03  0.12509123296E+03 0.  0.
         24    2    1    2    0    0 -0.26704827283E+02  0.74589809032E+02  0.54465205896E+03  0.55522738535E+03  0.73176476398E+02 0.  0.
        -13    1    5    5    0    0 -0.34091892816E+02  0.23283241898E+02  0.10994091920E+03  0.11743667325E+03  0.00000000000E+00 0.  1.
         14    1    5    5    0    0  0.73870655332E+01  0.51306567135E+02  0.43471113977E+03  0.43779071210E+03  0.00000000000E+00 0. -1.
         13    1    3    3    0    0  0.84174410688E+02 -0.81197977801E+01 -0.81857294821E+02  0.11769400684E+03  0.00000000000E+00 0. -1.
        -14    1    3    3    0    0  0.68324786961E+02  0.15826518593E+02  0.68952093804E+01  0.70471973979E+02  0.00000000000E+00 0.  1.
          5    1    4    4  501    0 -0.12070310523E+03 -0.53459900895E+02  0.32462805245E+03  0.35046832303E+03  0.41800000000E+01 0. -1.
         -5    1    4    4    0  501 -0.50912651360E+01 -0.28836628950E+02  0.12744147979E+01  0.29606902624E+02  0.41800000000E+01 0. -1.
</event>
<event>
11    1  0.1078607E-008  0.1359544E+03  0.7561462E-02  0.1112162E+00
         22   -1    0    0    0    0  0.00000000000E+00  0.00000000000E+00  0.35567168263E+03  0.35567168263E+03  0.00000000000E+00 0. -1.
         22   -1    0    0    0    0 -0.00000000000E+00 -0.00000000000E+00 -0.24766941735E+03  0.24766941735E+03  0.00000000000E+00 0.  1.
         24    2    1    2    0    0 -0.34380344590E+02 -0.41855835256E+02 -0.11201852011E+03  0.15247288486E+03  0.88124416201E+02 0.  0.
         25    2    1    2    0    0  0.46699451214E+02  0.26115765522E+02 -0.63052856462E+02  0.14999121212E+03  0.12513524305E+03 0.  0.
        -24    2    1    2    0    0 -0.12319106624E+02  0.15740069735E+02  0.28307364186E+03  0.30087700299E+03  0.99983868857E+02 0.  0.
        -11    1    3    3    0    0 -0.60507579401E+02 -0.30122569221E+02 -0.10153221104E+03  0.12197264538E+03  0.00000000000E+00 0.  1.
         12    1    3    3    0    0  0.26127234811E+02 -0.11733266035E+02 -0.10486309075E+02  0.30500239487E+02  0.00000000000E+00 0. -1.
         13    1    5    5    0    0 -0.18605708497E+02 -0.35490393410E+02  0.19252157606E+03  0.19664764850E+03  0.00000000000E+00 0. -1.
        -14    1    5    5    0    0  0.62866018731E+01  0.51230463144E+02  0.90552065800E+02  0.10422935449E+03  0.00000000000E+00 0.  1.
          5    1    4    4  501    0  0.82773561636E+01  0.19982237948E+02  0.36718665684E+02  0.42819823307E+02  0.41800000000E+01 0. -1.
         -5    1    4    4    0  501  0.38422095050E+02  0.61335275738E+01 -0.99771522146E+02  0.10717138881E+03  0.41800000000E+01 0. -1.
</event>
<event>
11    1  0.1078607E-008  0.1535854E+03  0.7561462E-02  0.1093271E+00
         22   -1    0    0    0    0  0.00000000000E+00  0.00000000000E+00  0.64605446566E+03  0.64605446566E+03  0.00000000000E+00 0. -1.
         22   -1    0    0    0    0 -0.00000000000E+00 -0.00000000000E+00 -0.90524483064E+03  0.90524483064E+03  0.00000000000E+00 0.  1.
        -24    2    1    2    0    0 -0.11710832883E+02 -0.33450872022E+02 -0.87197150025E+03  0.87566566877E+03  0.72110760422E+02 0.  0.
         25    2    1    2    0    0  0.20067195758E+02  0.11097370424E+03  0.31130617290E+03  0.35394556443E+03  0.12509226161E+03 0.  0.
         24    2    1    2    0    0 -0.83563628749E+01 -0.77522832216E+02  0.30147496237E+03  0.32168806310E+03  0.80724461521E+02 0.  0.
        -13    1    5    5    0    0 -0.17757455949E+02 -0.18395330154E+02  0.16357832162E+02  0.30352826661E+02  0.00000000000E+00 0.  1.
         14    1    5    5    0    0  0.94010930745E+01 -0.59127502061E+02  0.28511713021E+03  0.29133523644E+03  0.00000000000E+00 0. -1.
         13    1    3    3    0    0 -0.41519161813E+02 -0.13753021481E+02 -0.41454838633E+03  0.41684931450E+03  0.00000000000E+00 0. -1.
        -14    1    3    3    0    0  0.29808328931E+02 -0.19697850541E+02 -0.45742311392E+03  0.45881635427E+03  0.00000000000E+00 0.  1.
          5    1    4    4  501    0  0.64184617608E+02  0.10470490497E+03  0.24261757674E+03  0.27196239299E+03  0.41800000000E+01 0. -1.
         -5    1    4    4    0  501 -0.44117421850E+02  0.62687992669E+01  0.68688596165E+02  0.81983171432E+02  0.41800000000E+01 0. -1.
</event>
<event>
11    1  0.1078607E-008  0.2481296E+03  0.7561462E-02  0.1024900E+00
         22   -1    0    0    0    0  0.00000000000E+00  0.00000000000E+00  0.10682943580E+03  0.10682943580E+03  0.00000000000E+00 0.  1.
         22   -1    0    0    0    0 -0.00000000000E+00 -0.00000000000E+00 -0.10675904924E+04  0.10675904924E+04  0.00000000000E+00 0.  1.
         24    2    1    2    0    0  0.37321375322E+02 -0.20823895103E+03 -0.66758195290E+03  0.70418641221E+03  0.73868081910E+02 0.  0.
         25    2    1    2    0    0 -0.27227677706E+01  0.22386920727E+03 -0.28254234072E+03  0.38157858222E+03  0.12508878718E+03 0.  0.
        -24    2    1    2    0    0 -0.34598607551E+02 -0.15630256239E+02 -0.10636762992E+02  0.88654933789E+02  0.79405213957E+02 0.  0.
        -11    1    3    3    0    0  0.46827292566E+02 -0.16294498025E+03 -0.58973313391E+03  0.61361961437E+03  0.00000000000E+00 0.  1.
         12    1    3    3    0    0 -0.95059172442E+01 -0.45293970786E+02 -0.77848818989E+02  0.90566797836E+02  0.00000000000E+00 0. -1.
         11    1    5    5    0    0 -0.30735730941E+02 -0.99204174217E+01 -0.44003241629E+02  0.54583744029E+02  0.00000000000E+00 0. -1.
        -12    1    5    5    0    0 -0.38628766100E+01 -0.57098388176E+01  0.33366478637E+02  0.34071189760E+02  0.00000000000E+00 0.  1.
          5    1    4    4  501    0 -0.56071441013E+02  0.16625884239E+03 -0.17043435209E+03  0.24464535545E+03  0.41800000000E+01 0.  1.
         -5    1    4    4    0  501  0.53348673243E+02  0.57610364884E+02 -0.11210798863E+03  0.13693322677E+03  0.41800000000E+01 0.  1.
</event>
<event>
11    1  0.1078607E-008  0.1608320E+03  0.7561462E-02  0.1086297E+00
         22   -1    0    0    0    0  0.00000000000E+00  0.00000000000E+00  0.30141766431E+03  0.30141766431E+03  0.00000000000E+00 0. -1.
         22   -1    0    0    0    0 -0.00000000000E+00 -0.00000000000E+00 -0.26832573972E+03  0.26832573972E+03  0.00000000000E+00 0. -1.
         24    2    1    2    0    0  0.93208801249E+01 -0.45877873908E+02 -0.11033362178E+03  0.14430376679E+03  0.80364238906E+02 0.  0.
         25    2    1    2    0    0  0.92895476826E+02  0.36157879395E+02 -0.70864055641E+02  0.17494551278E+03  0.12508899313E+03 0.  0.
        -24    2    1    2    0    0 -0.10221635695E+03  0.97199945132E+01  0.21428960200E+03  0.25049412446E+03  0.79275538088E+02 0.  0.
        -11    1    3    3    0    0  0.22480092589E+02 -0.24714003948E+01  0.24436739630E+01  0.22747174003E+02  0.00000000000E+00 0.  1.
         12    1    3    3    0    0 -0.13159212464E+02 -0.43406473513E+02 -0.11277729574E+03  0.12155659279E+03  0.00000000000E+00 0. -1.
         13    1    5    5    0    0 -0.70175855395E+02 -0.27952875250E+02  0.16071975835E+03  0.17758618932E+03  0.00000000000E+00 0. -1.
        -14    1    5    5    0    0 -0.32040501557E+02  0.37672869763E+02  0.53569843657E+02  0.72907935135E+02  0.00000000000E+00 0.  1.
          5    1    4    4  501    0  0.40217109889E+02  0.67234900226E+02  0.35432203538E+01  0.78536453617E+02  0.41800000000E+01 0.  1.
         -5    1    4    4    0  501  0.52678366937E+02 -0.31077020831E+02 -0.74407275995E+02  0.96409059159E+02  0.41800000000E+01 0.  1.
</event>
<event>
11    1  0.1078607E-008  0.1431902E+03  0.7561462E-02  0.1104047E+00
         22   -1    0    0    0    0  0.00000000000E+00  0.00000000000E+00  0.27377262337E+03  0.27377262337E+03  0.00000000000E+00 0.  1.
         22   -1    0    0    0    0 -0.00000000000E+00 -0.00000000000E+00 -0.15446337497E+04  0.15446337497E+04  0.00000000000E+00 0. -1.
        -24    2    1    2    0    0  0.66544680791E+02 -0.18934509138E+02 -0.14657908249E+04  0.14696596890E+04  0.81056454529E+02 0.  0.
         25    2    1    2    0    0 -0.83041418906E+02  0.57498057541E+02  0.34486802587E+02  0.16443105198E+03  0.12508528062E+03 0.  0.
         24    2    1    2    0    0  0.16496738115E+02 -0.38563548403E+02  0.16044289599E+03  0.18431563213E+03  0.80442773075E+02 0.  0.
        -11    1    5    5    0    0 -0.21633989763E+02 -0.27210762729E+02  0.12901122810E+03  0.13361269437E+03  0.00000000000E+00 0.  1.
         12    1    5    5    0    0  0.38130727878E+02 -0.11352785673E+02  0.31431667891E+02  0.50702937759E+02  0.00000000000E+00 0. -1.
         13    1    3    3    0    0  0.55734192403E+02 -0.18041171049E+02 -0.14451962058E+04  0.14463830258E+04  0.00000000000E+00 0. -1.
        -14    1    3    3    0    0  0.10810488388E+02 -0.89333808875E+00 -0.20594619086E+02  0.23276663151E+02  0.00000000000E+00 0.  1.
          5    1    4    4  501    0 -0.68136575465E+02  0.63849641823E+02  0.75488127665E+02  0.12014699120E+03  0.41800000000E+01 0.  1.
         -5    1    4    4    0  501 -0.14904843442E+02 -0.63515842820E+01 -0.41001325078E+02  0.44284060779E+02  0.41800000000E+01 0.  1.
</event>
<event>
11    1  0.1078607E-008  0.1878174E+03  0.7561462E-02  0.1063489E+00
         22   -1    0    0    0    0  0.00000000000E+00  0.00000000000E+00  0.35454037263E+03  0.35454037263E+03  0.00000000000E+00 0.  1.
         22   -1    0    0    0    0 -0.00000000000E+00 -0.00000000000E+00 -0.11971842781E+04  0.11971842781E+04  0.00000000000E+00 0.  1.
        -24    2    1    2    0    0 -0.11664942626E+03  0.91086751572E+02 -0.10279717550E+04  0.10417211924E+04  0.80952015457E+02 0.  0.
         25    2    1    2    0    0  0.82472311343E+02 -0.47311307972E+02 -0.11470085407E+03  0.19453622028E+03  0.12509201844E+03 0.  0.
         24    2    1    2    0    0  0.34177114913E+02 -0.43775443600E+02  0.30002870358E+03  0.31546723799E+03  0.80112362494E+02 0.  0.
        -11    1    5    5    0    0 -0.20822460990E+02 -0.14461085084E+02  0.16263076226E+03  0.16459484408E+03  0.00000000000E+00 0.  1.
         12    1    5    5    0    0  0.54999575903E+02 -0.29314358517E+02  0.13739794132E+03  0.15087239391E+03  0.00000000000E+00 0. -1.
         11    1    3    3    0    0 -0.96885340753E+01  0.53235751535E+02 -0.27822779473E+03  0.28344067932E+03  0.00000000000E+00 0. -1.
        -12    1    3    3    0    0 -0.10696089218E+03  0.37851000037E+02 -0.74974396023E+03  0.75828051311E+03  0.00000000000E+00 0.  1.
          5    1    4    4  501    0 -0.68070864782E+01  0.34422716576E+02 -0.33706927368E+02  0.48835327330E+02  0.41800000000E+01 0. -1.
         -5    1    4    4    0  501  0.89279397821E+02 -0.81734024548E+02 -0.80993926700E+02  0.14570089295E+03  0.41800000000E+01 0. -1.
</event>
<event>
11    1  0.1078607E-008  0.2223796E+03  0.7561462E-02  0.1039737E+00
         22   -1    0    0    0    0  0.00000000000E+00  0.00000000000E+00  0.56248468821E+03  0.56248468821E+03  0.00000000000E+00 0. -1.
         22   -1    0    0    0    0 -0.00000000000E+00 -0.00000000000E+00 -0.59236008027E+03  0.59236008027E+03  0.00000000000E+00 0.  1.
         24    2    1    2    0    0 -0.64514378597E+02 -0.17436514431E+03 -0.48488671337E+03  0.52570148234E+03  0.81741147174E+02 0.  0.
         25    2    1    2    0    0  0.46605825280E+02  0.16427706554E+03  0.53207612556E+02  0.21824780007E+03  0.12506796147E+03 0.  0.
        -24    2    1    2    0    0  0.17908553317E+02  0.10088078769E+02  0.40180370875E+03  0.41089548606E+03  0.83464929704E+02 0.  0.
        -13    1    3    3    0    0  0.13337153886E+02 -0.35406272750E+02 -0.15247069250E+03  0.15709486273E+03  0.00000000000E+00 0.  1.
         14    1    3    3    0    0 -0.77851532483E+02 -0.13895887156E+03 -0.33241602087E+03  0.36860661962E+03  0.00000000000E+00 0. -1.
         11    1    5    5    0    0  0.10450292208E+02 -0.23936027124E+02  0.42336001863E+02  0.49744135890E+02  0.00000000000E+00 0. -1.
        -12    1    5    5    0    0  0.74582611092E+01  0.34024105894E+02  0.35946770688E+03  0.36115135017E+03  0.00000000000E+00 0.  1.
          5    1    4    4  501    0  0.36155040830E+02  0.31241227859E+02 -0.33986861981E+02  0.58785886766E+02  0.41800000000E+01 0. -1.
         -5    1    4    4    0  501  0.10450784450E+02  0.13303583768E+03  0.87194474538E+02  0.15946191330E+03  0.41800000000E+01 0. -1.
</event>
<event>
11    1  0.1078607E-008  0.1336792E+03  0.7561462E-02  0.1114829E+00
         22   -1    0    0    0    0  0.00000000000E+00  0.00000000000E+00  0.48030897490E+03  0.48030897490E+03  0.00000000000E+00 0.  1.
         22   -1    0    0    0    0 -0.00000000000E+00 -0.00000000000E+00 -0.35472825010E+03  0.35472825010E+03  0.00000000000E+00 0.  1.
         24    2    1    2    0    0 -0.91838871829E+01  0.47502595187E+02 -0.31266219052E+03  0.32612284577E+03  0.79105150383E+02 0.  0.
         25    2    1    2    0    0 -0.12363084393E+02 -0.24567319436E+02  0.10756163034E+03  0.16725208469E+03  0.12508939392E+03 0.  0.
        -24    2    1    2    0    0  0.21546971576E+02 -0.22935275751E+02  0.33068128498E+03  0.34166229454E+03  0.79954439624E+02 0.  0.
        -13    1    3    3    0    0 -0.35926519646E+02  0.46136838217E+02 -0.26574070360E+03  0.27209822529E+03  0.00000000000E+00 0.  1.
         14    1    3    3    0    0  0.26742632464E+02  0.13657569702E+01 -0.46921486918E+02  0.54024620478E+02  0.00000000000E+00 0. -1.
         11    1    5    5    0    0  0.39873745923E+02 -0.14846491127E+02  0.83926103516E+02  0.94095296184E+02  0.00000000000E+00 0. -1.
        -12    1    5    5    0    0 -0.18326774347E+02 -0.80887846248E+01  0.24675518147E+03  0.24756699836E+03  0.00000000000E+00 0.  1.
          5    1    4    4  501    0  0.26448553749E+02  0.19463746018E+02  0.10304937046E+03  0.10823589310E+03  0.41800000000E+01 0. -1.
         -5    1    4    4    0  501 -0.38811638142E+02 -0.44031065454E+02  0.45122598860E+01  0.59016191588E+02  0.41800000000E+01 0. -1.
</event>
<event>
11    1  0.1078607E-008  0.1539162E+03  0.7561462E-02  0.1092943E+00
         22   -1    0    0    0    0  0.00000000000E+00  0.00000000000E+00  0.39689424272E+03  0.39689424272E+03  0.00000000000E+00 0.  1.
         22   -1    0    0    0    0 -0.00000000000E+00 -0.00000000000E+00 -0.14556732721E+03  0.14556732721E+03  0.00000000000E+00 0. -1.
        -24    2    1    2    0    0 -0.28175433477E+01 -0.13559148659E+02 -0.84075611287E+02  0.10434677556E+03  0.60230823444E+02 0.  0.
         25    2    1    2    0    0  0.11776641421E+02 -0.79985809299E+02  0.12538994208E+03  0.19469638402E+03  0.12509046888E+03 0.  0.
         24    2    1    2    0    0 -0.89590980734E+01  0.93544957958E+02  0.21001258473E+03  0.24341841035E+03  0.79475229839E+02 0.  0.
        -13    1    5    5    0    0 -0.32712709662E+02  0.88615950374E+02  0.13643038276E+03  0.16594022229E+03  0.00000000000E+00 0.  1.
         14    1    5    5    0    0  0.23753611588E+02  0.49290075843E+01  0.73582201963E+02  0.77478188060E+02  0.00000000000E+00 0. -1.
         11    1    3    3    0    0 -0.72835352776E+01 -0.26632218567E+02 -0.86068724671E+02  0.90388883821E+02  0.00000000000E+00 0. -1.
        -12    1    3    3    0    0  0.44659919299E+01  0.13073069908E+02  0.19931133836E+01  0.13957891735E+02  0.00000000000E+00 0.  1.
          5    1    4    4  501    0  0.60398302350E+02 -0.84138627252E+01  0.39934835911E+02  0.73013776316E+02  0.41800000000E+01 0.  1.
         -5    1    4    4    0  501 -0.48621660929E+02 -0.71571946574E+02  0.85455106166E+02  0.12168260770E+03  0.41800000000E+01 0.  1.
</event>
<event>
11    1  0.1078607E-008  0.1424555E+03  0.7561462E-02  0.1104847E+00
         22   -1    0    0    0    0  0.00000000000E+00  0.00000000000E+00  0.43960013392E+03  0.43960013392E+03  0.00000000000E+00 0.  1.
         22   -1    0    0    0    0 -0.00000000000E+00 -0.00000000000E+00 -0.14049219798E+04  0.14049219798E+04  0.00000000000E+00 0.  1.
        -24    2    1    2    0    0 -0.41349140483E+02 -0.47055599621E+02 -0.92057555640E+03  0.92626316170E+03  0.81117869850E+02 0.  0.
         25    2    1    2    0    0  0.59361642749E+02  0.71205967295E+02 -0.46421469026E+03  0.48963319842E+03  0.12510513954E+03 0.  0.
         24    2    1    2    0    0 -0.18012502265E+02 -0.24150367674E+02  0.41946840082E+03  0.42862575356E+03  0.82816706245E+02 0.  0.
        -13    1    5    5    0    0 -0.34888434497E+02 -0.22897817484E+01  0.37251936229E+03  0.37415654644E+03  0.00000000000E+00 0.  1.
         14    1    5    5    0    0  0.16875932231E+02 -0.21860585926E+02  0.46949038529E+02  0.54469207122E+02  0.00000000000E+00 0. -1.
         13    1    3    3    0    0 -0.15966305414E+02 -0.86587729674E+01 -0.34466229028E+02  0.38959186353E+02  0.00000000000E+00 0. -1.
        -14    1    3    3    0    0 -0.25382835070E+02 -0.38396826653E+02 -0.88610932737E+03  0.88730397535E+03  0.00000000000E+00 0.  1.
          5    1    4    4  501    0 -0.29691433908E+02 -0.12923058435E+02 -0.82792499116E+02  0.88998072994E+02  0.41800000000E+01 0.  1.
         -5    1    4    4    0  501  0.89053076656E+02  0.84129025730E+02 -0.38142219114E+03  0.40063512543E+03  0.41800000000E+01 0.  1.
</event>
<event>
11    1  0.1078607E-008  0.1542375E+03  0.7561462E-02  0.1092626E+00
         22   -1    0    0    0    0  0.00000000000E+00  0.00000000000E+00  0.17922124122E+03  0.17922124122E+03  0.00000000000E+00 0.  1.
         22   -1    0    0    0    0 -0.00000000000E+00 -0.00000000000E+00 -0.72549915722E+03  0.72549915722E+03  0.00000000000E+00 0. -1.
         24    2    1    2    0    0 -0.27913161264E+02 -0.64389105026E+02 -0.49941551841E+03  0.51128499978E+03  0.84091554571E+02 0.  0.
         25    2    1    2    0    0  0.69137380598E+02 -0.21813940712E+02 -0.16665557936E+03  0.22062828946E+03  0.12508770753E+03 0.  0.
        -24    2    1    2    0    0 -0.41224219334E+02  0.86203045739E+02  0.11979318178E+03  0.17280710920E+03  0.79884223935E+02 0.  0.
        -11    1    3    3    0    0  0.20729408323E+02 -0.12890307292E+02 -0.43347126664E+02  0.49747781674E+02  0.00000000000E+00 0.  1.
         12    1    3    3    0    0 -0.48642569586E+02 -0.51498797735E+02 -0.45606839175E+03  0.46153721810E+03  0.00000000000E+00 0. -1.
         11    1    5    5    0    0 -0.18727355413E+02  0.97510424714E+02  0.93098660536E+02  0.13611156219E+03  0.00000000000E+00 0. -1.
        -12    1    5    5    0    0 -0.22496863921E+02 -0.11307378975E+02  0.26694521241E+02  0.36695547003E+02  0.00000000000E+00 0.  1.
          5    1    4    4  501    0  0.84809494905E+02  0.24900241926E+02 -0.13661334594E+03  0.16276778294E+03  0.41800000000E+01 0. -1.
         -5    1    4    4    0  501 -0.15672114307E+02 -0.46714182638E+02 -0.30042233425E+02  0.57860506527E+02  0.41800000000E+01 0. -1.
</event>
<event>
11    1  0.1078607E-008  0.1547062E+03  0.7561462E-02  0.1092165E+00
         22   -1    0    0    0    0  0.00000000000E+00  0.00000000000E+00  0.18543390318E+03  0.18543390318E+03  0.00000000000E+00 0. -1.
         22   -1    0    0    0    0 -0.00000000000E+00 -0.00000000000E+00 -0.31329643178E+03  0.31329643178E+03  0.00000000000E+00 0.  1.
         24    2    1    2    0    0  0.23842158804E+02 -0.12627832968E+02 -0.18825261757E+03  0.20832448306E+03  0.85041939770E+02 0.  0.
         25    2    1    2    0    0 -0.10687232870E+03  0.76434961995E+01  0.12224034033E+02  0.16516178538E+03  0.12509544623E+03 0.  0.
        -24    2    1    2    0    0  0.83030169894E+02  0.49843367684E+01  0.48166054929E+02  0.12524406651E+03  0.80294798236E+02 0.  0.
        -11    1    3    3    0    0  0.55012294477E+02 -0.17035340234E+02 -0.12738572063E+03  0.13979870236E+03  0.00000000000E+00 0.  1.
         12    1    3    3    0    0 -0.31170135673E+02  0.44075072657E+01 -0.60866896935E+02  0.68525780701E+02  0.00000000000E+00 0. -1.
         11    1    5    5    0    0  0.80443074090E+02  0.10454327077E+00  0.67578206597E+02  0.10506147298E+03  0.00000000000E+00 0. -1.
        -12    1    5    5    0    0  0.25870958040E+01  0.48797934977E+01 -0.19412151668E+02  0.20182593531E+02  0.00000000000E+00 0.  1.
          5    1    4    4  501    0 -0.98529723213E+02  0.46332585711E+02  0.40605289809E+02  0.11628016519E+03  0.41800000000E+01 0. -1.
         -5    1    4    4    0  501 -0.83426054844E+01 -0.38689089512E+02 -0.28381255776E+02  0.48881620195E+02  0.41800000000E+01 0. -1.
</event>
<event>
11    1  0.1078607E-008  0.1625851E+03  0.7561462E-02  0.1084671E+00
         22   -1    0    0    0    0  0.00000000000E+00  0.00000000000E+00  0.10860504282E+04  0.10860504282E+04  0.00000000000E+00 0. -1.
         22   -1    0    0    0    0 -0.00000000000E+00 -0.00000000000E+00 -0.16888459612E+04  0.16888459612E+04  0.00000000000E+00 0. -1.
        -24    2    1    2    0    0  0.34300621837E+02  0.99192472424E+02 -0.16288056655E+04  0.16337603981E+04  0.71759759159E+02 0.  0.
         25    2    1    2    0    0 -0.77212996564E+02 -0.33697326943E+02  0.50144346482E+02  0.15893211216E+03  0.12509038377E+03 0.  0.
         24    2    1    2    0    0  0.42912374727E+02 -0.65495145481E+02  0.97586578606E+03  0.98220387916E+03  0.79242298333E+02 0.  0.
        -11    1    5    5    0    0 -0.27500620643E+01  0.12881088285E+01  0.46937118355E-01  0.30371481368E+01  0.00000000000E+00 0.  1.
         12    1    5    5    0    0  0.45662436791E+02 -0.66783254310E+02  0.97581884894E+03  0.97916673102E+03  0.00000000000E+00 0. -1.
         11    1    3    3    0    0 -0.45463445608E+01  0.53728231200E+02 -0.11456282237E+04  0.11468964290E+04  0.00000000000E+00 0. -1.
        -12    1    3    3    0    0  0.38846966398E+02  0.45464241223E+02 -0.48317744185E+03  0.48686396903E+03  0.00000000000E+00 0.  1.
          5    1    4    4  501    0 -0.70085000548E+02  0.34422404568E+02  0.44768619553E+02  0.90102779839E+02  0.41800000000E+01 0.  1.
         -5    1    4    4    0  501 -0.71279960164E+01 -0.68119731511E+02  0.53757269299E+01  0.68829332326E+02  0.41800000000E+01 0.  1.
</event>
<event>
11    1  0.1078607E-008  0.1336374E+03  0.7561462E-02  0.1114879E+00
         22   -1    0    0    0    0  0.00000000000E+00  0.00000000000E+00  0.58333829501E+03  0.58333829501E+03  0.00000000000E+00 0.  1.
         22   -1    0    0    0    0 -0.00000000000E+00 -0.00000000000E+00 -0.35716304539E+03  0.35716304539E+03  0.00000000000E+00 0.  1.
         24    2    1    2    0    0 -0.12591649420E+02  0.20416254954E+02 -0.32653329224E+03  0.33706753698E+03  0.80094696726E+02 0.  0.
         25    2    1    2    0    0 -0.28519702100E+02  0.12342764923E+02  0.19862316974E+03  0.23678079252E+03  0.12509301698E+03 0.  0.
        -24    2    1    2    0    0  0.41111351519E+02 -0.32759019878E+02  0.35408537213E+03  0.36665301090E+03  0.79339038574E+02 0.  0.
        -11    1    3    3    0    0 -0.39838274062E+02  0.34061595770E+02 -0.22707498818E+03  0.23304576942E+03  0.00000000000E+00 0.  1.
         12    1    3    3    0    0  0.27246624643E+02 -0.13645340815E+02 -0.99458304062E+02  0.10402176756E+03  0.00000000000E+00 0. -1.
         13    1    5    5    0    0  0.46715154112E+02 -0.50219273527E+02  0.32581625544E+03  0.33295722453E+03  0.00000000000E+00 0. -1.
        -14    1    5    5    0    0 -0.56038025923E+01  0.17460253649E+02  0.28269116683E+02  0.33695786369E+02  0.00000000000E+00 0.  1.
          5    1    4    4  501    0 -0.58927024522E+02  0.88187798071E+01  0.32877690584E+02  0.68180495997E+02  0.41800000000E+01 0.  1.
         -5    1    4    4    0  501  0.30407322422E+02  0.35239851163E+01  0.16574547916E+03  0.16860029653E+03  0.41800000000E+01 0.  1.
</event>
<event>
11    1  0.1078607E-008  0.1872747E+03  0.7561462E-02  0.1063906E+00
         22   -1    0    0    0    0  0.00000000000E+00  0.00000000000E+00  0.89510349445E+03  0.89510349445E+03  0.00000000000E+00 0. -1.
         22   -1    0    0    0    0 -0.00000000000E+00 -0.00000000000E+00 -0.60098005903E+03  0.60098005903E+03  0.00000000000E+00 0.  1.
        -24    2    1    2    0    0  0.13745539978E+03 -0.51259199847E+02 -0.49990100869E+03  0.52780314773E+03  0.84579263207E+02 0.  0.
         25    2    1    2    0    0 -0.24828512600E+01 -0.23236218379E+02 -0.23622226671E+02  0.12942754124E+03  0.12508953771E+03 0.  0.
         24    2    1    2    0    0 -0.13497254852E+03  0.74495418226E+02  0.81764667079E+03  0.83885286450E+03  0.10658749387E+03 0.  0.
        -13    1    5    5    0    0 -0.62308367706E+01 -0.19025239974E+02  0.36173867746E+02  0.41344065966E+02  0.00000000000E+00 0.  1.
         14    1    5    5    0    0 -0.12874171175E+03  0.93520658200E+02  0.78147280304E+03  0.79750879854E+03  0.00000000000E+00 0. -1.
         13    1    3    3    0    0  0.13389562772E+02 -0.36494603098E+02 -0.69483616928E+02  0.79618524653E+02  0.00000000000E+00 0. -1.
        -14    1    3    3    0    0  0.12406583701E+03 -0.14764596749E+02 -0.43041739177E+03  0.44818462308E+03  0.00000000000E+00 0.  1.
          5    1    4    4  501    0 -0.35827613698E+02  0.39560656482E+02 -0.22826569134E+02  0.58199554148E+02  0.41800000000E+01 0.  1.
         -5    1    4    4    0  501  0.33344762438E+02 -0.62796874861E+02 -0.79565753765E+00  0.71227987093E+02  0.41800000000E+01 0.  1.
</event>
<event>
11    1  0.1078607E-008  0.1265953E+03  0.7561462E-02  0.1123524E+00
         22   -1    0    0    0    0  0.00000000000E+00  0.00000000000E+00  0.10774071076E+04  0.10774071076E+04  0.00000000000E+00 0.  1.
         22   -1    0    0    0    0 -0.00000000000E+00 -0.00000000000E+00 -0.14306694381E+03  0.14306694381E+03  0.00000000000E+00 0.  1.
        -24    2    1    2    0    0  0.20969058901E+01 -0.19606901986E+02 -0.10679950260E+03  0.13460492730E+03  0.79520595306E+02 0.  0.
         25    2    1    2    0    0  0.10387999313E+01  0.37129651459E+02  0.18827406450E+03  0.22907216369E+03  0.12508893912E+03 0.  0.
         24    2    1    2    0    0 -0.31357058214E+01 -0.17522749473E+02  0.85286560193E+03  0.85679696046E+03  0.80027602112E+02 0.  0.
        -13    1    5    5    0    0  0.93683300974E+01 -0.28812218967E+02  0.81239932807E+03  0.81296406921E+03  0.00000000000E+00 0.  1.
         14    1    5    5    0    0 -0.12504035919E+02  0.11289469495E+02  0.40466273864E+02  0.43832891259E+02  0.00000000000E+00 0. -1.
         13    1    3    3    0    0  0.28641445097E+02  0.27249099167E+01 -0.79551626437E+01  0.29850328708E+02  0.00000000000E+00 0. -1.
        -14    1    3    3    0    0 -0.26544539207E+02 -0.22331811903E+02 -0.98844339953E+02  0.10475459859E+03  0.00000000000E+00 0.  1.
          5    1    4    4  501    0 -0.12557050349E+02 -0.31131132223E+02  0.65844314545E+01  0.34462356921E+02  0.41800000000E+01 0. -1.
         -5    1    4    4    0  501  0.13595850281E+02  0.68260783682E+02  0.18168963305E+03  0.19460980677E+03  0.41800000000E+01 0. -1.
</event>
<event>
11    1  0.1078607E-008  0.1736709E+03  0.7561462E-02  0.1074881E+00
         22   -1    0    0    0    0  0.00000000000E+00  0.00000000000E+00  0.13535392738E+04  0.13535392738E+04  0.00000000000E+00 0.  1.
         22   -1    0    0    0    0 -0.00000000000E+00 -0.00000000000E+00 -0.16498453014E+03  0.16498453014E+03  0.00000000000E+00 0.  1.
         24    2    1    2    0    0 -0.90295837630E+02 -0.81191310339E+02 -0.10618199243E+03  0.18111015507E+03  0.82346254236E+02 0.  0.
         25    2    1    2    0    0  0.70586778760E+02  0.87629059196E+02  0.34272041791E+03  0.38179403410E+03  0.12509218309E+03 0.  0.
        -24    2    1    2    0    0  0.19709058869E+02 -0.64377488572E+01  0.95201631822E+03  0.95561961481E+03  0.80273821585E+02 0.  0.
        -13    1    3    3    0    0 -0.71887549551E+02 -0.91168394058E+02 -0.10987363665E+03  0.15984902842E+03  0.00000000000E+00 0.  1.
         14    1    3    3    0    0 -0.18408288079E+02  0.99770837189E+01  0.36916442232E+01  0.21261126654E+02  0.00000000000E+00 0. -1.
         13    1    5    5    0    0  0.39916645198E+02 -0.31047280026E+02  0.53205374763E+03  0.53445155302E+03  0.00000000000E+00 0. -1.
        -14    1    5    5    0    0 -0.20207586329E+02  0.24609531169E+02  0.41996257059E+03  0.42116806178E+03  0.00000000000E+00 0.  1.
          5    1    4    4  501    0 -0.31441094661E+02  0.34976749353E+02  0.15177444179E+03  0.15894926552E+03  0.41800000000E+01 0. -1.
         -5    1    4    4    0  501  0.10202787342E+03  0.52652309843E+02  0.19094597613E+03  0.22284476858E+03  0.41800000000E+01 0. -1.
</event>
<event>
11    1  0.1078607E-008  0.1628582E+03  0.7561462E-02  0.1084419E+00
         22   -1    0    0    0    0  0.00000000000E+00  0.00000000000E+00  0.56814747820E+02  0.56814747820E+02  0.00000000000E+00 0.  1.
         22   -1    0    0    0    0 -0.00000000000E+00 -0.00000000000E+00 -0.71579155864E+03  0.71579155864E+03  0.00000000000E+00 0.  1.
        -24    2    1    2    0    0  0.10553745344E+02  0.29880179063E+02 -0.26350996553E+03  0.27759016430E+03  0.81330134277E+02 0.  0.
         25    2    1    2    0    0  0.55912424038E+02  0.69394890722E+02 -0.19771921753E+03  0.25036136597E+03  0.12508426987E+03 0.  0.
         24    2    1    2    0    0 -0.66466169382E+02 -0.99275069785E+02 -0.19774762776E+03  0.24465477619E+03  0.80489403492E+02 0.  0.
        -13    1    5    5    0    0 -0.63914295491E+02 -0.10393880246E+03 -0.13613910314E+03  0.18281730560E+03  0.00000000000E+00 0.  1.
         14    1    5    5    0    0 -0.25518738908E+01  0.46637326698E+01 -0.61608524620E+02  0.61837470588E+02  0.00000000000E+00 0. -1.
         11    1    3    3    0    0  0.42335780406E+02  0.28749401526E+02 -0.20154937007E+03  0.20794469208E+03  0.00000000000E+00 0. -1.
        -12    1    3    3    0    0 -0.31782035062E+02  0.11307775371E+01 -0.61960595465E+02  0.69645472221E+02  0.00000000000E+00 0.  1.
          5    1    4    4  501    0 -0.24472364235E+02 -0.21010648286E+02 -0.40571276261E+02  0.51998507768E+02  0.41800000000E+01 0. -1.
         -5    1    4    4    0  501  0.80384788272E+02  0.90405539008E+02 -0.15714794127E+03  0.19836285820E+03  0.41800000000E+01 0. -1.
</event>
<event>
11    1  0.1078607E-008  0.1464299E+03  0.7561462E-02  0.1100584E+00
         22   -1    0    0    0    0  0.00000000000E+00  0.00000000000E+00  0.29577270333E+03  0.29577270333E+03  0.00000000000E+00 0. -1.
         22   -1    0    0    0    0 -0.00000000000E+00 -0.00000000000E+00 -0.10076873895E+04  0.10076873895E+04  0.00000000000E+00 0. -1.
         24    2    1    2    0    0 -0.13834851174E+02 -0.75980251039E+02 -0.90510226145E+03  0.91107234841E+03  0.69844961910E+02 0.  0.
         25    2    1    2    0    0  0.14388381593E+02  0.54504339621E+02 -0.39836994566E+02  0.14289343666E+03  0.12511514513E+03 0.  0.
        -24    2    1    2    0    0 -0.55353041978E+00  0.21475911418E+02  0.23302456987E+03  0.24949430773E+03  0.86518427284E+02 0.  0.
        -11    1    3    3    0    0 -0.14645329505E+02  0.10254323483E+02 -0.16061711443E+03  0.16160907857E+03  0.00000000000E+00 0.  1.
         12    1    3    3    0    0  0.81047833162E+00 -0.86234574523E+02 -0.74448514702E+03  0.74946326984E+03  0.00000000000E+00 0. -1.
         11    1    5    5    0    0  0.21886033019E+02 -0.26413562565E+02  0.11818117818E+03  0.12305878922E+03  0.00000000000E+00 0. -1.
        -12    1    5    5    0    0 -0.22439563439E+02  0.47889473983E+02  0.11484339169E+03  0.12643551851E+03  0.00000000000E+00 0.  1.
          5    1    4    4  501    0 -0.54523892156E+02  0.24805900558E+02 -0.56026491476E+01  0.60307956323E+02  0.41800000000E+01 0.  1.
         -5    1    4    4    0  501  0.68912273750E+02  0.29698439063E+02 -0.34234345418E+02  0.82585480336E+02  0.41800000000E+01 0.  1.
</event>
<event>
11    1  0.1536312E-008  0.1519157E+03  0.7561462E-02  0.1094937E+00
         22   -1    0    0    0    0  0.00000000000E+00  0.00000000000E+00  0.50533928028E+03  0.50533928028E+03  0.00000000000E+00 0. -1.
         22   -1    0    0    0    0 -0.00000000000E+00 -0.00000000000E+00 -0.16499177146E+04  0.16499177146E+04  0.00000000000E+00 0.  1.
        -24    2    1    2    0    0  0.27713003947E+02 -0.37380404043E+02 -0.10932566822E+04  0.10969691458E+04  0.77238776196E+02 0.  0.
         25    2    1    2    0    0 -0.60734890469E+02 -0.42575339215E+02 -0.53794372002E+03  0.55725518144E+03  0.12509398431E+03 0.  0.
         24    2    1    2    0    0  0.33021886522E+02  0.79955743258E+02  0.48662196789E+03  0.50103266760E+03  0.82154905519E+02 0.  0.
        -11    1    5    5    0    0 -0.22701180358E+02  0.20087707399E+02  0.67338604314E+02  0.73846781982E+02  0.00000000000E+00 0.  1.
         12    1    5    5    0    0  0.55723066880E+02  0.59868035859E+02  0.41928336358E+03  0.42718588562E+03  0.00000000000E+00 0. -1.
         11    1    3    3    0    0  0.19751775721E+02 -0.12973211209E+02 -0.80743717090E+02  0.84130759552E+02  0.00000000000E+00 0. -1.
        -12    1    3    3    0    0  0.79612282263E+01 -0.24407192834E+02 -0.10125129651E+04  0.10128383862E+04  0.00000000000E+00 0.  1.
          5    1    4    4  501    0 -0.95022538406E+02 -0.63531123553E+01 -0.34559530365E+03  0.35850136840E+03  0.41800000000E+01 0.  1.
         -5    1    4    4    0  501  0.34287647936E+02 -0.36222226860E+02 -0.19234841637E+03  0.19875381305E+03  0.41800000000E+01 0.  1.
</event>
<event>
11    1  0.1078607E-008  0.1867444E+03  0.7561462E-02  0.1064314E+00
         22   -1    0    0    0    0  0.00000000000E+00  0.00000000000E+00  0.22583863191E+03  0.22583863191E+03  0.00000000000E+00 0.  1.
         22   -1    0    0    0    0 -0.00000000000E+00 -0.00000000000E+00 -0.63521879531E+03  0.63521879531E+03  0.00000000000E+00 0. -1.
         24    2    1    2    0    0 -0.62726437634E+02  0.12739782811E+03 -0.53708115661E+03  0.56174740533E+03  0.83301656768E+02 0.  0.
         25    2    1    2    0    0  0.85808338063E+01 -0.11452467417E+03  0.54544297797E+02  0.17835223367E+03  0.12507960317E+03 0.  0.
        -24    2    1    2    0    0  0.54145603827E+02 -0.12873153942E+02  0.73156695418E+02  0.12095778822E+03  0.78622006723E+02 0.  0.
        -11    1    3    3    0    0 -0.47468275646E+01  0.34381132648E+02 -0.41074446180E+02  0.53774573760E+02  0.00000000000E+00 0.  1.
         12    1    3    3    0    0 -0.57979610069E+02  0.93016695466E+02 -0.49600671043E+03  0.50797283157E+03  0.00000000000E+00 0. -1.
         11    1    5    5    0    0  0.57640746161E+02  0.95322877631E+01  0.17703132953E+02  0.61046875795E+02  0.00000000000E+00 0. -1.
        -12    1    5    5    0    0 -0.34951423334E+01 -0.22405441706E+02  0.55453562465E+02  0.59910912428E+02  0.00000000000E+00 0.  1.
          5    1    4    4  501    0  0.23074280907E+02 -0.65046128093E+02  0.91567560509E+02  0.11474106395E+03  0.41800000000E+01 0.  1.
         -5    1    4    4    0  501 -0.14493447100E+02 -0.49478546078E+02 -0.37023262713E+02  0.63611169716E+02  0.41800000000E+01 0.  1.
</event>
<event>
11    1  0.1078607E-008  0.1662725E+03  0.7561462E-02  0.1081322E+00
         22   -1    0    0    0    0  0.00000000000E+00  0.00000000000E+00  0.57023428937E+03  0.57023428937E+03  0.00000000000E+00 0. -1.
         22   -1    0    0    0    0 -0.00000000000E+00 -0.00000000000E+00 -0.36759766650E+03  0.36759766650E+03  0.00000000000E+00 0. -1.
        -24    2    1    2    0    0  0.42751077785E+02 -0.97405150475E+02 -0.30228477245E+03  0.33069054525E+03  0.81637828699E+02 0.  0.
         25    2    1    2    0    0 -0.50540724542E+02  0.15936342973E+03  0.21308796426E+03  0.29834160869E+03  0.12510062906E+03 0.  0.
         24    2    1    2    0    0  0.77896467569E+01 -0.61958279255E+02  0.29183343105E+03  0.30879980192E+03  0.79316197716E+02 0.  0.
        -11    1    5    5    0    0  0.96840079473E+01 -0.53117878623E+02  0.78507102969E+02  0.95281972355E+02  0.00000000000E+00 0.  1.
         12    1    5    5    0    0 -0.18943611904E+01 -0.88404006319E+01  0.21332632809E+03  0.21351782956E+03  0.00000000000E+00 0. -1.
         13    1    3    3    0    0  0.26033995342E+02 -0.10504400295E+03 -0.28719916930E+03  0.30691264932E+03  0.00000000000E+00 0. -1.
        -14    1    3    3    0    0  0.16717082443E+02  0.76388524705E+01 -0.15085603148E+02  0.23777895929E+02  0.00000000000E+00 0.  1.
          5    1    4    4  501    0 -0.77251251630E+02  0.73614554583E+02  0.16455216886E+03  0.19616765075E+03  0.41800000000E+01 0. -1.
         -5    1    4    4    0  501  0.26710527088E+02  0.85748875147E+02  0.48535795401E+02  0.10217395794E+03  0.41800000000E+01 0. -1.
</event>
<event>
11    1  0.1078607E-008  0.1425476E+03  0.7561462E-02  0.1104746E+00
         22   -1    0    0    0    0  0.00000000000E+00  0.00000000000E+00  0.31710640329E+03  0.31710640329E+03  0.00000000000E+00 0. -1.
         22   -1    0    0    0    0 -0.00000000000E+00 -0.00000000000E+00 -0.28695850527E+03  0.28695850527E+03  0.00000000000E+00 0.  1.
         24    2    1    2    0    0 -0.69080517186E+02  0.70395258385E+01 -0.17639795173E+03  0.20146449480E+03  0.68191146868E+02 0.  0.
         25    2    1    2    0    0  0.59731108953E+01  0.33941504397E+02 -0.38518835351E+02  0.13534937545E+03  0.12509216196E+03 0.  0.
        -24    2    1    2    0    0  0.63107406291E+02 -0.40981030235E+02  0.24506468511E+03  0.26725103830E+03  0.75527663939E+02 0.  0.
        -13    1    3    3    0    0 -0.36367718214E+02 -0.26605437422E+01 -0.15906991361E+03  0.16319597678E+03  0.00000000000E+00 0.  1.
         14    1    3    3    0    0 -0.32712798972E+02  0.97000695807E+01 -0.17328038125E+02  0.38268518024E+02  0.00000000000E+00 0. -1.
         13    1    5    5    0    0  0.68082723092E+02 -0.45597443969E+01  0.18032080852E+03  0.19279948765E+03  0.00000000000E+00 0. -1.
        -14    1    5    5    0    0 -0.49753168010E+01 -0.36421285838E+02  0.64743876590E+02  0.74451550657E+02  0.00000000000E+00 0.  1.
          5    1    4    4  501    0  0.18681852019E+02 -0.45213333120E+02 -0.96474978309E+01  0.50038022554E+02  0.41800000000E+01 0. -1.
         -5    1    4    4    0  501 -0.12708741124E+02  0.79154837517E+02 -0.28871337520E+02  0.85311352899E+02  0.41800000000E+01 0. -1.
</event>
<event>
11    1  0.1078607E-008  0.1471009E+03  0.7561462E-02  0.1099878E+00
         22   -1    0    0    0    0  0.00000000000E+00  0.00000000000E+00  0.13937437915E+04  0.13937437915E+04  0.00000000000E+00 0. -1.
         22   -1    0    0    0    0 -0.00000000000E+00 -0.00000000000E+00 -0.95080739205E+02  0.95080739205E+02  0.00000000000E+00 0. -1.
        -24    2    1    2    0    0  0.25240385858E+02 -0.28698781452E+02  0.32286393745E+02  0.93840165523E+02  0.79390605926E+02 0.  0.
         25    2    1    2    0    0 -0.99101736390E+02  0.78096566953E+01  0.41390285759E+02  0.16505362871E+03  0.12508956672E+03 0.  0.
         24    2    1    2    0    0  0.73861350532E+02  0.20889124757E+02  0.12249863728E+04  0.12299307364E+04  0.79032577782E+02 0.  0.
        -11    1    5    5    0    0  0.15292594696E+02 -0.23729115511E+02  0.16561036712E+03  0.16799919069E+03  0.00000000000E+00 0.  1.
         12    1    5    5    0    0  0.58568755836E+02  0.44618240268E+02  0.10593760056E+04  0.10619315457E+04  0.00000000000E+00 0. -1.
         13    1    3    3    0    0  0.39256000842E+02  0.42707345799E+01  0.41049466758E+02  0.56959033499E+02  0.00000000000E+00 0. -1.
        -14    1    3    3    0    0 -0.14015614984E+02 -0.32969516032E+02 -0.87630730136E+01  0.36881132025E+02  0.00000000000E+00 0.  1.
          5    1    4    4  501    0 -0.42413426136E+01  0.29702518765E+02 -0.31243073636E+02  0.43518164694E+02  0.41800000000E+01 0. -1.
         -5    1    4    4    0  501 -0.94860393777E+02 -0.21892862069E+02  0.72633359395E+02  0.12153546402E+03  0.41800000000E+01 0. -1.
</event>
<event>
11    1  0.1078607E-008  0.1411497E+03  0.7561462E-02  0.1106281E+00
         22   -1    0    0    0    0  0.00000000000E+00  0.00000000000E+00  0.10638383029E+04  0.10638383029E+04  0.00000000000E+00 0. -1.
         22   -1    0    0    0    0 -0.00000000000E+00 -0.00000000000E+00 -0.28395022355E+03  0.28395022355E+03  0.00000000000E+00 0. -1.
         24    2    1    2    0    0 -0.52242166794E+02 -0.38512680828E+02 -0.25925078891E+03  0.27954596547E+03  0.81990881713E+02 0.  0.
         25    2    1    2    0    0  0.67549907627E+02  0.66987557430E+02  0.58573587828E+03  0.60645182983E+03  0.12508788879E+03 0.  0.
        -24    2    1    2    0    0 -0.15307740833E+02 -0.28474876602E+02  0.45340298998E+03  0.46179073116E+03  0.81432564348E+02 0.  0.
        -13    1    3    3    0    0 -0.47151191512E+02  0.14652063144E+02 -0.15042393031E+03  0.15832017125E+03  0.00000000000E+00 0.  1.
         14    1    3    3    0    0 -0.50909752815E+01 -0.53164743972E+02 -0.10882685860E+03  0.12122579422E+03  0.00000000000E+00 0. -1.
         11    1    5    5    0    0 -0.38608967742E+02 -0.30314943521E+02  0.40580681900E+03  0.40876499672E+03  0.00000000000E+00 0. -1.
        -12    1    5    5    0    0  0.23301226909E+02  0.18400669187E+01  0.47596170973E+02  0.53025734442E+02  0.00000000000E+00 0.  1.
          5    1    4    4  501    0 -0.12110201452E+02  0.74358519244E+02  0.32728753843E+03  0.33587267167E+03  0.41800000000E+01 0. -1.
         -5    1    4    4    0  501  0.79660109079E+02 -0.73709618147E+01  0.25844833985E+03  0.27057915816E+03  0.41800000000E+01 0. -1.
</event>
<event>
11    1  0.1078607E-008  0.1833914E+03  0.7561462E-02  0.1066932E+00
         22   -1    0    0    0    0  0.00000000000E+00  0.00000000000E+00  0.95144617494E+03  0.95144617494E+03  0.00000000000E+00 0. -1.
         22   -1    0    0    0    0 -0.00000000000E+00 -0.00000000000E+00 -0.60366777735E+03  0.60366777735E+03  0.00000000000E+00 0.  1.
         24    2    1    2    0    0 -0.12130005020E+02 -0.63864360975E+02 -0.54336248175E+03  0.55306333564E+03  0.80065429672E+02 0.  0.
         25    2    1    2    0    0  0.10515481839E+03  0.14936868595E+03  0.21154920126E+03  0.30621718918E+03  0.12508941689E+03 0.  0.
        -24    2    1    2    0    0 -0.93024813373E+02 -0.85504324977E+02  0.67959167808E+03  0.69583342747E+03  0.79841745839E+02 0.  0.
        -13    1    3    3    0    0  0.17398446753E+02 -0.33759549814E+01 -0.30117376289E+03  0.30169477701E+03  0.00000000000E+00 0.  1.
         14    1    3    3    0    0 -0.29528451773E+02 -0.60488405994E+02 -0.24218871886E+03  0.25136855863E+03  0.00000000000E+00 0. -1.
         11    1    5    5    0    0 -0.20870078298E+02  0.11716008558E+01  0.27571174856E+03  0.27650298571E+03  0.00000000000E+00 0. -1.
        -12    1    5    5    0    0 -0.72154735074E+02 -0.86675925833E+02  0.40387992952E+03  0.41933044176E+03  0.00000000000E+00 0.  1.
          5    1    4    4  501    0  0.53914867377E+02  0.43114155075E+02  0.16575916630E+03  0.17960851012E+03  0.41800000000E+01 0. -1.
         -5    1    4    4    0  501  0.51239951016E+02  0.10625453088E+03  0.45790034960E+02  0.12660867906E+03  0.41800000000E+01 0. -1.
</event>
<event>
11    1  0.1078607E-008  0.1314959E+03  0.7561462E-02  0.1117445E+00
         22   -1    0    0    0    0  0.00000000000E+00  0.00000000000E+00  0.28312920847E+03  0.28312920847E+03  0.00000000000E+00 0. -1.
         22   -1    0    0    0    0 -0.00000000000E+00 -0.00000000000E+00 -0.21016351361E+03  0.21016351361E+03  0.00000000000E+00 0.  1.
        -24    2    1    2    0    0  0.45037242204E+02 -0.70832375138E+01 -0.97406062236E+02  0.13451389101E+03  0.80793071959E+02 0.  0.
         25    2    1    2    0    0 -0.28719041243E+02 -0.11937233956E+02 -0.37874062872E+02  0.13434679624E+03  0.12508931264E+03 0.  0.
         24    2    1    2    0    0 -0.16318200961E+02  0.19020471470E+02  0.20824581997E+03  0.22443203483E+03  0.79845818348E+02 0.  0.
        -11    1    5    5    0    0 -0.25235328232E+02  0.13444079409E+02  0.17767885124E+02  0.33663968927E+02  0.00000000000E+00 0.  1.
         12    1    5    5    0    0  0.89171272707E+01  0.55763920605E+01  0.19047793484E+03  0.19076806590E+03  0.00000000000E+00 0. -1.
         13    1    3    3    0    0  0.28649673417E+02  0.88538771278E+01  0.42796546993E+01  0.30290433662E+02  0.00000000000E+00 0. -1.
        -14    1    3    3    0    0  0.16387568787E+02 -0.15937114642E+02 -0.10168571693E+03  0.10422345735E+03  0.00000000000E+00 0.  1.
          5    1    4    4  501    0 -0.41415159098E+00 -0.66666601469E+02 -0.24560460464E+02  0.71170892163E+02  0.41800000000E+01 0. -1.
         -5    1    4    4    0  501 -0.28304889652E+02  0.54729367513E+02 -0.13313602408E+02  0.63175904075E+02  0.41800000000E+01 0. -1.
</event>
<event>
11    1  0.1078607E-008  0.1864875E+03  0.7561462E-02  0.1064513E+00
         22   -1    0    0    0    0  0.00000000000E+00  0.00000000000E+00  0.71734328295E+03  0.71734328295E+03  0.00000000000E+00 0. -1.
         22   -1    0    0    0    0 -0.00000000000E+00 -0.00000000000E+00 -0.18807342160E+03  0.18807342160E+03  0.00000000000E+00 0.  1.
         24    2    1    2    0    0  0.56390274567E+02 -0.12489616001E+03 -0.90123671837E+02  0.18223245046E+03  0.79419619269E+02 0.  0.
         25    2    1    2    0    0 -0.87437911198E+02  0.11751158223E+03  0.14902928992E+03  0.24353866840E+03  0.12508794297E+03 0.  0.
        -24    2    1    2    0    0  0.31047636632E+02  0.73845777802E+01  0.47036424326E+03  0.47964558570E+03  0.88311260939E+02 0.  0.
        -11    1    3    3    0    0  0.74488305255E+02 -0.11547949136E+03 -0.83423322488E+02  0.16075904727E+03  0.00000000000E+00 0.  1.
         12    1    3    3    0    0 -0.18098030688E+02 -0.94166686568E+01 -0.67003493483E+01  0.21473403195E+02  0.00000000000E+00 0. -1.
         13    1    5    5    0    0  0.46548956549E+01  0.43042827584E+02  0.31866808390E+03  0.32159555463E+03  0.00000000000E+00 0. -1.
        -14    1    5    5    0    0  0.26392740977E+02 -0.35658249804E+02  0.15169615936E+03  0.15805003107E+03  0.00000000000E+00 0.  1.
          5    1    4    4  501    0  0.11768973968E+02  0.35644349547E+01  0.73384858517E+02  0.74525323242E+02  0.41800000000E+01 0. -1.
         -5    1    4    4    0  501 -0.99206885166E+02  0.11394714728E+03  0.75644431405E+02  0.16901334515E+03  0.41800000000E+01 0. -1.
</event>
<event>
11    1  0.1078607E-008  0.1714500E+03  0.7561462E-02  0.1076777E+00
         22   -1    0    0    0    0  0.00000000000E+00  0.00000000000E+00  0.26534499741E+03  0.26534499741E+03  0.00000000000E+00 0. -1.
         22   -1    0    0    0    0 -0.00000000000E+00 -0.00000000000E+00 -0.18375329875E+04  0.18375329875E+04  0.00000000000E+00 0. -1.
        -24    2    1    2    0    0 -0.11274733944E+03 -0.44829888301E+02 -0.17150584589E+04  0.17211328613E+04  0.78429123225E+02 0.  0.
         25    2    1    2    0    0  0.52000899704E+02  0.25765165341E+02 -0.63192698681E+02  0.15168268020E+03  0.12508549472E+03 0.  0.
         24    2    1    2    0    0  0.60746439731E+02  0.19064722959E+02  0.20606316742E+03  0.23006244348E+03  0.80081866425E+02 0.  0.
        -11    1    5    5    0    0  0.14752374540E+02  0.31007331851E+02  0.23984007555E+02  0.41884601006E+02  0.00000000000E+00 0.  1.
         12    1    5    5    0    0  0.45994065191E+02 -0.11942608891E+02  0.18207915986E+03  0.18817784247E+03  0.00000000000E+00 0. -1.
         13    1    3    3    0    0 -0.11828789568E+03 -0.56238543659E+02 -0.15032964094E+04  0.15089913500E+04  0.00000000000E+00 0. -1.
        -14    1    3    3    0    0  0.55405562485E+01  0.11408655358E+02 -0.21176204948E+03  0.21214151121E+03  0.00000000000E+00 0.  1.
          5    1    4    4  501    0  0.34313914296E+02 -0.36263031330E+02 -0.70658275755E+02  0.86617068111E+02  0.41800000000E+01 0.  1.
         -5    1    4    4    0  501  0.17686985408E+02  0.62028196672E+02  0.74655770735E+01  0.65065612087E+02  0.41800000000E+01 0.  1.
</event>
<event>
11    1  0.1078607E-008  0.1526883E+03  0.7561462E-02  0.1094163E+00
         22   -1    0    0    0    0  0.00000000000E+00  0.00000000000E+00  0.21296803000E+03  0.21296803000E+03  0.00000000000E+00 0. -1.
         22   -1    0    0    0    0 -0.00000000000E+00 -0.00000000000E+00 -0.20616635852E+04  0.20616635852E+04  0.00000000000E+00 0. -1.
        -24    2    1    2    0    0 -0.48881826193E+01  0.86117896528E+02 -0.17714403271E+04  0.17753875839E+04  0.80994160812E+02 0.  0.
         25    2    1    2    0    0  0.16619727292E+02 -0.10231918589E+03 -0.25537612194E+03  0.30267103356E+03  0.12508940706E+03 0.  0.
         24    2    1    2    0    0 -0.11731544673E+02  0.16201289367E+02  0.17812089393E+03  0.19657299767E+03  0.80707989959E+02 0.  0.
        -11    1    5    5    0    0 -0.21503482173E+02  0.73930358400E+01  0.54254457394E+01  0.23377172327E+02  0.00000000000E+00 0.  1.
         12    1    5    5    0    0  0.97719375006E+01  0.88082535267E+01  0.17269544819E+03  0.17319582535E+03  0.00000000000E+00 0. -1.
         11    1    3    3    0    0  0.20817669814E+02  0.43520051084E+02 -0.13737970349E+04  0.13746438315E+04  0.00000000000E+00 0. -1.
        -12    1    3    3    0    0 -0.25705852433E+02  0.42597845444E+02 -0.39764329223E+03  0.40074375246E+03  0.00000000000E+00 0.  1.
          5    1    4    4  501    0 -0.53452894989E+01 -0.88576523402E+02 -0.63963841269E+02  0.10946788574E+03  0.41800000000E+01 0.  1.
         -5    1    4    4    0  501  0.21965016791E+02 -0.13742662493E+02 -0.19141228067E+03  0.19320314782E+03  0.41800000000E+01 0.  1.
</event>
<event>
11    1  0.1078607E-008  0.1287149E+03  0.7561462E-02  0.1120858E+00
         22   -1    0    0    0    0  0.00000000000E+00  0.00000000000E+00  0.39265864101E+03  0.39265864101E+03  0.00000000000E+00 0.  1.
         22   -1    0    0    0    0 -0.00000000000E+00 -0.00000000000E+00 -0.32076859013E+03  0.32076859013E+03  0.00000000000E+00 0. -1.
        -24    2    1    2    0    0 -0.38859365914E+02 -0.10392885351E+00 -0.21772917115E+03  0.23514650480E+03  0.79861289948E+02 0.  0.
         25    2    1    2    0    0  0.57264516299E+02  0.22070176374E+02 -0.33313571406E+02  0.14326285468E+03  0.12509250169E+03 0.  0.
         24    2    1    2    0    0 -0.18405150385E+02 -0.21966247521E+02  0.32293279344E+03  0.33501787166E+03  0.84440035905E+02 0.  0.
        -11    1    5    5    0    0 -0.34397732644E+02 -0.19811443796E+02  0.31414528453E+03  0.31664326475E+03  0.00000000000E+00 0.  1.
         12    1    5    5    0    0  0.15992582259E+02 -0.21548037244E+01  0.87875089046E+01  0.18374606912E+02  0.00000000000E+00 0. -1.
         11    1    3    3    0    0 -0.21285952734E+02 -0.31545864639E+02 -0.17579233830E+03  0.17986433656E+03  0.00000000000E+00 0. -1.
        -12    1    3    3    0    0 -0.17573413180E+02  0.31441935786E+02 -0.41936832843E+02  0.55282168243E+02  0.00000000000E+00 0.  1.
          5    1    4    4  501    0  0.43557713016E+02 -0.42498543408E+02  0.13192669818E+02  0.62409290109E+02  0.41800000000E+01 0.  1.
         -5    1    4    4    0  501  0.13706803283E+02  0.64568719782E+02 -0.46506241224E+02  0.80853564567E+02  0.41800000000E+01 0.  1.
</event>
<event>
11    1  0.1078607E-008  0.1391091E+03  0.7561462E-02  0.1108557E+00
         22   -1    0    0    0    0  0.00000000000E+00  0.00000000000E+00  0.26017092246E+03  0.26017092246E+03  0.00000000000E+00 0. -1.
         22   -1    0    0    0    0 -0.00000000000E+00 -0.00000000000E+00 -0.39092578103E+04  0.39092578103E+04  0.00000000000E+00 0. -1.
         24    2    1    2    0    0  0.60143643457E+02  0.10244249018E+01 -0.38321234499E+04  0.38335595017E+04  0.85965169693E+02 0.  0.
         25    2    1    2    0    0 -0.38730842907E+01  0.41636878568E+02  0.11745985314E+02  0.13241645128E+03  0.12509003941E+03 0.  0.
        -24    2    1    2    0    0 -0.56270559166E+02 -0.42661303470E+02  0.17129057677E+03  0.20345277976E+03  0.84060747441E+02 0.  0.
        -13    1    3    3    0    0  0.55844294004E+02  0.19341879987E+02 -0.12770284169E+04  0.12783951936E+04  0.00000000000E+00 0.  1.
         14    1    3    3    0    0  0.42993494530E+01 -0.18317455085E+02 -0.25550950331E+04  0.25551643081E+04  0.00000000000E+00 0. -1.
         11    1    5    5    0    0 -0.22013807599E+02 -0.26317463740E+02  0.16030990945E+03  0.16394048826E+03  0.00000000000E+00 0. -1.
        -12    1    5    5    0    0 -0.34256751567E+02 -0.16343839730E+02  0.10980667319E+02  0.39512291503E+02  0.00000000000E+00 0.  1.
          5    1    4    4  501    0  0.55494196165E+02 -0.38287975961E+01 -0.38515115737E+01  0.55915758427E+02  0.41800000000E+01 0. -1.
         -5    1    4    4    0  501 -0.59367280456E+02  0.45465676164E+02  0.15597496887E+02  0.76500692853E+02  0.41800000000E+01 0. -1.
</event>
<event>
11    1  0.1078607E-008  0.1285183E+03  0.7561462E-02  0.1121103E+00
         22   -1    0    0    0    0  0.00000000000E+00  0.00000000000E+00  0.36224608106E+03  0.36224608106E+03  0.00000000000E+00 0. -1.
         22   -1    0    0    0    0 -0.00000000000E+00 -0.00000000000E+00 -0.52736682105E+03  0.52736682105E+03  0.00000000000E+00 0. -1.
        -24    2    1    2    0    0  0.10518269814E+02  0.28150802667E+02 -0.45924923133E+03  0.46733226804E+03  0.81157196711E+02 0.  0.
         25    2    1    2    0    0 -0.32304949348E+02 -0.80292528710E+01  0.15186068032E+02  0.13032888874E+03  0.12508766496E+03 0.  0.
         24    2    1    2    0    0  0.21786679535E+02 -0.20121549796E+02  0.27894242330E+03  0.29195174533E+03  0.80916067076E+02 0.  0.
        -13    1    5    5    0    0 -0.19934218449E+02 -0.45603640386E+01  0.18016889758E+02  0.27253959380E+02  0.00000000000E+00 0.  1.
         14    1    5    5    0    0  0.41720897983E+02 -0.15561185757E+02  0.26092553355E+03  0.26469778595E+03  0.00000000000E+00 0. -1.
         13    1    3    3    0    0  0.26901241132E+02  0.49623547693E+02 -0.36311212127E+03  0.36747324512E+03  0.00000000000E+00 0. -1.
        -14    1    3    3    0    0 -0.16382971318E+02 -0.21472745027E+02 -0.96137110060E+02  0.99859022922E+02  0.00000000000E+00 0.  1.
          5    1    4    4  501    0 -0.78870810335E+02 -0.18163276700E+02  0.15380784969E+02  0.82489698082E+02  0.41800000000E+01 0.  1.
         -5    1    4    4    0  501  0.46565860986E+02  0.10134023829E+02 -0.19471693757E+00  0.47839190661E+02  0.41800000000E+01 0.  1.
</event>
<event>
11    1  0.1078607E-008  0.1726197E+03  0.7561462E-02  0.1075774E+00
         22   -1    0    0    0    0  0.00000000000E+00  0.00000000000E+00  0.29803623857E+04  0.29803623857E+04  0.00000000000E+00 0. -1.
         22   -1    0    0    0    0 -0.00000000000E+00 -0.00000000000E+00 -0.27427720398E+03  0.27427720398E+03  0.00000000000E+00 0.  1.
        -24    2    1    2    0    0  0.18419412954E+01 -0.10328708999E+02 -0.21440002371E+03  0.22949265874E+03  0.81175336600E+02 0.  0.
         25    2    1    2    0    0  0.29827276514E+02  0.12468089279E+03  0.10817342523E+03  0.20923002187E+03  0.12506286689E+03 0.  0.
         24    2    1    2    0    0 -0.31669217810E+02 -0.11435218379E+03  0.28123117802E+04  0.28159169090E+04  0.78810712871E+02 0.  0.
        -11    1    5    5    0    0 -0.29524693055E+02 -0.25022348483E+02  0.38030869313E+03  0.38227284430E+03  0.00000000000E+00 0.  1.
         12    1    5    5    0    0 -0.21445247544E+01 -0.89329835306E+02  0.24320030870E+04  0.24336440647E+04  0.00000000000E+00 0. -1.
         11    1    3    3    0    0 -0.18362287122E+01  0.33364346893E+02 -0.56733100867E+02  0.65842206171E+02  0.00000000000E+00 0. -1.
        -12    1    3    3    0    0  0.36781700075E+01 -0.43693055892E+02 -0.15766692284E+03  0.16365045257E+03  0.00000000000E+00 0.  1.
          5    1    4    4  501    0 -0.35598922079E+02  0.63985918212E+02  0.93273241212E+02  0.11865433371E+03  0.41800000000E+01 0. -1.
         -5    1    4    4    0  501  0.65426198593E+02  0.60694974576E+02  0.14900184019E+02  0.90575688156E+02  0.41800000000E+01 0. -1.
</event>
<event>
11    1  0.1078607E-008  0.2575526E+03  0.7561462E-02  0.1019951E+00
         22   -1    0    0    0    0  0.00000000000E+00  0.00000000000E+00  0.11245979020E+04  0.11245979020E+04  0.00000000000E+00 0. -1.
         22   -1    0    0    0    0 -0.00000000000E+00 -0.00000000000E+00 -0.39270473718E+03  0.39270473718E+03  0.00000000000E+00 0. -1.
         24    2    1    2    0    0 -0.73156430107E+02  0.21073802538E+03 -0.26656848087E+03  0.35479966530E+03  0.71145406705E+02 0.  0.
         25    2    1    2    0    0  0.72285323135E+02 -0.22412289010E+03  0.14018359669E+03  0.30125591840E+03  0.12508976689E+03 0.  0.
        -24    2    1    2    0    0  0.87110697189E+00  0.13384864718E+02  0.85827804905E+03  0.86124705553E+03  0.70180964161E+02 0.  0.
        -11    1    3    3    0    0 -0.14794388740E+02  0.14127138213E+03 -0.18103679294E+03  0.23011040338E+03  0.00000000000E+00 0.  1.
         12    1    3    3    0    0 -0.58362041367E+02  0.69466643253E+02 -0.85531687936E+02  0.12468926192E+03  0.00000000000E+00 0. -1.
         11    1    5    5    0    0 -0.64139456522E+01 -0.27067476180E+02  0.46378967512E+03  0.46462312654E+03  0.00000000000E+00 0. -1.
        -12    1    5    5    0    0  0.72850526241E+01  0.40452340898E+02  0.39448837393E+03  0.39662392899E+03  0.00000000000E+00 0.  1.
          5    1    4    4  501    0  0.43404275287E+02 -0.60354825703E+02  0.10900995448E+03  0.13201241864E+03  0.41800000000E+01 0.  1.
         -5    1    4    4    0  501  0.28881047848E+02 -0.16376806440E+03  0.31173642207E+02  0.16924349976E+03  0.41800000000E+01 0.  1.
</event>
<event>
11    1  0.1078607E-008  0.1395692E+03  0.7561462E-02  0.1108040E+00
         22   -1    0    0    0    0  0.00000000000E+00  0.00000000000E+00  0.18994926223E+03  0.18994926223E+03  0.00000000000E+00 0.  1.
         22   -1    0    0    0    0 -0.00000000000E+00 -0.00000000000E+00 -0.74494087254E+03  0.74494087254E+03  0.00000000000E+00 0. -1.
         24    2    1    2    0    0  0.47242748972E+02 -0.34853890553E+02 -0.38417630110E+03  0.39710669140E+03  0.81582001762E+02 0.  0.
         25    2    1    2    0    0 -0.65160261285E+02  0.27214661529E+02 -0.32858868820E+03  0.35861716143E+03  0.12509694244E+03 0.  0.
        -24    2    1    2    0    0  0.17917512313E+02  0.76392290232E+01  0.15777337899E+03  0.17916628194E+03  0.82636084120E+02 0.  0.
        -13    1    3    3    0    0  0.22231495983E+01 -0.22901834570E+02 -0.21628389567E+02  0.31578848239E+02  0.00000000000E+00 0.  1.
         14    1    3    3    0    0  0.45019599374E+02 -0.11952055982E+02 -0.36254791153E+03  0.36552784316E+03  0.00000000000E+00 0. -1.
         11    1    5    5    0    0 -0.30980856534E+02  0.63048521803E+00  0.34550334305E+02  0.46410522340E+02  0.00000000000E+00 0. -1.
        -12    1    5    5    0    0  0.48898368847E+02  0.70087438052E+01  0.12322304469E+03  0.13275575960E+03  0.00000000000E+00 0.  1.
          5    1    4    4  501    0  0.17119640986E+01  0.53323491460E+02 -0.59229461472E+02  0.79824351352E+02  0.41800000000E+01 0. -1.
         -5    1    4    4    0  501 -0.66872225384E+02 -0.26108829931E+02 -0.26935922673E+03  0.27879281008E+03  0.41800000000E+01 0. -1.
</event>
<event>
11    1  0.1078607E-008  0.1655323E+03  0.7561462E-02  0.1081986E+00
         22   -1    0    0    0    0  0.00000000000E+00  0.00000000000E+00  0.10848831919E+03  0.10848831919E+03  0.00000000000E+00 0. -1.
         22   -1    0    0    0    0 -0.00000000000E+00 -0.00000000000E+00 -0.12107418269E+04  0.12107418269E+04  0.00000000000E+00 0. -1.
         24    2    1    2    0    0 -0.16001540294E+02 -0.88573447412E+01 -0.72838088706E+03  0.73297162160E+03  0.79838459350E+02 0.  0.
         25    2    1    2    0    0  0.12151310837E+03  0.24136858407E+02 -0.41135664927E+03  0.44744660541E+03  0.12508456483E+03 0.  0.
        -24    2    1    2    0    0 -0.10551156808E+03 -0.15279513666E+02  0.37484028584E+02  0.13881191910E+03  0.80607331860E+02 0.  0.
        -11    1    3    3    0    0 -0.38045427852E+02 -0.94835292313E+01 -0.18339067485E+03  0.18753541406E+03  0.00000000000E+00 0.  1.
         12    1    3    3    0    0  0.22043887558E+02  0.62618449016E+00 -0.54499021221E+03  0.54543620753E+03  0.00000000000E+00 0. -1.
         11    1    5    5    0    0 -0.12657813804E+02 -0.29048713209E+01  0.43055678278E+02  0.44971657293E+02  0.00000000000E+00 0. -1.
        -12    1    5    5    0    0 -0.92853754276E+02 -0.12374642345E+02 -0.55716496937E+01  0.93840261811E+02  0.00000000000E+00 0.  1.
          5    1    4    4  501    0  0.13701606508E+03  0.42500671514E+02 -0.38792693477E+03  0.41362360703E+03  0.41800000000E+01 0. -1.
         -5    1    4    4    0  501 -0.15502956705E+02 -0.18363813107E+02 -0.23429714497E+02  0.33822998387E+02  0.41800000000E+01 0. -1.
</event>
<event>
11    1  0.1078607E-008  0.1400561E+03  0.7561462E-02  0.1107496E+00
         22   -1    0    0    0    0  0.00000000000E+00  0.00000000000E+00  0.21060258844E+03  0.21060258844E+03  0.00000000000E+00 0. -1.
         22   -1    0    0    0    0 -0.00000000000E+00 -0.00000000000E+00 -0.11779487939E+04  0.11779487939E+04  0.00000000000E+00 0. -1.
         24    2    1    2    0    0  0.14087051233E+02  0.22964157781E+02 -0.10478463670E+04  0.10512846447E+04  0.80570452229E+02 0.  0.
         25    2    1    2    0    0 -0.12170464322E+00  0.41765760549E+02 -0.73176621836E+02  0.15082341805E+03  0.12509393224E+03 0.  0.
        -24    2    1    2    0    0 -0.13965346589E+02 -0.64729918330E+02  0.15367678343E+03  0.18644331954E+03  0.82216570131E+02 0.  0.
        -13    1    3    3    0    0  0.10656710144E+01 -0.20913073640E+02 -0.92417158752E+02  0.94759820259E+02  0.00000000000E+00 0.  1.
         14    1    3    3    0    0  0.13021380218E+02  0.43877231421E+02 -0.95542920826E+03  0.95652482444E+03  0.00000000000E+00 0. -1.
         13    1    5    5    0    0  0.11520098592E+02 -0.58976231836E+02  0.14796213729E+03  0.15969878730E+03  0.00000000000E+00 0. -1.
        -14    1    5    5    0    0 -0.25485445182E+02 -0.57536864940E+01  0.57146461391E+01  0.26744532243E+02  0.00000000000E+00 0.  1.
          5    1    4    4  501    0 -0.21043023586E+02  0.63809152978E+02  0.43382161181E+01  0.67458945771E+02  0.41800000000E+01 0.  1.
         -5    1    4    4    0  501  0.20921318943E+02 -0.22043392429E+02 -0.77514837954E+02  0.83364472284E+02  0.41800000000E+01 0.  1.
</event>
<event>
11    1  0.1078607E-008  0.1376847E+03  0.7561462E-02  0.1110172E+00
         22   -1    0    0    0    0  0.00000000000E+00  0.00000000000E+00  0.19003858504E+04  0.19003858504E+04  0.00000000000E+00 0.  1.
         22   -1    0    0    0    0 -0.00000000000E+00 -0.00000000000E+00 -0.22966726576E+03  0.22966726576E+03  0.00000000000E+00 0.  1.
         24    2    1    2    0    0  0.13179333347E+02  0.57664890677E+02 -0.18657761026E+03  0.21136307142E+03  0.79775991775E+02 0.  0.
         25    2    1    2    0    0 -0.10807670095E+02 -0.37091866892E+02  0.11458887312E+03  0.17398651175E+03  0.12509230234E+03 0.  0.
        -24    2    1    2    0    0 -0.23716632516E+01 -0.20573023785E+02  0.17427073218E+04  0.17447035330E+04  0.80825333248E+02 0.  0.
        -11    1    3    3    0    0 -0.26353200795E+01  0.47083186439E+02 -0.18646384881E+03  0.19233444380E+03  0.00000000000E+00 0.  1.
         12    1    3    3    0    0  0.15814653427E+02  0.10581704238E+02 -0.11376145457E+00  0.19028627624E+02  0.00000000000E+00 0. -1.
         11    1    5    5    0    0 -0.19629026505E+02  0.21825129454E+02  0.34489372869E+03  0.34614060589E+03  0.00000000000E+00 0. -1.
        -12    1    5    5    0    0  0.17257363253E+02 -0.42398153239E+02  0.13978135931E+04  0.13985629271E+04  0.00000000000E+00 0.  1.
          5    1    4    4  501    0  0.25367267935E+02 -0.56700349635E+02  0.12038507514E+02  0.63409983397E+02  0.41800000000E+01 0. -1.
         -5    1    4    4    0  501 -0.36174938030E+02  0.19608482743E+02  0.10255036560E+03  0.11057652835E+03  0.41800000000E+01 0. -1.
</event>
<event>
11    1  0.1078607E-008  0.1508815E+03  0.7561462E-02  0.1095981E+00
         22   -1    0    0    0    0  0.00000000000E+00  0.00000000000E+00  0.15689446319E+03  0.15689446319E+03  0.00000000000E+00 0.  1.
         22   -1    0    0    0    0 -0.00000000000E+00 -0.00000000000E+00 -0.98382517380E+03  0.98382517380E+03  0.00000000000E+00 0.  1.
         24    2    1    2    0    0 -0.82609281714E+02  0.19598746363E+02 -0.87755381214E+03  0.88522323630E+03  0.79442309936E+02 0.  0.
         25    2    1    2    0    0  0.70643557187E+02 -0.23652959370E+02  0.64038122577E+01  0.14572130630E+03  0.12507484015E+03 0.  0.
        -24    2    1    2    0    0  0.11965724528E+02  0.40542130075E+01  0.44219289276E+02  0.10977509439E+03  0.99677533060E+02 0.  0.
        -13    1    3    3    0    0 -0.60657698820E+02  0.14146575678E+01 -0.80481045026E+03  0.80709430585E+03  0.00000000000E+00 0.  1.
         14    1    3    3    0    0 -0.21951582894E+02  0.18184088795E+02 -0.72743361872E+02  0.78128930451E+02  0.00000000000E+00 0. -1.
         11    1    5    5    0    0 -0.16769634004E+01 -0.20100913039E+02 -0.26792711122E+02  0.33536670683E+02  0.00000000000E+00 0. -1.
        -12    1    5    5    0    0  0.13642687928E+02  0.24155126047E+02  0.71012000398E+02  0.76238423703E+02  0.00000000000E+00 0.  1.
          5    1    4    4  501    0  0.54025946841E+02 -0.65923981879E+02 -0.26640062439E+02  0.89397648993E+02  0.41800000000E+01 0. -1.
         -5    1    4    4    0  501  0.16617610346E+02  0.42271022508E+02  0.33043874697E+02  0.56323657307E+02  0.41800000000E+01 0. -1.
</event>
<event>
11    1  0.1078607E-008  0.1568421E+03  0.7561462E-02  0.1090086E+00
         22   -1    0    0    0    0  0.00000000000E+00  0.00000000000E+00  0.22818117971E+04  0.22818117971E+04  0.00000000000E+00 0. -1.
         22   -1    0    0    0    0 -0.00000000000E+00 -0.00000000000E+00 -0.79458199820E+03  0.79458199820E+03  0.00000000000E+00 0. -1.
         24    2    1    2    0    0 -0.25068609441E+01 -0.69024860169E+02 -0.65955003993E+03  0.66794613540E+03  0.79844028901E+02 0.  0.
         25    2    1    2    0    0 -0.88636750178E+02  0.93602059766E+02 -0.66593806442E+02  0.19157422496E+03  0.12509248394E+03 0.  0.
        -24    2    1    2    0    0  0.91143611122E+02 -0.24577199596E+02  0.22133736452E+04  0.22168734349E+04  0.81201824698E+02 0.  0.
        -11    1    3    3    0    0  0.22016233283E+02 -0.14536510859E+00 -0.59222216105E+02  0.63182327746E+02  0.00000000000E+00 0.  1.
         12    1    3    3    0    0 -0.24523094227E+02 -0.68879495061E+02 -0.60032782383E+03  0.60476380766E+03  0.00000000000E+00 0. -1.
         11    1    5    5    0    0  0.95044022173E+02  0.23984210016E+00  0.14660314403E+04  0.14691091204E+04  0.00000000000E+00 0. -1.
        -12    1    5    5    0    0 -0.39004110510E+01 -0.24817041696E+02  0.74734220498E+03  0.74776431455E+03  0.00000000000E+00 0.  1.
          5    1    4    4  501    0 -0.23419477156E+02  0.89804395843E+02  0.68954021542E+01  0.93157503153E+02  0.41800000000E+01 0.  1.
         -5    1    4    4    0  501 -0.65217273022E+02  0.37976639230E+01 -0.73489208596E+02  0.98416721810E+02  0.41800000000E+01 0.  1.
</event>
<event>
11    1  0.1078607E-008  0.2047669E+03  0.7561462E-02  0.1051203E+00
         22   -1    0    0    0    0  0.00000000000E+00  0.00000000000E+00  0.16785795322E+04  0.16785795322E+04  0.00000000000E+00 0. -1.
         22   -1    0    0    0    0 -0.00000000000E+00 -0.00000000000E+00 -0.16403903444E+04  0.16403903444E+04  0.00000000000E+00 0.  1.
        -24    2    1    2    0    0  0.12513238115E+02 -0.27953644212E+02 -0.13372289808E+04  0.13399520101E+04  0.79699779735E+02 0.  0.
         25    2    1    2    0    0  0.14670938108E+03 -0.40577518424E+01 -0.26548593006E+03  0.32813262867E+03  0.12509250615E+03 0.  0.
         24    2    1    2    0    0 -0.15922261919E+03  0.32011396055E+02  0.16409040987E+04  0.16508852379E+04  0.80493699043E+02 0.  0.
        -11    1    5    5    0    0 -0.55291742007E+02 -0.22407249093E+02  0.73482894484E+03  0.73724679702E+03  0.00000000000E+00 0.  1.
         12    1    5    5    0    0 -0.10393087719E+03  0.54418645148E+02  0.90607515384E+03  0.91363844084E+03  0.00000000000E+00 0. -1.
         13    1    3    3    0    0 -0.10565409426E+01 -0.18062718626E+02 -0.61349006723E+02  0.63961540857E+02  0.00000000000E+00 0. -1.
        -14    1    3    3    0    0  0.13569779058E+02 -0.98909255867E+01 -0.12758799741E+04  0.12759904693E+04  0.00000000000E+00 0.  1.
          5    1    4    4  501    0  0.39238957078E+02  0.23562333116E+02 -0.65926880318E+01  0.46430757370E+02  0.41800000000E+01 0. -1.
         -5    1    4    4    0  501  0.10747042400E+03 -0.27620084959E+02 -0.25889324203E+03  0.28170187130E+03  0.41800000000E+01 0. -1.
</event>
<event>
11    1  0.1078607E-008  0.1290411E+03  0.7561462E-02  0.1120453E+00
         22   -1    0    0    0    0  0.00000000000E+00  0.00000000000E+00  0.52612678772E+03  0.52612678772E+03  0.00000000000E+00 0.  1.
         22   -1    0    0    0    0 -0.00000000000E+00 -0.00000000000E+00 -0.26979260237E+04  0.26979260237E+04  0.00000000000E+00 0. -1.
        -24    2    1    2    0    0 -0.17626547897E+02  0.94179641043E+01 -0.17235625516E+04  0.17256205165E+04  0.81846834199E+02 0.  0.
         25    2    1    2    0    0 -0.95196525973E+01  0.70713954968E+01 -0.96572721918E+03  0.97386707114E+03  0.12508949580E+03 0.  0.
         24    2    1    2    0    0  0.27146200494E+02 -0.16489359601E+02  0.51749053483E+03  0.52456522380E+03  0.79770954589E+02 0.  0.
        -13    1    5    5    0    0  0.49201853810E+02 -0.17257128862E+02  0.46063807198E+03  0.46357962021E+03  0.00000000000E+00 0.  1.
         14    1    5    5    0    0 -0.22055653316E+02  0.76776926063E+00  0.56852462850E+02  0.60985603587E+02  0.00000000000E+00 0. -1.
         13    1    3    3    0    0 -0.49848502237E+01 -0.84488749390E+01 -0.16064717212E+04  0.16065016724E+04  0.00000000000E+00 0. -1.
        -14    1    3    3    0    0 -0.12641697673E+02  0.17866839043E+02 -0.11709083039E+03  0.11911884410E+03  0.00000000000E+00 0.  1.
          5    1    4    4  501    0  0.56554831248E+02  0.13271570514E+02 -0.39291293280E+03  0.39720602800E+03  0.41800000000E+01 0. -1.
         -5    1    4    4    0  501 -0.66074483846E+02 -0.62001750171E+01 -0.57281428638E+03  0.57666104313E+03  0.41800000000E+01 0. -1.
</event>
<event>
11    1  0.1078607E-008  0.2266944E+03  0.7561462E-02  0.1037103E+00
         22   -1    0    0    0    0  0.00000000000E+00  0.00000000000E+00  0.16875110743E+04  0.16875110743E+04  0.00000000000E+00 0.  1.
         22   -1    0    0    0    0 -0.00000000000E+00 -0.00000000000E+00 -0.18762157336E+03  0.18762157336E+03  0.00000000000E+00 0.  1.
        -24    2    1    2    0    0  0.79403480479E+02  0.13684718741E+03 -0.12332998420E+02  0.17826143341E+03  0.81197108170E+02 0.  0.
         25    2    1    2    0    0 -0.16032038073E+03 -0.29308308138E+03  0.29106855466E+03  0.46040141761E+03  0.12509294448E+03 0.  0.
         24    2    1    2    0    0  0.80916900249E+02  0.15623589396E+03  0.12211539447E+04  0.12364697966E+04  0.81752076672E+02 0.  0.
        -11    1    5    5    0    0  0.57302803561E+02  0.11818488324E+03  0.10899151760E+04  0.10978006963E+04  0.00000000000E+00 0.  1.
         12    1    5    5    0    0  0.23614096687E+02  0.38051010721E+02  0.13123876870E+03  0.13866910034E+03  0.00000000000E+00 0. -1.
         13    1    3    3    0    0  0.49693946266E+02  0.40611596160E+02  0.27672905292E+02  0.69889768389E+02  0.00000000000E+00 0. -1.
        -14    1    3    3    0    0  0.29709534213E+02  0.96235591252E+02 -0.40005903712E+02  0.10837166502E+03  0.00000000000E+00 0.  1.
          5    1    4    4  501    0 -0.12580535341E+03 -0.17217858755E+03  0.24875492089E+03  0.32767199457E+03  0.41800000000E+01 0.  1.
         -5    1    4    4    0  501 -0.34515027314E+02 -0.12090449382E+03  0.42313633769E+02  0.13272942304E+03  0.41800000000E+01 0.  1.
</event>
<event>
11    1  0.1078607E-008  0.1453443E+03  0.7561462E-02  0.1101733E+00
         22   -1    0    0    0    0  0.00000000000E+00  0.00000000000E+00  0.11109599190E+04  0.11109599190E+04  0.00000000000E+00 0. -1.
         22   -1    0    0    0    0 -0.00000000000E+00 -0.00000000000E+00 -0.10501214896E+03  0.10501214896E+03  0.00000000000E+00 0. -1.
         24    2    1    2    0    0  0.60371893247E+02 -0.35895961962E+02 -0.50062808756E+02  0.11753527412E+03  0.79843410883E+02 0.  0.
         25    2    1    2    0    0 -0.12473210145E+03  0.52859761397E+02  0.51200768495E+03  0.54418754236E+03  0.12504383354E+03 0.  0.
        -24    2    1    2    0    0  0.64360208208E+02 -0.16963799435E+02  0.54400289389E+03  0.55424925154E+03  0.82601921125E+02 0.  0.
        -11    1    3    3    0    0  0.11340736958E+00  0.21850564646E+02 -0.17314642071E+02  0.27879326868E+02  0.00000000000E+00 0.  1.
         12    1    3    3    0    0  0.60258485877E+02 -0.57746526608E+02 -0.32748166685E+02  0.89655947247E+02  0.00000000000E+00 0. -1.
         11    1    5    5    0    0  0.67354620103E+02 -0.40766247659E+02  0.46718500846E+03  0.47377248118E+03  0.00000000000E+00 0. -1.
        -12    1    5    5    0    0 -0.29944118944E+01  0.23802448225E+02  0.76817885435E+02  0.80476770355E+02  0.00000000000E+00 0.  1.
          5    1    4    4  501    0 -0.85894447057E+01 -0.23632919574E+02  0.21154181983E+03  0.21307207087E+03  0.41800000000E+01 0.  1.
         -5    1    4    4    0  501 -0.11614265675E+03  0.76492680971E+02  0.30046586512E+03  0.33111547149E+03  0.41800000000E+01 0.  1.
</event>
<event>
11    1  0.1078607E-008  0.1459967E+03  0.7561462E-02  0.1101041E+00
         22   -1    0    0    0    0  0.00000000000E+00  0.00000000000E+00  0.11750440884E+04  0.11750440884E+04  0.00000000000E+00 0. -1.
         22   -1    0    0    0    0 -0.00000000000E+00 -0.00000000000E+00 -0.77045611196E+02  0.77045611196E+02  0.00000000000E+00 0. -1.
        -24    2    1    2    0    0  0.39570238706E+01 -0.31144024737E+02 -0.23621592571E+02  0.89462346612E+02  0.80373649357E+02 0.  0.
         25    2    1    2    0    0 -0.60371913019E+02 -0.23493493176E+02  0.27830875075E+03  0.31192983180E+03  0.12509095539E+03 0.  0.
         24    2    1    2    0    0  0.56414889149E+02  0.54637517914E+02  0.84331131901E+03  0.85069752117E+03  0.79651702243E+02 0.  0.
        -13    1    5    5    0    0  0.62991201547E+02  0.31354143628E+02  0.36179382940E+03  0.36857258279E+03  0.00000000000E+00 0.  1.
         14    1    5    5    0    0 -0.65763123978E+01  0.23283374285E+02  0.48151748961E+03  0.48212493838E+03  0.00000000000E+00 0. -1.
         13    1    3    3    0    0 -0.86414476003E+01 -0.11620558051E+02 -0.51311096227E+02  0.53315481636E+02  0.00000000000E+00 0. -1.
        -14    1    3    3    0    0  0.12598471471E+02 -0.19523466687E+02  0.27689503656E+02  0.36146864976E+02  0.00000000000E+00 0.  1.
          5    1    4    4  501    0  0.92947707217E+00 -0.60501346694E+02  0.18203335681E+03  0.19187207267E+03  0.41800000000E+01 0. -1.
         -5    1    4    4    0  501 -0.61301390092E+02  0.37007853518E+02  0.96275393946E+02  0.12005775914E+03  0.41800000000E+01 0. -1.
</event>
<event>
11    1  0.1528274E-008  0.1546229E+03  0.7561462E-02  0.1092246E+00
         22   -1    0    0    0    0  0.00000000000E+00  0.00000000000E+00  0.10809353073E+04  0.10809353073E+04  0.00000000000E+00 0.  1.
         22   -1    0    0    0    0 -0.00000000000E+00 -0.00000000000E+00 -0.71147889665E+03  0.71147889665E+03  0.00000000000E+00 0. -1.
         24    2    1    2    0    0 -0.71780789107E+02  0.24109471188E+02 -0.53852540744E+03  0.54979920160E+03  0.80844290705E+02 0.  0.
         25    2    1    2    0    0  0.55400258656E+02  0.66093831816E+02 -0.12837183587E+03  0.19890871527E+03  0.12509102887E+03 0.  0.
        -24    2    1    2    0    0  0.16380530451E+02 -0.90203303003E+02  0.10363536539E+04  0.10437062870E+04  0.82999758725E+02 0.  0.
        -11    1    3    3    0    0 -0.32231261789E+02  0.49279271238E+02 -0.21590852479E+03  0.22379408367E+03  0.00000000000E+00 0.  1.
         12    1    3    3    0    0 -0.39549527319E+02 -0.25169800051E+02 -0.32261688265E+03  0.32600511793E+03  0.00000000000E+00 0. -1.
         11    1    5    5    0    0 -0.95753071371E+01  0.96182773070E+01  0.45012020016E+02  0.47013611976E+02  0.00000000000E+00 0. -1.
        -12    1    5    5    0    0  0.25955837588E+02 -0.99821580310E+02  0.99134163391E+03  0.99669267506E+03  0.00000000000E+00 0.  1.
          5    1    4    4  501    0  0.35770797008E+02  0.54143347305E+02 -0.15221952596E+03  0.16552736468E+03  0.41800000000E+01 0.  1.
         -5    1    4    4    0  501  0.19629461648E+02  0.11950484511E+02  0.23847690088E+02  0.33381350590E+02  0.41800000000E+01 0.  1.
</event>
<event>
11    1  0.1078607E-008  0.1771502E+03  0.7561462E-02  0.1071972E+00
         22   -1    0    0    0    0  0.00000000000E+00  0.00000000000E+00  0.11164126690E+04  0.11164126690E+04  0.00000000000E+00 0.  1.
         22   -1    0    0    0    0 -0.00000000000E+00 -0.00000000000E+00 -0.15324615825E+04  0.15324615825E+04  0.00000000000E+00 0.  1.
        -24    2    1    2    0    0  0.21195871482E+02 -0.13576470870E+03 -0.12727881578E+04  0.12827358811E+04  0.80872276397E+02 0.  0.
         25    2    1    2    0    0  0.24456695266E+02  0.76314209768E+02 -0.22928229118E+03  0.27320323101E+03  0.12509055852E+03 0.  0.
         24    2    1    2    0    0 -0.45652566749E+02  0.59450498935E+02  0.10860215355E+04  0.10929351394E+04  0.97190146264E+02 0.  0.
        -13    1    5    5    0    0 -0.33626747576E+02  0.20450686654E+02  0.95256684380E+03  0.95337955749E+03  0.00000000000E+00 0.  1.
         14    1    5    5    0    0 -0.12025819173E+02  0.38999812280E+02  0.13345469173E+03  0.13955558186E+03  0.00000000000E+00 0. -1.
         13    1    3    3    0    0 -0.12307675701E+02 -0.23263576978E+02 -0.53687344161E+03  0.53751815337E+03  0.00000000000E+00 0. -1.
        -14    1    3    3    0    0  0.33503547183E+02 -0.11250113172E+03 -0.73591471617E+03  0.74521772778E+03  0.00000000000E+00 0.  1.
          5    1    4    4  501    0 -0.50399076323E+02  0.20867207831E+02 -0.96887049858E+02  0.11126580826E+03  0.41800000000E+01 0.  1.
         -5    1    4    4    0  501  0.74855771590E+02  0.55447001937E+02 -0.13239524132E+03  0.16193742275E+03  0.41800000000E+01 0.  1.
</event>
<event>
11    1  0.1078607E-008  0.1348085E+03  0.7561462E-02  0.1113498E+00
         22   -1    0    0    0    0  0.00000000000E+00  0.00000000000E+00  0.46071130738E+03  0.46071130738E+03  0.00000000000E+00 0.  1.
         22   -1    0    0    0    0 -0.00000000000E+00 -0.00000000000E+00 -0.21137774608E+03  0.21137774608E+03  0.00000000000E+00 0. -1.
         24    2    1    2    0    0 -0.37287012884E+02  0.14475306346E+02 -0.10906424493E+03  0.14113094574E+03  0.80144110822E+02 0.  0.
         25    2    1    2    0    0  0.44526652105E+02  0.35817416062E+02 -0.21710906667E+02  0.13922251111E+03  0.12508410806E+03 0.  0.
        -24    2    1    2    0    0 -0.72396392209E+01 -0.50292722408E+02  0.38010871289E+03  0.39173559662E+03  0.79952321652E+02 0.  0.
        -13    1    3    3    0    0  0.76878376583E+01  0.36459768206E+02 -0.62487366066E+02  0.72753614779E+02  0.00000000000E+00 0.  1.
         14    1    3    3    0    0 -0.44974850542E+02 -0.21984461860E+02 -0.46576878862E+02  0.68377330959E+02  0.00000000000E+00 0. -1.
         11    1    5    5    0    0 -0.37255299437E+02 -0.20628569833E+02  0.10337858976E+03  0.11180620757E+03  0.00000000000E+00 0. -1.
        -12    1    5    5    0    0  0.30015660216E+02 -0.29664152575E+02  0.27673012313E+03  0.27992938905E+03  0.00000000000E+00 0.  1.
          5    1    4    4  501    0  0.51976273539E+02 -0.25121088382E+02 -0.45117225932E+02  0.73386910061E+02  0.41800000000E+01 0.  1.
         -5    1    4    4    0  501 -0.74496214338E+01  0.60938504444E+02  0.23406319265E+02  0.65835601045E+02  0.41800000000E+01 0.  1.
</event>
<event>
11    1  0.1078607E-008  0.1257927E+03  0.7561462E-02  0.1124549E+00
         22   -1    0    0    0    0  0.00000000000E+00  0.00000000000E+00  0.44504251925E+03  0.44504251925E+03  0.00000000000E+00 0. -1.
         22   -1    0    0    0    0 -0.00000000000E+00 -0.00000000000E+00 -0.33490057060E+03  0.33490057060E+03  0.00000000000E+00 0.  1.
         24    2    1    2    0    0  0.50138812629E+02  0.28322868183E+02 -0.29356968183E+03  0.30983900683E+03  0.80628572291E+02 0.  0.
         25    2    1    2    0    0 -0.35412300922E+02 -0.49674735230E+01  0.21816654556E+03  0.25401373383E+03  0.12509048134E+03 0.  0.
        -24    2    1    2    0    0 -0.14726511707E+02 -0.23355394660E+02  0.18554508492E+03  0.21609034919E+03  0.10726470002E+03 0.  0.
        -13    1    3    3    0    0  0.23154493844E+02  0.55232078692E+02 -0.20098688841E+03  0.20971991420E+03  0.00000000000E+00 0.  1.
         14    1    3    3    0    0  0.26984318784E+02 -0.26909210508E+02 -0.92582793418E+02  0.10011909262E+03  0.00000000000E+00 0. -1.
         11    1    5    5    0    0  0.35519844734E+02 -0.17170259702E+02  0.14771213164E+03  0.15288999648E+03  0.00000000000E+00 0. -1.
        -12    1    5    5    0    0 -0.50246356440E+02 -0.61851349586E+01  0.37832953278E+02  0.63200352718E+02  0.00000000000E+00 0.  1.
          5    1    4    4  501    0 -0.39736847357E+02 -0.25138093776E+02  0.22650659851E+03  0.23137340462E+03  0.41800000000E+01 0. -1.
         -5    1    4    4    0  501  0.43245464348E+01  0.20170620253E+02 -0.83400529525E+01  0.22640329205E+02  0.41800000000E+01 0. -1.
</event>
<event>
11    1  0.1078607E-008  0.2057467E+03  0.7561462E-02  0.1050533E+00
         22   -1    0    0    0    0  0.00000000000E+00  0.00000000000E+00  0.15019098650E+04  0.15019098650E+04  0.00000000000E+00 0. -1.
         22   -1    0    0    0    0 -0.00000000000E+00 -0.00000000000E+00 -0.16032278524E+03  0.16032278524E+03  0.00000000000E+00 0. -1.
         24    2    1    2    0    0  0.24879284516E+02  0.69112403978E+01 -0.54112408511E+02  0.98267148766E+02  0.77855865096E+02 0.  0.
         25    2    1    2    0    0  0.92695785700E+02  0.10888463324E+03  0.37947321498E+02  0.19374224843E+03  0.12509071738E+03 0.  0.
        -24    2    1    2    0    0 -0.11757507022E+03 -0.11579587364E+03  0.13577521667E+04  0.13702232530E+04  0.82390747829E+02 0.  0.
        -11    1    3    3    0    0  0.40615829447E+02  0.12521276553E+02 -0.91915941627E+00  0.42512031500E+02  0.00000000000E+00 0.  1.
         12    1    3    3    0    0 -0.15736544931E+02 -0.56100361557E+01 -0.53193249095E+02  0.55755117266E+02  0.00000000000E+00 0. -1.
         13    1    5    5    0    0 -0.10709429165E+03 -0.67389761157E+02  0.76382411437E+03  0.77423371466E+03  0.00000000000E+00 0. -1.
        -14    1    5    5    0    0 -0.10480778568E+02 -0.48406112481E+02  0.59392805235E+03  0.59598953835E+03  0.00000000000E+00 0.  1.
          5    1    4    4  501    0 -0.21288837955E+02  0.36318004203E+02  0.40449557322E+02  0.58530770868E+02  0.41800000000E+01 0. -1.
         -5    1    4    4    0  501  0.11398462365E+03  0.72566629036E+02 -0.25022358244E+01  0.13521147756E+03  0.41800000000E+01 0. -1.
</event>
<event>
11    1  0.1078607E-008  0.2857455E+03  0.7561462E-02  0.1006411E+00
         22   -1    0    0    0    0  0.00000000000E+00  0.00000000000E+00  0.11617925627E+03  0.11617925627E+03  0.00000000000E+00 0.  1.
         22   -1    0    0    0    0 -0.00000000000E+00 -0.00000000000E+00 -0.16395921985E+04  0.16395921985E+04  0.00000000000E+00 0.  1.
        -24    2    1    2    0    0 -0.79044221452E+02  0.14211461803E+03 -0.56899336793E+03  0.59745375135E+03  0.82176509118E+02 0.  0.
         25    2    1    2    0    0 -0.89541764497E+02 -0.31650334498E+03 -0.75971209480E+03  0.83725884764E+03  0.12509123069E+03 0.  0.
         24    2    1    2    0    0  0.16858598595E+03  0.17438872695E+03 -0.19470747951E+03  0.32105885580E+03  0.79593489452E+02 0.  0.
        -11    1    5    5    0    0  0.74005978747E+02  0.26415943467E+02 -0.74170980259E+02  0.10805563971E+03  0.00000000000E+00 0.  1.
         12    1    5    5    0    0  0.94580007202E+02  0.14797278348E+03 -0.12053649925E+03  0.21300321609E+03  0.00000000000E+00 0. -1.
         13    1    3    3    0    0 -0.20459644933E+02  0.28837052523E+02 -0.27129185091E+03  0.27358625886E+03  0.00000000000E+00 0. -1.
        -14    1    3    3    0    0 -0.58584576519E+02  0.11327756551E+03 -0.29770151702E+03  0.32386749248E+03  0.00000000000E+00 0.  1.
          5    1    4    4  501    0 -0.93454801647E+02 -0.10663997063E+03 -0.31668726466E+03  0.34700746287E+03  0.41800000000E+01 0.  1.
         -5    1    4    4    0  501  0.39130371496E+01 -0.20986337435E+03 -0.44302483014E+03  0.49025138477E+03  0.41800000000E+01 0.  1.
</event>
<event>
11    1  0.1078607E-008  0.1290056E+03  0.7561462E-02  0.1120497E+00
         22   -1    0    0    0    0  0.00000000000E+00  0.00000000000E+00  0.14886124988E+03  0.14886124988E+03  0.00000000000E+00 0.  1.
         22   -1    0    0    0    0 -0.00000000000E+00 -0.00000000000E+00 -0.90024331115E+03  0.90024331115E+03  0.00000000000E+00 0.  1.
         24    2    1    2    0    0  0.17401564319E+01  0.80510157477E+01 -0.75969900451E+03  0.76397558212E+03  0.80301093488E+02 0.  0.
         25    2    1    2    0    0 -0.14471799627E+02  0.21771773976E+02 -0.84041128246E+02  0.15296595649E+03  0.12510887051E+03 0.  0.
        -24    2    1    2    0    0  0.12731643195E+02 -0.29822789724E+02  0.92358071481E+02  0.13216302242E+03  0.88800662177E+02 0.  0.
        -11    1    3    3    0    0 -0.76717958569E+01 -0.13935253671E+02 -0.69188532836E+03  0.69206817247E+03  0.00000000000E+00 0.  1.
         12    1    3    3    0    0  0.94119522888E+01  0.21986269419E+02 -0.67813676155E+02  0.71907409650E+02  0.00000000000E+00 0. -1.
         11    1    5    5    0    0  0.28396455083E+02  0.20760875998E+02  0.14598783059E+02  0.38085392217E+02  0.00000000000E+00 0. -1.
        -12    1    5    5    0    0 -0.15664811888E+02 -0.50583665722E+02  0.77759288422E+02  0.94077630206E+02  0.00000000000E+00 0.  1.
          5    1    4    4  501    0 -0.50738643947E+02  0.21959801601E+02  0.60356401548E+01  0.55772253209E+02  0.41800000000E+01 0.  1.
         -5    1    4    4    0  501  0.36266844320E+02 -0.18802762540E+00 -0.90076768400E+02  0.97193703277E+02  0.41800000000E+01 0.  1.
</event>
<event>
11    1  0.1078607E-008  0.1637938E+03  0.7561462E-02  0.1083562E+00
         22   -1    0    0    0    0  0.00000000000E+00  0.00000000000E+00  0.10179118276E+04  0.10179118276E+04  0.00000000000E+00 0. -1.
         22   -1    0    0    0    0 -0.00000000000E+00 -0.00000000000E+00 -0.37607544819E+03  0.37607544819E+03  0.00000000000E+00 0.  1.
         24    2    1    2    0    0  0.10714911185E+03 -0.10022029900E+02 -0.30742312427E+03  0.33567080631E+03  0.81145176209E+02 0.  0.
         25    2    1    2    0    0 -0.84890570248E+02  0.47547965584E+02  0.68153194301E+02  0.17251130810E+03  0.12509226827E+03 0.  0.
        -24    2    1    2    0    0 -0.22258541601E+02 -0.37525935684E+02  0.88110630938E+03  0.88580516139E+03  0.79992605865E+02 0.  0.
        -13    1    3    3    0    0  0.11916024357E+03 -0.10282037520E+02 -0.29530717532E+03  0.31860824179E+03  0.00000000000E+00 0.  1.
         14    1    3    3    0    0 -0.12011131717E+02  0.26000761945E+00 -0.12115948948E+02  0.17062564520E+02  0.00000000000E+00 0. -1.
         13    1    5    5    0    0  0.47241147262E+01 -0.31939553737E+02  0.78912418093E+03  0.78978441696E+03  0.00000000000E+00 0. -1.
        -14    1    5    5    0    0 -0.26982656327E+02 -0.55863819468E+01  0.91982128453E+02  0.96020744428E+02  0.00000000000E+00 0.  1.
          5    1    4    4  501    0  0.23104763461E+02  0.18148873974E+02  0.51274497554E+02  0.59243212443E+02  0.41800000000E+01 0. -1.
         -5    1    4    4    0  501 -0.10799533371E+03  0.29399091610E+02  0.16878696747E+02  0.11326809566E+03  0.41800000000E+01 0. -1.
</event>
<event>
11    1  0.1078607E-008  0.3786433E+03  0.7561462E-02  0.9714962E-01
         22   -1    0    0    0    0  0.00000000000E+00  0.00000000000E+00  0.14831567462E+04  0.14831567462E+04  0.00000000000E+00 0.  1.
         22   -1    0    0    0    0 -0.00000000000E+00 -0.00000000000E+00 -0.29387861933E+03  0.29387861933E+03  0.00000000000E+00 0.  1.
        -24    2    1    2    0    0  0.22061499615E+03  0.27391284857E+03 -0.27279343297E+02  0.36189182792E+03  0.80760803645E+02 0.  0.
         25    2    1    2    0    0 -0.31729484726E+03 -0.21616566693E+03  0.34367286408E+03  0.53024723275E+03  0.12508986641E+03 0.  0.
         24    2    1    2    0    0  0.96679851107E+02 -0.57747181648E+02  0.87288460605E+03  0.88489630483E+03  0.91827034311E+02 0.  0.
        -13    1    5    5    0    0  0.63128719696E+01 -0.38197796677E+02  0.11388249408E+03  0.12028360853E+03  0.00000000000E+00 0.  1.
         14    1    5    5    0    0  0.90366979137E+02 -0.19549384972E+02  0.75900211197E+03  0.76461269630E+03  0.00000000000E+00 0. -1.
         13    1    3    3    0    0  0.17392655225E+03  0.17026719457E+03 -0.42901072671E+02  0.24714745631E+03  0.00000000000E+00 0. -1.
        -14    1    3    3    0    0  0.46688443898E+02  0.10364565400E+03  0.15621729374E+02  0.11474437161E+03  0.00000000000E+00 0.  1.
          5    1    4    4  501    0 -0.28501152009E+03 -0.14808592379E+03  0.31390261457E+03  0.44912507305E+03  0.41800000000E+01 0. -1.
         -5    1    4    4    0  501 -0.32283327169E+02 -0.68079743136E+02  0.29770249512E+02  0.81122159701E+02  0.41800000000E+01 0. -1.
</event>
<event>
11    1  0.1078607E-008  0.1721823E+03  0.7561462E-02  0.1076148E+00
         22   -1    0    0    0    0  0.00000000000E+00  0.00000000000E+00  0.93657421151E+03  0.93657421151E+03  0.00000000000E+00 0.  1.
         22   -1    0    0    0    0 -0.00000000000E+00 -0.00000000000E+00 -0.44543542127E+03  0.44543542127E+03  0.00000000000E+00 0.  1.
        -24    2    1    2    0    0  0.23894333798E+01 -0.19791235861E+01 -0.39379564238E+03  0.40189683206E+03  0.80227360306E+02 0.  0.
         25    2    1    2    0    0 -0.10324457583E+03 -0.59607227041E+02  0.14253799467E+03  0.22400252301E+03  0.12509031311E+03 0.  0.
         24    2    1    2    0    0  0.10085514245E+03  0.61586350627E+02  0.74239643794E+03  0.75611027772E+03  0.81151972632E+02 0.  0.
        -11    1    5    5    0    0  0.96119705402E+02  0.62557858864E+02  0.74247061095E+03  0.75127564289E+03  0.00000000000E+00 0.  1.
         12    1    5    5    0    0  0.47354370474E+01 -0.97150823665E+00 -0.74173011764E-01  0.48346348279E+01  0.00000000000E+00 0. -1.
         13    1    3    3    0    0 -0.34820342884E+02 -0.14010839723E+02 -0.13334822490E+03  0.13852981265E+03  0.00000000000E+00 0. -1.
        -14    1    3    3    0    0  0.37209776264E+02  0.12031716137E+02 -0.26044741747E+03  0.26336701941E+03  0.00000000000E+00 0.  1.
          5    1    4    4  501    0 -0.10692239729E+03  0.28035870837E+01  0.10966027810E+03  0.15324199208E+03  0.41800000000E+01 0.  1.
         -5    1    4    4    0  501  0.36778214618E+01 -0.62410814125E+02  0.32877716571E+02  0.70760530929E+02  0.41800000000E+01 0.  1.
</event>
<event>
11    1  0.1078607E-008  0.1318629E+03  0.7561462E-02  0.1117001E+00
         22   -1    0    0    0    0  0.00000000000E+00  0.00000000000E+00  0.56457951726E+03  0.56457951726E+03  0.00000000000E+00 0. -1.
         22   -1    0    0    0    0 -0.00000000000E+00 -0.00000000000E+00 -0.38176507245E+03  0.38176507245E+03  0.00000000000E+00 0. -1.
        -24    2    1    2    0    0 -0.92208415642E+01 -0.50932403661E+01 -0.28153744349E+03  0.29263118632E+03  0.79112035145E+02 0.  0.
         25    2    1    2    0    0 -0.45643517396E+01  0.44376882165E+02 -0.41924513523E+02  0.13926910136E+03  0.12509227307E+03 0.  0.
         24    2    1    2    0    0  0.13785193304E+02 -0.39283641799E+02  0.50627640182E+03  0.51444430202E+03  0.81264437305E+02 0.  0.
        -11    1    5    5    0    0 -0.49978569421E+01 -0.32996821325E+02  0.68272618522E+02  0.75992889348E+02  0.00000000000E+00 0.  1.
         12    1    5    5    0    0  0.18783050246E+02 -0.62868204744E+01  0.43800378330E+03  0.43845141267E+03  0.00000000000E+00 0. -1.
         11    1    3    3    0    0  0.18993615115E+02  0.12163637616E+02 -0.23183994930E+03  0.23293448346E+03  0.00000000000E+00 0. -1.
        -12    1    3    3    0    0 -0.28214456679E+02 -0.17256877982E+02 -0.49697494192E+02  0.59696702860E+02  0.00000000000E+00 0.  1.
          5    1    4    4  501    0 -0.42648655987E+02  0.10107894074E+02 -0.68479309199E+02  0.81412318285E+02  0.41800000000E+01 0. -1.
         -5    1    4    4    0  501  0.38084304247E+02  0.34268988092E+02  0.26554795676E+02  0.57856783079E+02  0.41800000000E+01 0. -1.
</event>
<event>
11    1  0.1078607E-008  0.1554104E+03  0.7561462E-02  0.1091475E+00
         22   -1    0    0    0    0  0.00000000000E+00  0.00000000000E+00  0.88365548767E+03  0.88365548767E+03  0.00000000000E+00 0. -1.
         22   -1    0    0    0    0 -0.00000000000E+00 -0.00000000000E+00 -0.14409408264E+04  0.14409408264E+04  0.00000000000E+00 0. -1.
        -24    2    1    2    0    0  0.92324914078E+02  0.90595410069E+01 -0.13857951057E+04  0.13911133380E+04  0.78500184683E+02 0.  0.
         25    2    1    2    0    0 -0.71958002361E+02  0.64563092782E+01  0.54010636106E+02  0.15421894262E+03  0.12508675157E+03 0.  0.
         24    2    1    2    0    0 -0.20366911717E+02 -0.15515850285E+02  0.77449913091E+03  0.77926403344E+03  0.82146073092E+02 0.  0.
        -11    1    5    5    0    0 -0.38162881508E+02 -0.55036894907E+01  0.16587299960E+03  0.17029547299E+03  0.00000000000E+00 0.  1.
         12    1    5    5    0    0  0.17795969791E+02 -0.10012160794E+02  0.60862613131E+03  0.60896856045E+03  0.00000000000E+00 0. -1.
         13    1    3    3    0    0  0.10033335620E+03  0.22402624246E+02 -0.10677141349E+04  0.10726519164E+04  0.00000000000E+00 0. -1.
        -14    1    3    3    0    0 -0.80084421234E+01 -0.13343083239E+02 -0.31808097084E+03  0.31846142157E+03  0.00000000000E+00 0.  1.
          5    1    4    4  501    0 -0.45751591019E+02 -0.56098570229E+02  0.45824293295E+02  0.85776429854E+02  0.41800000000E+01 0.  1.
         -5    1    4    4    0  501 -0.26206411343E+02  0.62554879507E+02  0.81863428107E+01  0.68442512769E+02  0.41800000000E+01 0.  1.
</event>
<event>
11    1  0.1078607E-008  0.1925104E+03  0.7561462E-02  0.1059950E+00
         22   -1    0    0    0    0  0.00000000000E+00  0.00000000000E+00  0.13468888253E+04  0.13468888253E+04  0.00000000000E+00 0.  1.
         22   -1    0    0    0    0 -0.00000000000E+00 -0.00000000000E+00 -0.64705673596E+02  0.64705673596E+02  0.00000000000E+00 0.  1.
         24    2    1    2    0    0 -0.13921843820E+02  0.20846026731E+00  0.70221702091E+02  0.10819085956E+03  0.81119131258E+02 0.  0.
         25    2    1    2    0    0  0.14809158567E+03  0.53130030661E+02  0.22154517828E+03  0.29913707798E+03  0.12508719958E+03 0.  0.
        -24    2    1    2    0    0 -0.13416974185E+03 -0.53338490928E+02  0.99041627137E+03  0.10042665614E+04  0.82343314859E+02 0.  0.
        -11    1    3    3    0    0 -0.19101572569E+02 -0.26066979105E+02 -0.75951346096E+00  0.32325444080E+02  0.00000000000E+00 0.  1.
         12    1    3    3    0    0  0.51797287496E+01  0.26275439373E+02  0.70981215551E+02  0.75865415476E+02  0.00000000000E+00 0. -1.
         13    1    5    5    0    0 -0.47171474011E+02  0.17102702165E+02  0.21286147397E+03  0.21869535314E+03  0.00000000000E+00 0. -1.
        -14    1    5    5    0    0 -0.86998267840E+02 -0.70441193093E+02  0.77755479740E+03  0.78557120826E+03  0.00000000000E+00 0.  1.
          5    1    4    4  501    0  0.12402006828E+02  0.62684100645E+02  0.84241202555E+02  0.10581662844E+03  0.41800000000E+01 0. -1.
         -5    1    4    4    0  501  0.13568957884E+03 -0.95540699841E+01  0.13730397572E+03  0.19332044954E+03  0.41800000000E+01 0. -1.
</event>
<event>
11    1  0.1078607E-008  0.1468547E+03  0.7561462E-02  0.1100137E+00
         22   -1    0    0    0    0  0.00000000000E+00  0.00000000000E+00  0.13706885555E+04  0.13706885555E+04  0.00000000000E+00 0.  1.
         22   -1    0    0    0    0 -0.00000000000E+00 -0.00000000000E+00 -0.14940682173E+03  0.14940682173E+03  0.00000000000E+00 0.  1.
         24    2    1    2    0    0  0.27630064317E+02 -0.65753829195E+02 -0.43156686668E+02  0.11851680091E+03  0.84242186493E+02 0.  0.
         25    2    1    2    0    0 -0.69672087039E+02  0.66138572843E+02  0.26047960892E+02  0.15985787877E+03  0.12509010595E+03 0.  0.
        -24    2    1    2    0    0  0.42042022722E+02 -0.38474364859E+00  0.12383904596E+04  0.12417206976E+04  0.80570967221E+02 0.  0.
        -13    1    3    3    0    0  0.22724255285E+02 -0.52690769153E+02 -0.68638340276E+02  0.89464689616E+02  0.00000000000E+00 0.  1.
         14    1    3    3    0    0  0.49058090319E+01 -0.13063060041E+02  0.25481653607E+02  0.29052111291E+02  0.00000000000E+00 0. -1.
         11    1    5    5    0    0  0.25667825121E+02 -0.33299171487E+02  0.34168554080E+03  0.34426251736E+03  0.00000000000E+00 0. -1.
        -12    1    5    5    0    0  0.16374197600E+02  0.32914427839E+02  0.89670491878E+03  0.89745818023E+03  0.00000000000E+00 0.  1.
          5    1    4    4  501    0  0.36325015574E+01  0.73115940981E+02 -0.15870884104E+02  0.75023284755E+02  0.41800000000E+01 0. -1.
         -5    1    4    4    0  501 -0.73304588596E+02 -0.69773681380E+01  0.41918844996E+02  0.84834594012E+02  0.41800000000E+01 0. -1.
</event>
<event>
11    1  0.1078607E-008  0.1728733E+03  0.7561462E-02  0.1075558E+00
         22   -1    0    0    0    0  0.00000000000E+00  0.00000000000E+00  0.31358846406E+02  0.31358846406E+02  0.00000000000E+00 0. -1.
         22   -1    0    0    0    0 -0.00000000000E+00 -0.00000000000E+00 -0.19626203738E+04  0.19626203738E+04  0.00000000000E+00 0. -1.
        -24    2    1    2    0    0  0.29968381069E+02  0.33224083800E+02 -0.87596432018E+03  0.88080024585E+03  0.80583120159E+02 0.  0.
         25    2    1    2    0    0  0.35295984054E+01  0.91329515323E+02 -0.81146763282E+03  0.82612376397E+03  0.12508883188E+03 0.  0.
         24    2    1    2    0    0 -0.33497979475E+02 -0.12455359912E+03 -0.24382957438E+03  0.28705521037E+03  0.79448843739E+02 0.  0.
        -11    1    5    5    0    0 -0.36323462868E+02 -0.14275772333E+02 -0.86584001433E+02  0.94973580193E+02  0.00000000000E+00 0.  1.
         12    1    5    5    0    0  0.28254833933E+01 -0.11027782679E+03 -0.15724557295E+03  0.19208163017E+03  0.00000000000E+00 0. -1.
         11    1    3    3    0    0  0.32915258560E+02  0.46239552401E+02 -0.34265573606E+03  0.34732472401E+03  0.00000000000E+00 0. -1.
        -12    1    3    3    0    0 -0.29468774906E+01 -0.13015468601E+02 -0.53330858412E+03  0.53347552184E+03  0.00000000000E+00 0.  1.
          5    1    4    4  501    0 -0.43374877325E+02  0.62612163186E+02 -0.23607989701E+03  0.24809847467E+03  0.41800000000E+01 0.  1.
         -5    1    4    4    0  501  0.46904475731E+02  0.28717352137E+02 -0.57538773581E+03  0.57802528931E+03  0.41800000000E+01 0.  1.
</event>
<event>
11    1  0.1078607E-008  0.2000250E+03  0.7561462E-02  0.1054506E+00
         22   -1    0    0    0    0  0.00000000000E+00  0.00000000000E+00  0.16052270983E+04  0.16052270983E+04  0.00000000000E+00 0.  1.
         22   -1    0    0    0    0 -0.00000000000E+00 -0.00000000000E+00 -0.40346111207E+03  0.40346111207E+03  0.00000000000E+00 0. -1.
         24    2    1    2    0    0  0.14594474860E+02 -0.18415479816E+01 -0.25154173608E+03  0.26183439732E+03  0.71187194311E+02 0.  0.
         25    2    1    2    0    0 -0.97023547957E+02 -0.13046080465E+03 -0.67509892531E+02  0.21595502303E+03  0.12508155730E+03 0.  0.
        -24    2    1    2    0    0  0.82429073097E+02  0.13230235263E+03  0.15208176149E+04  0.15308987901E+04  0.80414072357E+02 0.  0.
        -11    1    3    3    0    0  0.17332955747E+02 -0.34875899763E+02 -0.15242348942E+03  0.15732030977E+03  0.00000000000E+00 0.  1.
         12    1    3    3    0    0 -0.27384808872E+01  0.33034351781E+02 -0.99118246658E+02  0.10451408755E+03  0.00000000000E+00 0. -1.
         11    1    5    5    0    0  0.14017334074E+01  0.43689791506E+02  0.20470010858E+03  0.20931530568E+03  0.00000000000E+00 0. -1.
        -12    1    5    5    0    0  0.81027339690E+02  0.88612561126E+02  0.13161175063E+04  0.13215834844E+04  0.00000000000E+00 0.  1.
          5    1    4    4  501    0 -0.53786215516E+02 -0.12491087457E+03 -0.69145055349E+00  0.13606481569E+03  0.41800000000E+01 0.  1.
         -5    1    4    4    0  501 -0.43237332442E+02 -0.55499300770E+01 -0.66818441978E+02  0.79890207340E+02  0.41800000000E+01 0.  1.
</event>
<event>
11    1  0.1078607E-008  0.1596235E+03  0.7561462E-02  0.1087432E+00
         22   -1    0    0    0    0  0.00000000000E+00  0.00000000000E+00  0.31449233326E+03  0.31449233326E+03  0.00000000000E+00 0. -1.
         22   -1    0    0    0    0 -0.00000000000E+00 -0.00000000000E+00 -0.90991595960E+03  0.90991595960E+03  0.00000000000E+00 0. -1.
         24    2    1    2    0    0 -0.29613593786E+02 -0.10561088792E+03 -0.71875219064E+03  0.73169985175E+03  0.82154348118E+02 0.  0.
         25    2    1    2    0    0  0.62891265422E+01  0.56049139560E+02 -0.14968254700E+03  0.20306122667E+03  0.12509171733E+03 0.  0.
        -24    2    1    2    0    0  0.23324467244E+02  0.49561748355E+02  0.27301111130E+03  0.28964721443E+03  0.79749885679E+02 0.  0.
        -13    1    3    3    0    0 -0.46440924399E+00  0.10492178037E+02 -0.18360176636E+02  0.21151774441E+02  0.00000000000E+00 0.  1.
         14    1    3    3    0    0 -0.29149184542E+02 -0.11610306595E+03 -0.70039201401E+03  0.71054807731E+03  0.00000000000E+00 0. -1.
         11    1    5    5    0    0  0.22895947707E+02 -0.44568291683E+01  0.18438980980E+03  0.18585932774E+03  0.00000000000E+00 0. -1.
        -12    1    5    5    0    0  0.42851953719E+00  0.54018577523E+02  0.88621301493E+02  0.10378788670E+03  0.00000000000E+00 0.  1.
          5    1    4    4  501    0  0.21282282337E+02 -0.80709425533E+00  0.16156372650E+02  0.27057119577E+02  0.41800000000E+01 0.  1.
         -5    1    4    4    0  501 -0.14993155795E+02  0.56856233816E+02 -0.16583891965E+03  0.17600410710E+03  0.41800000000E+01 0.  1.
</event>
<event>
11    1  0.1078607E-008  0.1425704E+03  0.7561462E-02  0.1104722E+00
         22   -1    0    0    0    0  0.00000000000E+00  0.00000000000E+00  0.87520246083E+03  0.87520246083E+03  0.00000000000E+00 0.  1.
         22   -1    0    0    0    0 -0.00000000000E+00 -0.00000000000E+00 -0.14284013479E+03  0.14284013479E+03  0.00000000000E+00 0. -1.
         24    2    1    2    0    0 -0.65164326691E+01 -0.59837207437E+02 -0.55742921025E+02  0.11499846150E+03  0.80587949562E+02 0.  0.
         25    2    1    2    0    0  0.10349756309E+02  0.10044337055E+03  0.62713096758E+02  0.17256079564E+03  0.12509319543E+03 0.  0.
        -24    2    1    2    0    0 -0.38333236397E+01 -0.40606163116E+02  0.72539215031E+03  0.73048333848E+03  0.75819398638E+02 0.  0.
        -11    1    3    3    0    0  0.40290393649E+01 -0.42174036891E+02  0.12136594478E+02  0.44070165321E+02  0.00000000000E+00 0.  1.
         12    1    3    3    0    0 -0.10545472034E+02 -0.17663170546E+02 -0.67879515502E+02  0.70928296180E+02  0.00000000000E+00 0. -1.
         11    1    5    5    0    0 -0.12241976771E+02  0.19363255240E+02  0.12838306414E+03  0.13041093822E+03  0.00000000000E+00 0. -1.
        -12    1    5    5    0    0  0.84086531316E+01 -0.59969418356E+02  0.59700908617E+03  0.60007240026E+03  0.00000000000E+00 0.  1.
          5    1    4    4  501    0 -0.39740574689E+02  0.46309524761E+02  0.75944550125E+02  0.97513755204E+02  0.41800000000E+01 0. -1.
         -5    1    4    4    0  501  0.50090330998E+02  0.54133845792E+02 -0.13231453367E+02  0.75047040434E+02  0.41800000000E+01 0. -1.
</event>
<event>
11    1  0.1078607E-008  0.1338088E+03  0.7561462E-02  0.1114676E+00
         22   -1    0    0    0    0  0.00000000000E+00  0.00000000000E+00  0.38976872804E+03  0.38976872804E+03  0.00000000000E+00 0. -1.
         22   -1    0    0    0    0 -0.00000000000E+00 -0.00000000000E+00 -0.27793181558E+03  0.27793181558E+03  0.00000000000E+00 0. -1.
        -24    2    1    2    0    0 -0.16918085474E+02 -0.44922927118E+02 -0.21545475515E+03  0.23457285213E+03  0.79368636414E+02 0.  0.
         25    2    1    2    0    0 -0.46071988901E+01  0.46862490550E+02  0.48413615406E+02  0.14215601077E+03  0.12508850443E+03 0.  0.
         24    2    1    2    0    0  0.21525284364E+02 -0.19395634320E+01  0.27887805219E+03  0.29097168071E+03  0.80152674352E+02 0.  0.
        -13    1    5    5    0    0  0.14059562226E+02 -0.12284075467E+02  0.88832092148E+01  0.20675618637E+02  0.00000000000E+00 0.  1.
         14    1    5    5    0    0  0.74657221382E+01  0.10344512035E+02  0.26999484298E+03  0.27029606207E+03  0.00000000000E+00 0. -1.
         11    1    3    3    0    0 -0.48278278072E+01 -0.66759065228E+02 -0.17025467435E+03  0.18293915614E+03  0.00000000000E+00 0. -1.
        -12    1    3    3    0    0 -0.12090257667E+02  0.21836138109E+02 -0.45200080796E+02  0.51633695994E+02  0.00000000000E+00 0.  1.
          5    1    4    4  501    0 -0.13095324539E+02 -0.41864365291E+02  0.20987147817E+02  0.48806202265E+02  0.41800000000E+01 0.  1.
         -5    1    4    4    0  501  0.84881256484E+01  0.88726855841E+02  0.27426467589E+02  0.93349808510E+02  0.41800000000E+01 0.  1.
</event>
<event>
11    1  0.1078607E-008  0.1558184E+03  0.7561462E-02  0.1091078E+00
         22   -1    0    0    0    0  0.00000000000E+00  0.00000000000E+00  0.15764240637E+03  0.15764240637E+03  0.00000000000E+00 0.  1.
         22   -1    0    0    0    0 -0.00000000000E+00 -0.00000000000E+00 -0.82443880915E+03  0.82443880915E+03  0.00000000000E+00 0.  1.
        -24    2    1    2    0    0  0.17582588456E+02 -0.83916821686E+02 -0.50267956829E+03  0.51628991752E+03  0.80730106979E+02 0.  0.
         25    2    1    2    0    0 -0.51111266194E+02  0.11086262648E+03 -0.27293745940E+03  0.32410862034E+03  0.12509459442E+03 0.  0.
         24    2    1    2    0    0  0.33528677738E+02 -0.26945804796E+02  0.10882062491E+03  0.14168267767E+03  0.79886194799E+02 0.  0.
        -11    1    5    5    0    0  0.56861125585E+02 -0.12152263983E+02  0.93464095420E+02  0.11007453046E+03  0.00000000000E+00 0.  1.
         12    1    5    5    0    0 -0.23332447847E+02 -0.14793540813E+02  0.15356529486E+02  0.31608147211E+02  0.00000000000E+00 0. -1.
         11    1    3    3    0    0  0.29018948847E+02 -0.36295696259E+02 -0.39818726962E+03  0.40088973377E+03  0.00000000000E+00 0. -1.
        -12    1    3    3    0    0 -0.11436360391E+02 -0.47621125426E+02 -0.10449229867E+03  0.11540018374E+03  0.00000000000E+00 0.  1.
          5    1    4    4  501    0 -0.81414821422E+02  0.91286269556E+02 -0.13838820002E+03  0.18474393755E+03  0.41800000000E+01 0. -1.
         -5    1    4    4    0  501  0.30303555228E+02  0.19576356926E+02 -0.13454925937E+03  0.13936468278E+03  0.41800000000E+01 0. -1.
</event>
<event>
11    1  0.1294193E-008  0.1568044E+03  0.7561462E-02  0.1090122E+00
         22   -1    0    0    0    0  0.00000000000E+00  0.00000000000E+00  0.56685556826E+03  0.56685556826E+03  0.00000000000E+00 0.  1.
         22   -1    0    0    0    0 -0.00000000000E+00 -0.00000000000E+00 -0.76957020747E+03  0.76957020747E+03  0.00000000000E+00 0. -1.
        -24    2    1    2    0    0 -0.33727865691E+02 -0.26319101915E+02 -0.52976018055E+03  0.53759847337E+03  0.80845566539E+02 0.  0.
         25    2    1    2    0    0  0.11691517548E+03 -0.17482245493E+02 -0.19635040678E+03  0.26110367978E+03  0.12508741818E+03 0.  0.
         24    2    1    2    0    0 -0.83187309789E+02  0.43801347408E+02  0.52339594812E+03  0.53772362257E+03  0.79779002330E+02 0.  0.
        -13    1    5    5    0    0 -0.64801630486E+02  0.57643205751E+02  0.27711995682E+03  0.29037469062E+03  0.00000000000E+00 0.  1.
         14    1    5    5    0    0 -0.18385679304E+02 -0.13841858343E+02  0.24627599130E+03  0.24734893195E+03  0.00000000000E+00 0. -1.
         13    1    3    3    0    0 -0.50311999602E+02  0.11665989207E+01 -0.42662270728E+03  0.42958071724E+03  0.00000000000E+00 0. -1.
        -14    1    3    3    0    0  0.16584133911E+02 -0.27485700836E+02 -0.10313747327E+03  0.10801775613E+03  0.00000000000E+00 0.  1.
          5    1    4    4  501    0  0.19927484666E+02 -0.18222502871E+02  0.13059622702E+02  0.30285151496E+02  0.41800000000E+01 0.  1.
         -5    1    4    4    0  501  0.96987690814E+02  0.74025737856E+00 -0.20941002949E+03  0.23081852829E+03  0.41800000000E+01 0.  1.
</event>
<event>
11    1  0.1078607E-008  0.2281642E+03  0.7561462E-02  0.1036220E+00
         22   -1    0    0    0    0  0.00000000000E+00  0.00000000000E+00  0.32471614267E+03  0.32471614267E+03  0.00000000000E+00 0.  1.
         22   -1    0    0    0    0 -0.00000000000E+00 -0.00000000000E+00 -0.51261525889E+03  0.51261525889E+03  0.00000000000E+00 0. -1.
        -24    2    1    2    0    0 -0.16480844478E+01  0.47510523077E+02 -0.25508336712E+03  0.27157860929E+03  0.80171384299E+02 0.  0.
         25    2    1    2    0    0  0.18926779527E+03 -0.61323667520E+01 -0.14424989116E+03  0.26891413398E+03  0.12508747382E+03 0.  0.
         24    2    1    2    0    0 -0.18761971082E+03 -0.41378156325E+02  0.21143414205E+03  0.29683865829E+03  0.80594571276E+02 0.  0.
        -13    1    5    5    0    0 -0.18774684563E+03 -0.40284075417E+02  0.21781089739E+03  0.29036747717E+03  0.00000000000E+00 0.  1.
         14    1    5    5    0    0  0.12713480675E+00 -0.10940809085E+01 -0.63767553442E+01  0.64711811142E+01  0.00000000000E+00 0. -1.
         11    1    3    3    0    0 -0.13084273911E+02  0.47195675892E+02 -0.25547922050E+03  0.26013124025E+03  0.00000000000E+00 0. -1.
        -12    1    3    3    0    0  0.11436189463E+02  0.31484718535E+00  0.39585337933E+00  0.11447369047E+02  0.00000000000E+00 0.  1.
          5    1    4    4  501    0  0.17186761242E+03 -0.35748178774E+01 -0.59041500641E+02  0.18180931417E+03  0.41800000000E+01 0.  1.
         -5    1    4    4    0  501  0.17400182855E+02 -0.25575488746E+01 -0.85208390518E+02  0.87104819811E+02  0.41800000000E+01 0.  1.
</event>
<event>
11    1  0.1078607E-008  0.1419194E+03  0.7561462E-02  0.1105434E+00
         22   -1    0    0    0    0  0.00000000000E+00  0.00000000000E+00  0.92953277251E+03  0.92953277251E+03  0.00000000000E+00 0. -1.
         22   -1    0    0    0    0 -0.00000000000E+00 -0.00000000000E+00 -0.77273221606E+03  0.77273221606E+03  0.00000000000E+00 0.  1.
        -24    2    1    2    0    0  0.69694835317E+02 -0.18019707208E+02 -0.59351637325E+03  0.60324268824E+03  0.80361531072E+02 0.  0.
         25    2    1    2    0    0 -0.44760301938E+02 -0.13481100523E+02 -0.14621844438E+03  0.19802175755E+03  0.12509020059E+03 0.  0.
         24    2    1    2    0    0 -0.24934533379E+02  0.31500807731E+02  0.89653537409E+03  0.90100054279E+03  0.80076646162E+02 0.  0.
        -11    1    5    5    0    0 -0.27666114447E+02  0.34181906199E+02  0.21483977092E+03  0.21929419456E+03  0.00000000000E+00 0.  1.
         12    1    5    5    0    0  0.27315810680E+01 -0.26810984686E+01  0.68169560318E+03  0.68170634823E+03  0.00000000000E+00 0. -1.
         11    1    3    3    0    0  0.20515680507E+02  0.31904681953E+01 -0.26320234111E+02  0.33523528419E+02  0.00000000000E+00 0. -1.
        -12    1    3    3    0    0  0.49179154810E+02 -0.21210175403E+02 -0.56719613914E+03  0.56971915982E+03  0.00000000000E+00 0.  1.
          5    1    4    4  501    0 -0.71089076627E+02 -0.40461583502E+01 -0.28260283957E+02  0.76721211294E+02  0.41800000000E+01 0. -1.
         -5    1    4    4    0  501  0.26328774689E+02 -0.94349421729E+01 -0.11795816042E+03  0.12130054625E+03  0.41800000000E+01 0. -1.
</event>
<event>
11    1  0.1078607E-008  0.1644201E+03  0.7561462E-02  0.1082992E+00
         22   -1    0    0    0    0  0.00000000000E+00  0.00000000000E+00  0.54348341002E+03  0.54348341002E+03  0.00000000000E+00 0. -1.
         22   -1    0    0    0    0 -0.00000000000E+00 -0.00000000000E+00 -0.38328584635E+03  0.38328584635E+03  0.00000000000E+00 0.  1.
        -24    2    1    2    0    0  0.27792098475E+02  0.46351004022E+02 -0.16581359942E+03  0.19057644080E+03  0.76840183001E+02 0.  0.
         25    2    1    2    0    0  0.67962643043E+02  0.53151159264E+01 -0.16989007305E+03  0.22171464814E+03  0.12509027529E+03 0.  0.
         24    2    1    2    0    0 -0.95754741518E+02 -0.51666119948E+02  0.49590123614E+03  0.51447816743E+03  0.83254971536E+02 0.  0.
        -13    1    5    5    0    0  0.93286011160E+01  0.46036564229E+00  0.12775152083E+03  0.12809248927E+03  0.00000000000E+00 0.  1.
         14    1    5    5    0    0 -0.10508334263E+03 -0.52126485591E+02  0.36814971531E+03  0.38638567816E+03  0.00000000000E+00 0. -1.
         13    1    3    3    0    0  0.15387376792E+02 -0.18006152205E+02 -0.21133348506E+02  0.31742893706E+02  0.00000000000E+00 0. -1.
        -14    1    3    3    0    0  0.12404721683E+02  0.64357156227E+02 -0.14468025092E+03  0.15883354710E+03  0.00000000000E+00 0.  1.
          5    1    4    4  501    0  0.96072328878E+02  0.15352678212E+02 -0.77266519690E+02  0.12431083850E+03  0.41800000000E+01 0.  1.
         -5    1    4    4    0  501 -0.28109685836E+02 -0.10037562286E+02 -0.92623553361E+02  0.97403809636E+02  0.41800000000E+01 0.  1.
</event>
<event>
11    1  0.1078607E-008  0.1689998E+03  0.7561462E-02  0.1078905E+00
         22   -1    0    0    0    0  0.00000000000E+00  0.00000000000E+00  0.23658739536E+03  0.23658739536E+03  0.00000000000E+00 0.  1.
         22   -1    0    0    0    0 -0.00000000000E+00 -0.00000000000E+00 -0.81934803142E+03  0.81934803142E+03  0.00000000000E+00 0.  1.
        -24    2    1    2    0    0  0.10914746224E+02  0.69326264138E+02 -0.70939779283E+03  0.71731274573E+03  0.79794010649E+02 0.  0.
         25    2    1    2    0    0 -0.32285344562E+02 -0.15105896965E+03  0.98056052128E+02  0.22163718010E+03  0.12508754717E+03 0.  0.
         24    2    1    2    0    0  0.21370598338E+02  0.81732705516E+02  0.28581104637E+02  0.11698550094E+03  0.75708587785E+02 0.  0.
        -13    1    5    5    0    0  0.45008090413E+02  0.25295027540E+02  0.69904236578E+01  0.52100217311E+02  0.00000000000E+00 0.  1.
         14    1    5    5    0    0 -0.23637492075E+02  0.56437677976E+02  0.21590680980E+02  0.64885283633E+02  0.00000000000E+00 0. -1.
         13    1    3    3    0    0  0.27096727138E+02  0.44297193565E+02 -0.18730276248E+03  0.19436768974E+03  0.00000000000E+00 0. -1.
        -14    1    3    3    0    0 -0.16181980913E+02  0.25029070573E+02 -0.52209503035E+03  0.52294505600E+03  0.00000000000E+00 0.  1.
          5    1    4    4  501    0 -0.61498852241E+02 -0.15588137449E+03  0.91690336925E+02  0.19106465405E+03  0.41800000000E+01 0. -1.
         -5    1    4    4    0  501  0.29213507679E+02  0.48224048386E+01  0.63657152028E+01  0.30572526055E+02  0.41800000000E+01 0. -1.
</event>
<event>
11    1  0.1587833E-008  0.1425758E+03  0.7561462E-02  0.1104716E+00
         22   -1    0    0    0    0  0.00000000000E+00  0.00000000000E+00  0.37604489929E+03  0.37604489929E+03  0.00000000000E+00 0.  1.
         22   -1    0    0    0    0 -0.00000000000E+00 -0.00000000000E+00 -0.15246650863E+04  0.15246650863E+04  0.00000000000E+00 0. -1.
         24    2    1    2    0    0  0.55058800105E+02 -0.19389566607E+02 -0.12582794340E+04  0.12622217767E+04  0.80803791913E+02 0.  0.
         25    2    1    2    0    0  0.11981490903E+02 -0.13019320061E+01 -0.24110505294E+03  0.27189006984E+03  0.12508921765E+03 0.  0.
        -24    2    1    2    0    0 -0.67040291008E+02  0.20691498613E+02  0.35076429988E+03  0.36659813910E+03  0.80225075802E+02 0.  0.
        -11    1    3    3    0    0 -0.41679951152E+01 -0.25064549948E+02 -0.13516556905E+03  0.13753303205E+03  0.00000000000E+00 0.  1.
         12    1    3    3    0    0  0.59226795220E+02  0.56749833408E+01 -0.11231138649E+04  0.11246887446E+04  0.00000000000E+00 0. -1.
         13    1    5    5    0    0 -0.30908210628E+02  0.65284287211E+01  0.30233425606E+02  0.43726398087E+02  0.00000000000E+00 0. -1.
        -14    1    5    5    0    0 -0.36132080380E+02  0.14163069892E+02  0.32053087428E+03  0.32287174102E+03  0.00000000000E+00 0.  1.
          5    1    4    4  501    0 -0.28575140980E+02  0.49295907794E+02 -0.14528407001E+03  0.15611392829E+03  0.41800000000E+01 0.  1.
         -5    1    4    4    0  501  0.40556631883E+02 -0.50597839800E+02 -0.95820982938E+02  0.11577614156E+03  0.41800000000E+01 0.  1.
</event>
<event>
11    1  0.1078607E-008  0.1491151E+03  0.7561462E-02  0.1097786E+00
         22   -1    0    0    0    0  0.00000000000E+00  0.00000000000E+00  0.14626100705E+03  0.14626100705E+03  0.00000000000E+00 0.  1.
         22   -1    0    0    0    0 -0.00000000000E+00 -0.00000000000E+00 -0.12205243923E+04  0.12205243923E+04  0.00000000000E+00 0. -1.
        -24    2    1    2    0    0  0.41622747990E+02 -0.51183336469E+01 -0.95391841816E+03  0.95816753961E+03  0.79787436143E+02 0.  0.
         25    2    1    2    0    0  0.39741678133E+02 -0.20927345007E+02 -0.21859947815E+03  0.25582606111E+03  0.12507552497E+03 0.  0.
         24    2    1    2    0    0 -0.81364426123E+02  0.26045678654E+02  0.98254511046E+02  0.15279179864E+03  0.79955222324E+02 0.  0.
        -11    1    5    5    0    0 -0.26635209841E+01  0.61867630636E+01  0.64556330480E+02  0.64906780742E+02  0.00000000000E+00 0.  1.
         12    1    5    5    0    0 -0.78700905138E+02  0.19858915590E+02  0.33698180567E+02  0.87885017901E+02  0.00000000000E+00 0. -1.
         13    1    3    3    0    0  0.61840680127E+02 -0.80622059350E+01 -0.84841852205E+03  0.85070750405E+03  0.00000000000E+00 0. -1.
        -14    1    3    3    0    0 -0.20217932137E+02  0.29438722881E+01 -0.10549989610E+03  0.10746003556E+03  0.00000000000E+00 0.  1.
          5    1    4    4  501    0  0.61195697353E+02  0.35156343218E+02 -0.95749130967E+02  0.11902205814E+03  0.41800000000E+01 0. -1.
         -5    1    4    4    0  501 -0.21454019220E+02 -0.56083688225E+02 -0.12285034719E+03  0.13680400297E+03  0.41800000000E+01 0. -1.
</event>
<event>
11    1  0.1078607E-008  0.1745909E+03  0.7561462E-02  0.1074104E+00
         22   -1    0    0    0    0  0.00000000000E+00  0.00000000000E+00  0.31777370987E+04  0.31777370987E+04  0.00000000000E+00 0. -1.
         22   -1    0    0    0    0 -0.00000000000E+00 -0.00000000000E+00 -0.14150880300E+04  0.14150880300E+04  0.00000000000E+00 0. -1.
         24    2    1    2    0    0  0.10498023923E+03  0.61260146973E+02 -0.13847688450E+04  0.13924056652E+04  0.80219238213E+02 0.  0.
         25    2    1    2    0    0 -0.12762792222E+03 -0.67445296828E+02  0.32654310427E+03  0.37830852134E+03  0.12509669771E+03 0.  0.
        -24    2    1    2    0    0  0.22647682989E+02  0.61851498549E+01  0.28208748095E+04  0.28221109422E+04  0.80151767398E+02 0.  0.
        -13    1    3    3    0    0  0.74028866388E+02 -0.97207246987E+00 -0.59606802083E+03  0.60064823603E+03  0.00000000000E+00 0.  1.
         14    1    3    3    0    0  0.30951372847E+02  0.62232219443E+02 -0.78870082416E+03  0.79175742918E+03  0.00000000000E+00 0. -1.
         13    1    5    5    0    0  0.38384428701E+02 -0.24839896512E+02  0.19606278138E+04  0.19611608320E+04  0.00000000000E+00 0. -1.
        -14    1    5    5    0    0 -0.15736745711E+02  0.31025046367E+02  0.86024699567E+03  0.86095011019E+03  0.00000000000E+00 0.  1.
          5    1    4    4  501    0 -0.22693812694E+01 -0.54358673887E+02  0.16235229057E+03  0.17127683489E+03  0.41800000000E+01 0. -1.
         -5    1    4    4    0  501 -0.12535854095E+03 -0.13086622941E+02  0.16419081371E+03  0.20703168645E+03  0.41800000000E+01 0. -1.
</event>
<event>
11    1  0.1078607E-008  0.1991546E+03  0.7561462E-02  0.1055123E+00
         22   -1    0    0    0    0  0.00000000000E+00  0.00000000000E+00  0.55945985461E+03  0.55945985461E+03  0.00000000000E+00 0.  1.
         22   -1    0    0    0    0 -0.00000000000E+00 -0.00000000000E+00 -0.13401938171E+03  0.13401938171E+03  0.00000000000E+00 0.  1.
        -24    2    1    2    0    0 -0.15942498740E+03  0.68962482546E+02  0.43255125923E+02  0.19540184378E+03  0.78350009763E+02 0.  0.
         25    2    1    2    0    0  0.92455202224E+02 -0.96418923629E+02  0.13441111140E+03  0.22706499263E+03  0.12509033038E+03 0.  0.
         24    2    1    2    0    0  0.66969785174E+02  0.27456441083E+02  0.24777423557E+03  0.27101239991E+03  0.82564161767E+02 0.  0.
        -13    1    5    5    0    0  0.71727524891E+02  0.33164026111E+02  0.25082585330E+03  0.26297965537E+03  0.00000000000E+00 0.  1.
         14    1    5    5    0    0 -0.47577397163E+01 -0.57075850280E+01 -0.30516177292E+01  0.80327445387E+01  0.00000000000E+00 0. -1.
         13    1    3    3    0    0 -0.11287117574E+03  0.70755592923E+01  0.24300833217E+02  0.11567409541E+03  0.00000000000E+00 0. -1.
        -14    1    3    3    0    0 -0.46553811654E+02  0.61886923254E+02  0.18954292705E+02  0.79727748377E+02  0.00000000000E+00 0.  1.
          5    1    4    4  501    0 -0.74889117377E+01 -0.62744210899E+02  0.10329397599E+02  0.64164543598E+02  0.41800000000E+01 0. -1.
         -5    1    4    4    0  501  0.99944113962E+02 -0.33674712730E+02  0.12408171381E+03  0.16290044903E+03  0.41800000000E+01 0. -1.
</event>
<event>
11    1  0.1078607E-008  0.1500497E+03  0.7561462E-02  0.1096828E+00
         22   -1    0    0    0    0  0.00000000000E+00  0.00000000000E+00  0.74496391716E+02  0.74496391716E+02  0.00000000000E+00 0.  1.
         22   -1    0    0    0    0 -0.00000000000E+00 -0.00000000000E+00 -0.18972717368E+04  0.18972717368E+04  0.00000000000E+00 0. -1.
        -24    2    1    2    0    0 -0.75657179259E+02  0.23415849212E+02 -0.15538921252E+04  0.15579773537E+04  0.80252022473E+02 0.  0.
         25    2    1    2    0    0  0.14831245623E+03 -0.43735772220E+02 -0.20768238995E+03  0.28755744009E+03  0.12509158170E+03 0.  0.
         24    2    1    2    0    0 -0.72655276975E+02  0.20319923009E+02 -0.61200829926E+02  0.12623333471E+03  0.80607844939E+02 0.  0.
        -11    1    5    5    0    0 -0.77829952842E+02  0.28437635275E+02 -0.21812140846E+02  0.85685297150E+02  0.00000000000E+00 0.  1.
         12    1    5    5    0    0  0.51746758669E+01 -0.81177122665E+01 -0.39388689080E+02  0.40548037563E+02  0.00000000000E+00 0. -1.
         13    1    3    3    0    0 -0.72350033167E+02  0.48562406457E+02 -0.12450999174E+04  0.12481452796E+04  0.00000000000E+00 0. -1.
        -14    1    3    3    0    0 -0.33071460913E+01 -0.25146557245E+02 -0.30879220773E+03  0.30983207406E+03  0.00000000000E+00 0.  1.
          5    1    4    4  501    0  0.16125794881E+03 -0.48976443757E+02 -0.14242787245E+03  0.22069433465E+03  0.41800000000E+01 0. -1.
         -5    1    4    4    0  501 -0.12945492571E+02  0.52406715365E+01 -0.65254517491E+02  0.66863105439E+02  0.41800000000E+01 0. -1.
</event>
<event>
11    1  0.1078607E-008  0.1313451E+03  0.7561462E-02  0.1117627E+00
         22   -1    0    0    0    0  0.00000000000E+00  0.00000000000E+00  0.52404067999E+03  0.52404067999E+03  0.00000000000E+00 0. -1.
         22   -1    0    0    0    0 -0.00000000000E+00 -0.00000000000E+00 -0.50442620222E+03  0.50442620222E+03  0.00000000000E+00 0. -1.
         24    2    1    2    0    0  0.29997574045E+02 -0.15682677027E+02 -0.33530782248E+03  0.34822394127E+03  0.87651449796E+02 0.  0.
         25    2    1    2    0    0 -0.69791005426E+02  0.20653023310E+02 -0.12547028655E+03  0.19153836478E+03  0.12508725182E+03 0.  0.
        -24    2    1    2    0    0  0.39793431382E+02 -0.49703462833E+01  0.48039258681E+03  0.48870457616E+03  0.80292613458E+02 0.  0.
        -13    1    3    3    0    0  0.47863033536E+02  0.45714289018E+01 -0.95704444674E+02  0.10710326172E+03  0.00000000000E+00 0.  1.
         14    1    3    3    0    0 -0.17865459491E+02 -0.20254105928E+02 -0.23960337781E+03  0.24112067955E+03  0.00000000000E+00 0. -1.
         13    1    5    5    0    0  0.11499249625E+02 -0.17363515935E+02  0.42312717558E+03  0.42363938809E+03  0.00000000000E+00 0. -1.
        -14    1    5    5    0    0  0.28294181757E+02  0.12393169652E+02  0.57265411226E+02  0.65065188067E+02  0.00000000000E+00 0.  1.
          5    1    4    4  501    0 -0.60259442047E+02  0.92338840355E+01 -0.15032656191E+03  0.16227141641E+03  0.41800000000E+01 0. -1.
         -5    1    4    4    0  501 -0.95315633790E+01  0.11419139274E+02  0.24856275358E+02  0.29266948370E+02  0.41800000000E+01 0. -1.
</event>
<event>
11    1  0.1078607E-008  0.1576011E+03  0.7561462E-02  0.1089355E+00
         22   -1    0    0    0    0  0.00000000000E+00  0.00000000000E+00  0.58625602111E+03  0.58625602111E+03  0.00000000000E+00 0.  1.
         22   -1    0    0    0    0 -0.00000000000E+00 -0.00000000000E+00 -0.96280266720E+03  0.96280266720E+03  0.00000000000E+00 0.  1.
        -24    2    1    2    0    0 -0.27645147753E+02  0.45899283177E+02 -0.76835288670E+03  0.77434629396E+03  0.79843760413E+02 0.  0.
         25    2    1    2    0    0  0.74408492483E+02  0.38916121265E+02 -0.15355067741E+03  0.21511844115E+03  0.12508814869E+03 0.  0.
         24    2    1    2    0    0 -0.46763344730E+02 -0.84815404442E+02  0.54535691803E+03  0.55959395319E+03  0.79691663078E+02 0.  0.
        -13    1    5    5    0    0 -0.29506963445E+02 -0.91812991176E+02  0.51522278220E+03  0.52417058439E+03  0.00000000000E+00 0.  1.
         14    1    5    5    0    0 -0.17256381285E+02  0.69975867342E+01  0.30134135836E+02  0.35423368809E+02  0.00000000000E+00 0. -1.
         13    1    3    3    0    0 -0.19476021019E+02  0.51682880223E+02 -0.25575241569E+03  0.26164811032E+03  0.00000000000E+00 0. -1.
        -14    1    3    3    0    0 -0.81691267343E+01 -0.57835970461E+01 -0.51260047102E+03  0.51269818364E+03  0.00000000000E+00 0.  1.
          5    1    4    4  501    0  0.51079884456E+02  0.79989952436E+02 -0.13297991975E+03  0.16342790014E+03  0.41800000000E+01 0. -1.
         -5    1    4    4    0  501  0.23328608027E+02 -0.41073831171E+02 -0.20570757665E+02  0.51690541015E+02  0.41800000000E+01 0. -1.
</event>
<event>
11    1  0.1078607E-008  0.1328169E+03  0.7561462E-02  0.1115856E+00
         22   -1    0    0    0    0  0.00000000000E+00  0.00000000000E+00  0.23983334783E+03  0.23983334783E+03  0.00000000000E+00 0.  1.
         22   -1    0    0    0    0 -0.00000000000E+00 -0.00000000000E+00 -0.61507533675E+03  0.61507533675E+03  0.00000000000E+00 0.  1.
         24    2    1    2    0    0  0.18630063359E+02 -0.16751553854E+02 -0.46512999174E+03  0.47282448959E+03  0.81175088037E+02 0.  0.
         25    2    1    2    0    0 -0.49854664203E+02 -0.14994605168E+02 -0.10203010290E+03  0.16961094533E+03  0.12508958850E+03 0.  0.
        -24    2    1    2    0    0  0.31224600844E+02  0.31746159022E+02  0.19191810573E+03  0.21247324966E+03  0.79558332087E+02 0.  0.
        -11    1    3    3    0    0  0.19154988033E+01  0.20753318795E+02 -0.34949216837E+03  0.35011304621E+03  0.00000000000E+00 0.  1.
         12    1    3    3    0    0  0.16714564556E+02 -0.37504872649E+02 -0.11563782338E+03  0.12271144338E+03  0.00000000000E+00 0. -1.
         13    1    5    5    0    0  0.37809217606E+02  0.73456732775E+01  0.30612686227E+02  0.49199922865E+02  0.00000000000E+00 0. -1.
        -14    1    5    5    0    0 -0.65846167616E+01  0.24400485744E+02  0.16130541950E+03  0.16327332680E+03  0.00000000000E+00 0.  1.
          5    1    4    4  501    0 -0.54265190299E+00  0.26470745913E+02  0.18712735182E+02  0.32689963572E+02  0.41800000000E+01 0. -1.
         -5    1    4    4    0  501 -0.49312012300E+02 -0.41465351081E+02 -0.12074283808E+03  0.13692098176E+03  0.41800000000E+01 0. -1.
</event>
<event>
11    1  0.1078607E-008  0.1575721E+03  0.7561462E-02  0.1089383E+00
         22   -1    0    0    0    0  0.00000000000E+00  0.00000000000E+00  0.31849509602E+03  0.31849509602E+03  0.00000000000E+00 0. -1.
         22   -1    0    0    0    0 -0.00000000000E+00 -0.00000000000E+00 -0.15194687929E+04  0.15194687929E+04  0.00000000000E+00 0. -1.
         24    2    1    2    0    0  0.72176390678E+00 -0.93521949339E+02 -0.13601275958E+04  0.13656965152E+04  0.80206102007E+02 0.  0.
         25    2    1    2    0    0  0.44350043121E+02  0.15729076794E+03 -0.69936457274E+02  0.21734905823E+03  0.12506875331E+03 0.  0.
        -24    2    1    2    0    0 -0.45071807028E+02 -0.63768818596E+02  0.22909035621E+03  0.25491831549E+03  0.80018911830E+02 0.  0.
        -11    1    3    3    0    0 -0.87887006518E+01 -0.80077366099E+02 -0.59922966995E+03  0.60462039592E+03  0.00000000000E+00 0.  1.
         12    1    3    3    0    0  0.95104645585E+01 -0.13444583240E+02 -0.76089792590E+03  0.76107611932E+03  0.00000000000E+00 0. -1.
         11    1    5    5    0    0 -0.21628449628E+02 -0.61908136385E+02  0.22023224236E+03  0.22978826723E+03  0.00000000000E+00 0. -1.
        -12    1    5    5    0    0 -0.23443357400E+02 -0.18606822109E+01  0.88581138532E+01  0.25130048259E+02  0.00000000000E+00 0.  1.
          5    1    4    4  501    0 -0.68813527306E+01  0.15399227309E+03 -0.49786268257E+02  0.16204048289E+03  0.41800000000E+01 0. -1.
         -5    1    4    4    0  501  0.51231395852E+02  0.32984948440E+01 -0.20150189017E+02  0.55308575344E+02  0.41800000000E+01 0. -1.
</event>
<event>
11    1  0.1078607E-008  0.1704471E+03  0.7561462E-02  0.1077643E+00
         22   -1    0    0    0    0  0.00000000000E+00  0.00000000000E+00  0.66541799275E+03  0.66541799275E+03  0.00000000000E+00 0. -1.
         22   -1    0    0    0    0 -0.00000000000E+00 -0.00000000000E+00 -0.24689207870E+04  0.24689207870E+04  0.00000000000E+00 0.  1.
        -24    2    1    2    0    0 -0.86977950090E+01  0.51283523819E+01 -0.21543552730E+04  0.21558470510E+04  0.79548181984E+02 0.  0.
         25    2    1    2    0    0  0.39973900669E+02 -0.11641828294E+03 -0.28069099478E+03  0.33103523563E+03  0.12508302579E+03 0.  0.
         24    2    1    2    0    0 -0.31276105660E+02  0.11128993056E+03  0.63154347350E+03  0.64745649319E+03  0.83600886480E+02 0.  0.
        -13    1    5    5    0    0  0.21087696663E+02  0.17583689184E+02  0.60884561387E+02  0.66789272276E+02  0.00000000000E+00 0.  1.
         14    1    5    5    0    0 -0.52363802323E+02  0.93706241374E+02  0.57065891211E+03  0.58066722091E+03  0.00000000000E+00 0. -1.
         11    1    3    3    0    0  0.33290240500E+02 -0.11100481163E+02 -0.99148977613E+03  0.99211059715E+03  0.00000000000E+00 0. -1.
        -12    1    3    3    0    0 -0.41988035509E+02  0.16228833545E+02 -0.11628654969E+04  0.11637364538E+04  0.00000000000E+00 0.  1.
          5    1    4    4  501    0  0.68664622771E+02 -0.91071573494E+02 -0.26664190635E+03  0.29004179103E+03  0.41800000000E+01 0. -1.
         -5    1    4    4    0  501 -0.28690722102E+02 -0.25346709445E+02 -0.14049088424E+02  0.40993444597E+02  0.41800000000E+01 0. -1.
</event>
<event>
11    1  0.1078607E-008  0.1369860E+03  0.7561462E-02  0.1110971E+00
         22   -1    0    0    0    0  0.00000000000E+00  0.00000000000E+00  0.35809469633E+03  0.35809469633E+03  0.00000000000E+00 0.  1.
         22   -1    0    0    0    0 -0.00000000000E+00 -0.00000000000E+00 -0.18181480540E+04  0.18181480540E+04  0.00000000000E+00 0. -1.
        -24    2    1    2    0    0  0.26145352724E+02 -0.57031391059E+02 -0.16813616962E+04  0.16835815797E+04  0.59444286246E+02 0.  0.
         25    2    1    2    0    0 -0.17160203154E+02 -0.21112981531E+01 -0.95193416367E+02  0.15814248222E+03  0.12509327724E+03 0.  0.
         24    2    1    2    0    0 -0.89851495699E+01  0.59142689213E+02  0.31650175491E+03  0.33451868837E+03  0.90281788920E+02 0.  0.
        -11    1    5    5    0    0 -0.21337391542E+02  0.23882836693E+02  0.28152403757E+03  0.28333982758E+03  0.00000000000E+00 0.  1.
         12    1    5    5    0    0  0.12352241972E+02  0.35259852519E+02  0.34977717340E+02  0.51178860790E+02  0.00000000000E+00 0. -1.
         11    1    3    3    0    0  0.40975747481E+02 -0.58609013237E+02 -0.13875855128E+04  0.13894270703E+04  0.00000000000E+00 0. -1.
        -12    1    3    3    0    0 -0.14830394757E+02  0.15776221773E+01 -0.29377618337E+03  0.29415450943E+03  0.00000000000E+00 0.  1.
          5    1    4    4  501    0  0.31205242382E+02  0.46768915828E+02 -0.32974108556E+02  0.65313573436E+02  0.41800000000E+01 0.  1.
         -5    1    4    4    0  501 -0.48365445536E+02 -0.48880213981E+02 -0.62219307810E+02  0.92828908779E+02  0.41800000000E+01 0.  1.
</event>
<event>
11    1  0.1078607E-008  0.1762098E+03  0.7561462E-02  0.1072751E+00
         22   -1    0    0    0    0  0.00000000000E+00  0.00000000000E+00  0.83227692537E+03  0.83227692537E+03  0.00000000000E+00 0. -1.
         22   -1    0    0    0    0 -0.00000000000E+00 -0.00000000000E+00 -0.17270598211E+03  0.17270598211E+03  0.00000000000E+00 0.  1.
        -24    2    1    2    0    0 -0.24746329113E+02  0.16010374641E+02 -0.11651131645E+03  0.14341418808E+03  0.78256179192E+02 0.  0.
         25    2    1    2    0    0 -0.91068006233E+02  0.44361337922E+02  0.16138174108E+03  0.22793172078E+03  0.12508993934E+03 0.  0.
         24    2    1    2    0    0  0.11581433535E+03 -0.60371712563E+02  0.61470051863E+03  0.63363699861E+03  0.81125917313E+02 0.  0.
        -13    1    5    5    0    0  0.17474984122E+01  0.16234200504E+02  0.62297963021E+02  0.64402167769E+02  0.00000000000E+00 0.  1.
         14    1    5    5    0    0  0.11406683693E+03 -0.76605913067E+02  0.55240255560E+03  0.56923483084E+03  0.00000000000E+00 0. -1.
         11    1    3    3    0    0  0.28083849774E+02  0.22520170130E+01 -0.30328364470E+02  0.41395457362E+02  0.00000000000E+00 0. -1.
        -12    1    3    3    0    0 -0.52830178887E+02  0.13758357628E+02 -0.86182951976E+02  0.10201873072E+03  0.00000000000E+00 0.  1.
          5    1    4    4  501    0 -0.82617243429E+02 -0.15067131211E+02  0.41435876013E+02  0.93739167778E+02  0.41800000000E+01 0. -1.
         -5    1    4    4    0  501 -0.84507628038E+01  0.59428469134E+02  0.11994586507E+03  0.13419255301E+03  0.41800000000E+01 0. -1.
</event>
<event>
11    1  0.1078607E-008  0.5098190E+03  0.7561462E-02  0.9371844E-01
         22   -1    0    0    0    0  0.00000000000E+00  0.00000000000E+00  0.38555864756E+04  0.38555864756E+04  0.00000000000E+00 0. -1.
         22   -1    0    0    0    0 -0.00000000000E+00 -0.00000000000E+00 -0.45719167671E+03  0.45719167671E+03  0.00000000000E+00 0.  1.
        -24    2    1    2    0    0 -0.24634465027E+03 -0.42270572147E+03 -0.26749430898E+03  0.56436208843E+03  0.87095050591E+02 0.  0.
         25    2    1    2    0    0  0.29654023551E+03  0.48298141758E+03  0.21144558548E+04  0.21926637401E+04  0.12507419452E+03 0.  0.
         24    2    1    2    0    0 -0.50195585232E+02 -0.60275696110E+02  0.15514332531E+04  0.15557523238E+04  0.85249035273E+02 0.  0.
        -13    1    5    5    0    0 -0.34116962939E+02  0.15363823340E+02  0.41063819102E+03  0.41233934830E+03  0.00000000000E+00 0.  1.
         14    1    5    5    0    0 -0.16078622294E+02 -0.75639519450E+02  0.11407950620E+04  0.11434129755E+04  0.00000000000E+00 0. -1.
         11    1    3    3    0    0 -0.62092118822E+02 -0.16683112644E+03 -0.64389184257E+02  0.18929876655E+03  0.00000000000E+00 0. -1.
        -12    1    3    3    0    0 -0.18425253145E+03 -0.25587459503E+03 -0.20310512472E+03  0.37506332187E+03  0.00000000000E+00 0.  1.
          5    1    4    4  501    0  0.17739684926E+03  0.17118574307E+03  0.88960409547E+03  0.92313981598E+03  0.41800000000E+01 0. -1.
         -5    1    4    4    0  501  0.11914338624E+03  0.31179567451E+03  0.12248517593E+04  0.12695239241E+04  0.41800000000E+01 0. -1.
</event>
<event>
11    1  0.1078607E-008  0.1326064E+03  0.7561462E-02  0.1116107E+00
         22   -1    0    0    0    0  0.00000000000E+00  0.00000000000E+00  0.17733272809E+03  0.17733272809E+03  0.00000000000E+00 0. -1.
         22   -1    0    0    0    0 -0.00000000000E+00 -0.00000000000E+00 -0.34662198783E+03  0.34662198783E+03  0.00000000000E+00 0.  1.
         24    2    1    2    0    0 -0.43703888697E+01 -0.33424553236E+02 -0.19153916946E+03  0.21171111249E+03  0.83654292521E+02 0.  0.
         25    2    1    2    0    0  0.44085852713E+02  0.11873225765E+02 -0.95175553339E+02  0.16367625861E+03  0.12508795217E+03 0.  0.
        -24    2    1    2    0    0 -0.39715463843E+02  0.21551327471E+02  0.11742546307E+03  0.14856734482E+03  0.79004675733E+02 0.  0.
        -13    1    3    3    0    0 -0.19269960931E+02 -0.52017086816E+02 -0.17253857119E+03  0.18123649540E+03  0.00000000000E+00 0.  1.
         14    1    3    3    0    0  0.14899572061E+02  0.18592533579E+02 -0.19000598269E+02  0.30474617095E+02  0.00000000000E+00 0. -1.
         11    1    5    5    0    0 -0.24722439319E+02  0.31740527037E+02  0.12315159591E+03  0.12955684326E+03  0.00000000000E+00 0. -1.
        -12    1    5    5    0    0 -0.14993024524E+02 -0.10189199566E+02 -0.57261328410E+01  0.19010501558E+02  0.00000000000E+00 0.  1.
          5    1    4    4  501    0  0.61142523280E+02 -0.21329984767E+02 -0.39391844680E+01  0.65010506670E+02  0.41800000000E+01 0.  1.
         -5    1    4    4    0  501 -0.17056670567E+02  0.33203210532E+02 -0.91236368871E+02  0.98665751937E+02  0.41800000000E+01 0.  1.
</event>
<event>
11    1  0.1078607E-008  0.1369571E+03  0.7561462E-02  0.1111005E+00
         22   -1    0    0    0    0  0.00000000000E+00  0.00000000000E+00  0.61529708765E+03  0.61529708765E+03  0.00000000000E+00 0. -1.
         22   -1    0    0    0    0 -0.00000000000E+00 -0.00000000000E+00 -0.10784970666E+04  0.10784970666E+04  0.00000000000E+00 0. -1.
        -24    2    1    2    0    0  0.48783942067E+02  0.29352186940E+02 -0.10076955976E+04  0.10126230997E+04  0.81937176009E+02 0.  0.
         25    2    1    2    0    0 -0.22603961028E+02 -0.12868569413E+02 -0.21750187448E+01  0.12778376574E+03  0.12508965164E+03 0.  0.
         24    2    1    2    0    0 -0.26179981038E+02 -0.16483617527E+02  0.54667063736E+03  0.55338728883E+03  0.80197285710E+02 0.  0.
        -13    1    5    5    0    0 -0.18350418270E+02  0.10930245150E+02  0.35556220989E+02  0.41478343274E+02  0.00000000000E+00 0.  1.
         14    1    5    5    0    0 -0.78295627679E+01 -0.27413862677E+02  0.51111441637E+03  0.51190894555E+03  0.00000000000E+00 0. -1.
         13    1    3    3    0    0  0.61584764524E+02  0.17498574919E+02 -0.95439414045E+03  0.95653910462E+03  0.00000000000E+00 0. -1.
        -14    1    3    3    0    0 -0.12800822457E+02  0.11853612021E+02 -0.53301457152E+02  0.56083995115E+02  0.00000000000E+00 0.  1.
          5    1    4    4  501    0 -0.40981549174E+02 -0.60102387040E+02 -0.16980999963E+02  0.74817184258E+02  0.41800000000E+01 0. -1.
         -5    1    4    4    0  501  0.18377588146E+02  0.47233817627E+02  0.14805981218E+02  0.52966581478E+02  0.41800000000E+01 0. -1.
</event>
<event>
11    1  0.1078607E-008  0.2909282E+03  0.7561462E-02  0.1004105E+00
         22   -1    0    0    0    0  0.00000000000E+00  0.00000000000E+00  0.15921679353E+04  0.15921679353E+04  0.00000000000E+00 0.  1.
         22   -1    0    0    0    0 -0.00000000000E+00 -0.00000000000E+00 -0.29581326403E+03  0.29581326403E+03  0.00000000000E+00 0. -1.
        -24    2    1    2    0    0 -0.11786877530E+03  0.93326955838E+02 -0.13533168774E+03  0.21848190640E+03  0.82563362582E+02 0.  0.
         25    2    1    2    0    0  0.14092347837E+03  0.17802888116E+03  0.56460848514E+02  0.26530620670E+03  0.12508335868E+03 0.  0.
         24    2    1    2    0    0 -0.23054703066E+02 -0.27135583699E+03  0.13752255105E+04  0.14041930862E+04  0.79671256245E+02 0.  0.
        -13    1    5    5    0    0 -0.50150046536E+02 -0.16057767438E+03  0.74798564807E+03  0.76666990706E+03  0.00000000000E+00 0.  1.
         14    1    5    5    0    0  0.27095343470E+02 -0.11077816262E+03  0.62723986241E+03  0.63752317915E+03  0.00000000000E+00 0. -1.
         13    1    3    3    0    0 -0.57011690071E+02 -0.25857422185E+01 -0.55800023735E+02  0.79816423851E+02  0.00000000000E+00 0. -1.
        -14    1    3    3    0    0 -0.60857085230E+02  0.95912698057E+02 -0.79531664003E+02  0.13866548255E+03  0.00000000000E+00 0.  1.
          5    1    4    4  501    0  0.80873784545E+02  0.16763075091E+03  0.76129500518E+02  0.20113132756E+03  0.41800000000E+01 0. -1.
         -5    1    4    4    0  501  0.60049693822E+02  0.10398130243E+02 -0.19668652004E+02  0.64174879137E+02  0.41800000000E+01 0. -1.
</event>
<event>
11    1  0.1078607E-008  0.1378798E+03  0.7561462E-02  0.1109949E+00
         22   -1    0    0    0    0  0.00000000000E+00  0.00000000000E+00  0.15205202110E+04  0.15205202110E+04  0.00000000000E+00 0. -1.
         22   -1    0    0    0    0 -0.00000000000E+00 -0.00000000000E+00 -0.96806222981E+03  0.96806222981E+03  0.00000000000E+00 0. -1.
         24    2    1    2    0    0  0.11118266668E+02 -0.31568952154E+02 -0.94120023842E+03  0.94519629773E+03  0.80112033032E+02 0.  0.
         25    2    1    2    0    0 -0.59180075671E+02 -0.20126739777E+01  0.18584169171E+03  0.23171415525E+03  0.12509189884E+03 0.  0.
        -24    2    1    2    0    0  0.48061809003E+02  0.33581626131E+02  0.13078165279E+04  0.13116719878E+04  0.81619053468E+02 0.  0.
        -11    1    3    3    0    0  0.12541910158E+02 -0.21762146712E+02 -0.78109483735E+02  0.82048656231E+02  0.00000000000E+00 0.  1.
         12    1    3    3    0    0 -0.14236434898E+01 -0.98068054419E+01 -0.86309075469E+03  0.86314764150E+03  0.00000000000E+00 0. -1.
         13    1    5    5    0    0  0.65098411321E+02  0.45277061759E+02  0.97849138404E+03  0.98169914135E+03  0.00000000000E+00 0. -1.
        -14    1    5    5    0    0 -0.17036602318E+02 -0.11695435628E+02  0.32932514385E+03  0.32997284647E+03  0.00000000000E+00 0.  1.
          5    1    4    4  501    0 -0.55817914056E+02  0.28768149923E+02  0.19003896272E+03  0.20018872529E+03  0.41800000000E+01 0.  1.
         -5    1    4    4    0  501 -0.33621616145E+01 -0.30780823901E+02 -0.41972710111E+01  0.31525429968E+02  0.41800000000E+01 0.  1.
</event>
<event>
11    1  0.1078607E-008  0.3521261E+03  0.7561462E-02  0.9802635E-01
         22   -1    0    0    0    0  0.00000000000E+00  0.00000000000E+00  0.72428316905E+03  0.72428316905E+03  0.00000000000E+00 0.  1.
         22   -1    0    0    0    0 -0.00000000000E+00 -0.00000000000E+00 -0.62756906175E+03  0.62756906175E+03  0.00000000000E+00 0. -1.
         24    2    1    2    0    0 -0.98967498565E+02  0.31158701829E+03 -0.41469821618E+03  0.53369958452E+03  0.77327875097E+02 0.  0.
         25    2    1    2    0    0  0.14706796251E+03 -0.30661210070E+03  0.72784370808E+02  0.36957157224E+03  0.12508243874E+03 0.  0.
        -24    2    1    2    0    0 -0.48100463942E+02 -0.49749175950E+01  0.43862795268E+03  0.44858107404E+03  0.80573535881E+02 0.  0.
        -13    1    3    3    0    0 -0.92144662410E+02  0.16958200777E+03 -0.25660594722E+03  0.32108458125E+03  0.00000000000E+00 0.  1.
         14    1    3    3    0    0 -0.68228361557E+01  0.14200501053E+03 -0.15809226897E+03  0.21261500327E+03  0.00000000000E+00 0. -1.
         11    1    5    5    0    0  0.10185234412E+02 -0.64682092912E+01  0.90960945781E+01  0.15110118068E+02  0.00000000000E+00 0. -1.
        -12    1    5    5    0    0 -0.58285698354E+02  0.14932916962E+01  0.42953185810E+03  0.43347095598E+03  0.00000000000E+00 0.  1.
          5    1    4    4  501    0  0.37780418982E+02 -0.47341984224E+02 -0.32817910665E+02  0.69015296777E+02  0.41800000000E+01 0.  1.
         -5    1    4    4    0  501  0.10928754352E+03 -0.25927011648E+03  0.10560228147E+03  0.30055627546E+03  0.41800000000E+01 0.  1.
</event>
<event>
11    1  0.1078607E-008  0.1506834E+03  0.7561462E-02  0.1096183E+00
         22   -1    0    0    0    0  0.00000000000E+00  0.00000000000E+00  0.29242243655E+03  0.29242243655E+03  0.00000000000E+00 0.  1.
         22   -1    0    0    0    0 -0.00000000000E+00 -0.00000000000E+00 -0.17159296797E+04  0.17159296797E+04  0.00000000000E+00 0. -1.
        -24    2    1    2    0    0 -0.81188516697E+02  0.13923735275E+02 -0.13798604264E+04  0.13846370487E+04  0.80121874000E+02 0.  0.
         25    2    1    2    0    0  0.87392987632E+02 -0.64756463857E+02 -0.30352376252E+03  0.34583941333E+03  0.12508913422E+03 0.  0.
         24    2    1    2    0    0 -0.62044709352E+01  0.50832728582E+02  0.25987694576E+03  0.27787565421E+03  0.84002324447E+02 0.  0.
        -13    1    5    5    0    0  0.37469328999E+02  0.11557597037E+02  0.11703617330E+03  0.12343012001E+03  0.00000000000E+00 0.  1.
         14    1    5    5    0    0 -0.43673799934E+02  0.39275131545E+02  0.14284077246E+03  0.15444553420E+03  0.00000000000E+00 0. -1.
         11    1    3    3    0    0 -0.73214276532E+02 -0.19563234376E+02 -0.11110461396E+04  0.11136276643E+04  0.00000000000E+00 0. -1.
        -12    1    3    3    0    0 -0.79742401650E+01  0.33486969651E+02 -0.26881428684E+03  0.27100938444E+03  0.00000000000E+00 0.  1.
          5    1    4    4  501    0  0.18713681075E+01 -0.93845605479E+01  0.11019333129E+02  0.15181241644E+02  0.41800000000E+01 0. -1.
         -5    1    4    4    0  501  0.85521619524E+02 -0.55371903309E+02 -0.31454309565E+03  0.33065817168E+03  0.41800000000E+01 0. -1.
</event>
<event>
11    1  0.1078607E-008  0.1524025E+03  0.7561462E-02  0.1094449E+00
         22   -1    0    0    0    0  0.00000000000E+00  0.00000000000E+00  0.97560959587E+03  0.97560959587E+03  0.00000000000E+00 0. -1.
         22   -1    0    0    0    0 -0.00000000000E+00 -0.00000000000E+00 -0.54788800753E+03  0.54788800753E+03  0.00000000000E+00 0. -1.
         24    2    1    2    0    0 -0.68593223491E+02  0.52618898147E+02 -0.52001139884E+03  0.53324713970E+03  0.80416903180E+02 0.  0.
         25    2    1    2    0    0  0.11103819824E+03 -0.83556844882E+02  0.54759722028E+03  0.57863705853E+03  0.12508757755E+03 0.  0.
        -24    2    1    2    0    0 -0.42444974753E+02  0.30937946734E+02  0.40013576692E+03  0.41161340517E+03  0.80982905092E+02 0.  0.
        -13    1    3    3    0    0 -0.62340617492E+02  0.65311901759E+02 -0.31325642996E+03  0.32600857046E+03  0.00000000000E+00 0.  1.
         14    1    3    3    0    0 -0.62526059987E+01 -0.12693003612E+02 -0.20675496888E+03  0.20723856924E+03  0.00000000000E+00 0. -1.
         13    1    5    5    0    0 -0.55035139484E+01  0.27613491988E+02  0.33856476169E+03  0.33973355952E+03  0.00000000000E+00 0. -1.
        -14    1    5    5    0    0 -0.36941460804E+02  0.33244547466E+01  0.61571005229E+02  0.71879845649E+02  0.00000000000E+00 0.  1.
          5    1    4    4  501    0 -0.26966886532E+02 -0.17732024541E+02  0.12655478531E+03  0.13067219960E+03  0.41800000000E+01 0. -1.
         -5    1    4    4    0  501  0.13800508478E+03 -0.65824820341E+02  0.42104243497E+03  0.44796485894E+03  0.41800000000E+01 0. -1.
</event>
<event>
11    1  0.1078607E-008  0.1566929E+03  0.7561462E-02  0.1090230E+00
         22   -1    0    0    0    0  0.00000000000E+00  0.00000000000E+00  0.93807915220E+03  0.93807915220E+03  0.00000000000E+00 0. -1.
         22   -1    0    0    0    0 -0.00000000000E+00 -0.00000000000E+00 -0.24174585660E+03  0.24174585660E+03  0.00000000000E+00 0. -1.
         24    2    1    2    0    0  0.15758553099E+02  0.88335940412E+02 -0.17814944874E+03  0.21527281872E+03  0.80954246517E+02 0.  0.
         25    2    1    2    0    0 -0.16519145464E+02 -0.15413560679E+03  0.20017230320E+03  0.28239423467E+03  0.12508751080E+03 0.  0.
        -24    2    1    2    0    0  0.76059236489E+00  0.65799666383E+02  0.67431044113E+03  0.68215795541E+03  0.79465278712E+02 0.  0.
        -13    1    3    3    0    0 -0.21822108651E+02  0.12629455389E+02 -0.10091453014E+02  0.27157779610E+02  0.00000000000E+00 0.  1.
         14    1    3    3    0    0  0.37580661750E+02  0.75706485023E+02 -0.16805799572E+03  0.18811503911E+03  0.00000000000E+00 0. -1.
         11    1    5    5    0    0  0.17759443998E+02  0.65639754570E+02  0.64251501361E+03  0.64610333380E+03  0.00000000000E+00 0. -1.
        -12    1    5    5    0    0 -0.16998851634E+02  0.15991181261E+00  0.31795427518E+02  0.36054621614E+02  0.00000000000E+00 0.  1.
          5    1    4    4  501    0 -0.65747624716E+02 -0.49466420409E+02  0.69041208218E+02  0.10748877958E+03  0.41800000000E+01 0. -1.
         -5    1    4    4    0  501  0.49228479252E+02 -0.10466918639E+03  0.13113109499E+03  0.17490545509E+03  0.41800000000E+01 0. -1.
</event>
<event>
11    1  0.1078607E-008  0.1978177E+03  0.7561462E-02  0.1056078E+00
         22   -1    0    0    0    0  0.00000000000E+00  0.00000000000E+00  0.18380790310E+03  0.18380790310E+03  0.00000000000E+00 0.  1.
         22   -1    0    0    0    0 -0.00000000000E+00 -0.00000000000E+00 -0.80279190924E+03  0.80279190924E+03  0.00000000000E+00 0.  1.
         24    2    1    2    0    0  0.13716424390E+03 -0.23549706131E+02 -0.14254235847E+03  0.21509587706E+03  0.81112846736E+02 0.  0.
         25    2    1    2    0    0 -0.27670903923E+03  0.15571508335E+02 -0.52094198424E+03  0.60318727784E+03  0.12507588474E+03 0.  0.
        -24    2    1    2    0    0  0.13954479532E+03  0.79781977967E+01  0.44500336558E+02  0.16831665745E+03  0.82545839858E+02 0.  0.
        -11    1    3    3    0    0  0.23559510983E+02 -0.36639070441E+02 -0.59625911673E+02  0.73842544535E+02  0.00000000000E+00 0.  1.
         12    1    3    3    0    0  0.11360473292E+03  0.13089364310E+02 -0.82916446793E+02  0.14125333252E+03  0.00000000000E+00 0. -1.
         11    1    5    5    0    0 -0.86857452512E+01 -0.72848550964E+01  0.10545398436E+02  0.15482787621E+02  0.00000000000E+00 0. -1.
        -12    1    5    5    0    0  0.14823054057E+03  0.15263052893E+02  0.33954938122E+02  0.15283386982E+03  0.00000000000E+00 0.  1.
          5    1    4    4  501    0 -0.70311486011E+02  0.54526682143E+02 -0.20797984815E+03  0.22625196964E+03  0.41800000000E+01 0. -1.
         -5    1    4    4    0  501 -0.20639755322E+03 -0.38955173808E+02 -0.31296213608E+03  0.37693530819E+03  0.41800000000E+01 0. -1.
</event>
<event>
11    1  0.1078607E-008  0.1537010E+03  0.7561462E-02  0.1093156E+00
         22   -1    0    0    0    0  0.00000000000E+00  0.00000000000E+00  0.32182665285E+03  0.32182665285E+03  0.00000000000E+00 0. -1.
         22   -1    0    0    0    0 -0.00000000000E+00 -0.00000000000E+00 -0.59021261195E+03  0.59021261195E+03  0.00000000000E+00 0.  1.
         24    2    1    2    0    0  0.75241824091E+02 -0.15626050934E+02 -0.27555332667E+03  0.29719772999E+03  0.80568910323E+02 0.  0.
         25    2    1    2    0    0 -0.11287205966E+03  0.36109452052E+02 -0.27165044442E+03  0.32169249919E+03  0.12509238866E+03 0.  0.
        -24    2    1    2    0    0  0.37630235565E+02 -0.20483401118E+02  0.27881781199E+03  0.29314903562E+03  0.79758262614E+02 0.  0.
        -13    1    3    3    0    0  0.59351923781E+02 -0.42467415507E+02 -0.23478101320E+03  0.24586227120E+03  0.00000000000E+00 0.  1.
         14    1    3    3    0    0  0.15889900310E+02  0.26841364573E+02 -0.40772313465E+02  0.51335458792E+02  0.00000000000E+00 0. -1.
         13    1    5    5    0    0  0.64530825103E+01 -0.45290184032E+02  0.10031696181E+03  0.11025577477E+03  0.00000000000E+00 0. -1.
        -14    1    5    5    0    0  0.31177153055E+02  0.24806782914E+02  0.17850085018E+03  0.18289326085E+03  0.00000000000E+00 0.  1.
          5    1    4    4  501    0 -0.85668669739E+02  0.30068745273E+02 -0.61683898331E+02  0.10984364401E+03  0.41800000000E+01 0. -1.
         -5    1    4    4    0  501 -0.27203389918E+02  0.60407067786E+01 -0.20996654609E+03  0.21184885518E+03  0.41800000000E+01 0. -1.
</event>
<event>
11    1  0.1078607E-008  0.1748135E+03  0.7561462E-02  0.1073917E+00
         22   -1    0    0    0    0  0.00000000000E+00  0.00000000000E+00  0.65070645414E+03  0.65070645414E+03  0.00000000000E+00 0. -1.
         22   -1    0    0    0    0 -0.00000000000E+00 -0.00000000000E+00 -0.52348550761E+03  0.52348550761E+03  0.00000000000E+00 0. -1.
         24    2    1    2    0    0  0.11923706879E+03 -0.29163739484E+02 -0.48640931732E+03  0.50821209632E+03  0.81348070643E+02 0.  0.
         25    2    1    2    0    0 -0.10667983711E+03 -0.11624704270E+02  0.34472130964E+03  0.38209319236E+03  0.12508678959E+03 0.  0.
        -24    2    1    2    0    0 -0.12557231678E+02  0.40788443753E+02  0.26890895421E+03  0.28388667308E+03  0.80363152539E+02 0.  0.
        -13    1    3    3    0    0  0.14996954354E+01 -0.26816933412E+02 -0.13345656190E+03  0.13613247562E+03  0.00000000000E+00 0.  1.
         14    1    3    3    0    0  0.11773737336E+03 -0.23468060716E+01 -0.35295275542E+03  0.37207962070E+03  0.00000000000E+00 0. -1.
         11    1    5    5    0    0  0.29910836902E+02  0.24249617226E+01  0.13438907566E+03  0.13769880994E+03  0.00000000000E+00 0. -1.
        -12    1    5    5    0    0 -0.42468068580E+02  0.38363482031E+02  0.13451987855E+03  0.14618786313E+03  0.00000000000E+00 0.  1.
          5    1    4    4  501    0 -0.73663683339E+02 -0.67328666541E+02  0.20497502546E+03  0.22801693148E+03  0.41800000000E+01 0.  1.
         -5    1    4    4    0  501 -0.33016153775E+02  0.55703962271E+02  0.13974628418E+03  0.15407626087E+03  0.41800000000E+01 0.  1.
</event>
<event>
11    1  0.1078607E-008  0.2578034E+03  0.7561462E-02  0.1019822E+00
         22   -1    0    0    0    0  0.00000000000E+00  0.00000000000E+00  0.82474724884E+03  0.82474724884E+03  0.00000000000E+00 0. -1.
         22   -1    0    0    0    0 -0.00000000000E+00 -0.00000000000E+00 -0.11071345177E+04  0.11071345177E+04  0.00000000000E+00 0. -1.
         24    2    1    2    0    0 -0.19919163700E+03 -0.10204599049E+03 -0.10279777640E+04  0.10551783277E+04  0.81069892811E+02 0.  0.
         25    2    1    2    0    0  0.24656170951E+03  0.10346608597E+03  0.29255312528E+03  0.41562643177E+03  0.12514028981E+03 0.  0.
        -24    2    1    2    0    0 -0.47370072513E+02 -0.14200954877E+01  0.45303736992E+03  0.46107700702E+03  0.71436737157E+02 0.  0.
        -11    1    3    3    0    0 -0.53136788153E+02 -0.33420052209E+02 -0.15185749182E+03  0.16432016300E+03  0.00000000000E+00 0.  1.
         12    1    3    3    0    0 -0.14605484884E+03 -0.68625938277E+02 -0.87612027220E+03  0.89085816471E+03  0.00000000000E+00 0. -1.
         13    1    5    5    0    0 -0.65206349596E+02 -0.15255744051E+01  0.39537921002E+03  0.40072299050E+03  0.00000000000E+00 0. -1.
        -14    1    5    5    0    0  0.17836277083E+02  0.10547891731E+00  0.57658159906E+02  0.60354016517E+02  0.00000000000E+00 0.  1.
          5    1    4    4  501    0  0.11766905616E+03  0.74751291090E+02  0.23108155600E+03  0.26990724373E+03  0.41800000000E+01 0. -1.
         -5    1    4    4    0  501  0.12889265335E+03  0.28714794884E+02  0.61471569280E+02  0.14571918803E+03  0.41800000000E+01 0. -1.
</event>
<event>
11    1  0.1078607E-008  0.1292327E+03  0.7561462E-02  0.1120215E+00
         22   -1    0    0    0    0  0.00000000000E+00  0.00000000000E+00  0.23058378274E+03  0.23058378274E+03  0.00000000000E+00 0.  1.
         22   -1    0    0    0    0 -0.00000000000E+00 -0.00000000000E+00 -0.20640211869E+03  0.20640211869E+03  0.00000000000E+00 0. -1.
         24    2    1    2    0    0  0.31588738358E+02  0.42129176626E+02 -0.11390695642E+03  0.14556213322E+03  0.73761941353E+02 0.  0.
         25    2    1    2    0    0 -0.14740060596E+02 -0.58742715547E+02  0.50574457071E+02  0.14790027342E+03  0.12509492058E+03 0.  0.
        -24    2    1    2    0    0 -0.16848677761E+02  0.16613538921E+02  0.87514163389E+02  0.14352349479E+03  0.11126714315E+03 0.  0.
        -11    1    3    3    0    0  0.10880011920E+02 -0.20970796200E+02 -0.22919000583E+02  0.32915490887E+02  0.00000000000E+00 0.  1.
         12    1    3    3    0    0  0.20708726438E+02  0.63099972826E+02 -0.90987955832E+02  0.11264664233E+03  0.00000000000E+00 0. -1.
         13    1    5    5    0    0 -0.29740322493E+02  0.27381816904E+01 -0.18961212973E+02  0.35376715766E+02  0.00000000000E+00 0. -1.
        -14    1    5    5    0    0  0.12891644732E+02  0.13875357230E+02  0.10647537636E+03  0.10814677903E+03  0.00000000000E+00 0.  1.
          5    1    4    4  501    0  0.51653670730E+02 -0.72563949257E+01  0.59216796637E+01  0.52662089374E+02  0.41800000000E+01 0. -1.
         -5    1    4    4    0  501 -0.66393731327E+02 -0.51486320621E+02  0.44652777407E+02  0.95238184048E+02  0.41800000000E+01 0. -1.
</event>
<event>
11    1  0.1078607E-008  0.1557153E+03  0.7561462E-02  0.1091178E+00
         22   -1    0    0    0    0  0.00000000000E+00  0.00000000000E+00  0.36752253801E+03  0.36752253801E+03  0.00000000000E+00 0. -1.
         22   -1    0    0    0    0 -0.00000000000E+00 -0.00000000000E+00 -0.36896393015E+03  0.36896393015E+03  0.00000000000E+00 0. -1.
        -24    2    1    2    0    0 -0.69423537726E+02  0.65258512448E+02 -0.28666920476E+03  0.31213052070E+03  0.78536157025E+02 0.  0.
         25    2    1    2    0    0  0.10457157301E+02 -0.91293638270E+02  0.43506160112E+02  0.16119734075E+03  0.12509163110E+03 0.  0.
         24    2    1    2    0    0  0.58966380426E+02  0.26035125821E+02  0.24172165250E+03  0.26315860670E+03  0.81659250518E+02 0.  0.
        -11    1    5    5    0    0 -0.95511346688E+01 -0.13815053188E+02  0.94254979322E+02  0.95739652156E+02  0.00000000000E+00 0.  1.
         12    1    5    5    0    0  0.68517515094E+02  0.39850179009E+02  0.14746667318E+03  0.16741895454E+03  0.00000000000E+00 0. -1.
         11    1    3    3    0    0 -0.13034579723E+02 -0.13166628041E+02 -0.10256871153E+03  0.10422859947E+03  0.00000000000E+00 0. -1.
        -12    1    3    3    0    0 -0.56388958003E+02  0.78425140489E+02 -0.18410049322E+03  0.20790192123E+03  0.00000000000E+00 0.  1.
          5    1    4    4  501    0  0.63235387261E+02 -0.23316024521E+02  0.79729631104E+01  0.67995527369E+02  0.41800000000E+01 0. -1.
         -5    1    4    4    0  501 -0.52778229960E+02 -0.67977613749E+02  0.35533197001E+02  0.93201813383E+02  0.41800000000E+01 0. -1.
</event>
<event>
11    1  0.1078607E-008  0.1425009E+03  0.7561462E-02  0.1104797E+00
         22   -1    0    0    0    0  0.00000000000E+00  0.00000000000E+00  0.96216715426E+02  0.96216715426E+02  0.00000000000E+00 0.  1.
         22   -1    0    0    0    0 -0.00000000000E+00 -0.00000000000E+00 -0.15842083045E+04  0.15842083045E+04  0.00000000000E+00 0.  1.
        -24    2    1    2    0    0  0.44592195766E+02 -0.42818728064E+02 -0.11074175371E+04  0.11120871450E+04  0.80884542363E+02 0.  0.
         25    2    1    2    0    0 -0.97444907565E+02  0.60684874926E+02 -0.42932930809E+03  0.46168103168E+03  0.12509019214E+03 0.  0.
         24    2    1    2    0    0  0.52852711798E+02 -0.17866146862E+02  0.48755256140E+02  0.10665684323E+03  0.76720263672E+02 0.  0.
        -13    1    5    5    0    0  0.57616066836E+02  0.53623093321E+01  0.57316715675E+02  0.81446739743E+02  0.00000000000E+00 0.  1.
         14    1    5    5    0    0 -0.47633550375E+01 -0.23228456194E+02 -0.85614595345E+01  0.25210103485E+02  0.00000000000E+00 0. -1.
         11    1    3    3    0    0  0.18890096105E+02 -0.15623930710E+02 -0.73255415726E+02  0.77248293669E+02  0.00000000000E+00 0. -1.
        -12    1    3    3    0    0  0.25702099662E+02 -0.27194797354E+02 -0.10341621214E+04  0.10348388514E+04  0.00000000000E+00 0.  1.
          5    1    4    4  501    0 -0.47256325488E+02 -0.22939907993E+02 -0.26787900671E+03  0.27301288305E+03  0.41800000000E+01 0.  1.
         -5    1    4    4    0  501 -0.50188582077E+02  0.83624782919E+02 -0.16145030138E+03  0.18866814862E+03  0.41800000000E+01 0.  1.
</event>
<event>
11    1  0.1078607E-008  0.1556741E+03  0.7561462E-02  0.1091218E+00
         22   -1    0    0    0    0  0.00000000000E+00  0.00000000000E+00  0.91682671526E+03  0.91682671526E+03  0.00000000000E+00 0. -1.
         22   -1    0    0    0    0 -0.00000000000E+00 -0.00000000000E+00 -0.13081962069E+04  0.13081962069E+04  0.00000000000E+00 0.  1.
        -24    2    1    2    0    0  0.77741561691E+02  0.50932479873E+02 -0.12815123459E+04  0.12873817632E+04  0.80249882192E+02 0.  0.
         25    2    1    2    0    0 -0.80793439797E+02  0.19715170021E+01  0.25700231408E+03  0.29703437955E+03  0.12509103244E+03 0.  0.
         24    2    1    2    0    0  0.30518781063E+01 -0.52903996875E+02  0.63314054023E+03  0.64060677936E+03  0.81865470378E+02 0.  0.
        -13    1    5    5    0    0  0.25293934818E+02 -0.52054195538E+02  0.24163809405E+03  0.24847211294E+03  0.00000000000E+00 0.  1.
         14    1    5    5    0    0 -0.22242056711E+02 -0.84980133673E+00  0.39150244617E+03  0.39213466642E+03  0.00000000000E+00 0. -1.
         11    1    3    3    0    0 -0.43911042063E+01 -0.11092041723E+02 -0.43735251569E+02  0.45333071985E+02  0.00000000000E+00 0. -1.
        -12    1    3    3    0    0  0.82132665897E+02  0.62024521596E+02 -0.12377770944E+04  0.12420486913E+04  0.00000000000E+00 0.  1.
          5    1    4    4  501    0  0.86506175198E+01  0.43641960678E+02  0.46374954547E+02  0.64401573929E+02  0.41800000000E+01 0. -1.
         -5    1    4    4    0  501 -0.89444057317E+02 -0.41670443676E+02  0.21062735954E+03  0.23263280562E+03  0.41800000000E+01 0. -1.
</event>
<event>
11    1  0.1078607E-008  0.1276205E+03  0.7561462E-02  0.1122228E+00
         22   -1    0    0    0    0  0.00000000000E+00  0.00000000000E+00  0.55670994334E+03  0.55670994334E+03  0.00000000000E+00 0. -1.
         22   -1    0    0    0    0 -0.00000000000E+00 -0.00000000000E+00 -0.17156802652E+03  0.17156802652E+03  0.00000000000E+00 0. -1.
         24    2    1    2    0    0  0.12914825657E+02 -0.21775548656E+02 -0.12444291197E+03  0.15036227226E+03  0.80509672320E+02 0.  0.
         25    2    1    2    0    0 -0.13462245245E+02  0.21054598255E+02  0.10372413736E+03  0.16441033400E+03  0.12509009992E+03 0.  0.
        -24    2    1    2    0    0  0.54741958825E+00  0.72095040122E+00  0.40586069143E+03  0.41350536361E+03  0.79138899688E+02 0.  0.
        -11    1    3    3    0    0  0.11591876148E+02 -0.95582543380E+01  0.82236640585E+01  0.17127768949E+02  0.00000000000E+00 0.  1.
         12    1    3    3    0    0  0.13229495091E+01 -0.12217294318E+02 -0.13266657603E+03  0.13323450331E+03  0.00000000000E+00 0. -1.
         13    1    5    5    0    0  0.71385752245E+01  0.31002955590E+02  0.33040707584E+03  0.33193520192E+03  0.00000000000E+00 0. -1.
        -14    1    5    5    0    0 -0.65911556362E+01 -0.30282005189E+02  0.75453615594E+02  0.81570161684E+02  0.00000000000E+00 0.  1.
          5    1    4    4  501    0 -0.42638353295E+02 -0.36897978229E+02  0.23711941378E+02  0.61312466376E+02  0.41800000000E+01 0. -1.
         -5    1    4    4    0  501  0.29176108050E+02  0.57952576484E+02  0.80012195985E+02  0.10309786762E+03  0.41800000000E+01 0. -1.
</event>
<event>
11    1  0.1078607E-008  0.1352620E+03  0.7561462E-02  0.1112968E+00
         22   -1    0    0    0    0  0.00000000000E+00  0.00000000000E+00  0.15405245285E+03  0.15405245285E+03  0.00000000000E+00 0. -1.
         22   -1    0    0    0    0 -0.00000000000E+00 -0.00000000000E+00 -0.63921970342E+03  0.63921970342E+03  0.00000000000E+00 0.  1.
         24    2    1    2    0    0 -0.14689777613E+02  0.59629557966E+01 -0.44959171395E+03  0.45665479837E+03  0.78419061563E+02 0.  0.
         25    2    1    2    0    0  0.62010340158E+01 -0.56418058300E+02 -0.14089514729E+03  0.19676398381E+03  0.12507266957E+03 0.  0.
        -24    2    1    2    0    0  0.84887435969E+01  0.50455102504E+02  0.10531961067E+03  0.13985337408E+03  0.76478557217E+02 0.  0.
        -13    1    3    3    0    0 -0.50718522876E+01 -0.34270155295E+02 -0.13584743526E+03  0.14019519570E+03  0.00000000000E+00 0.  1.
         14    1    3    3    0    0 -0.96179253252E+01  0.40233111092E+02 -0.31374427869E+03  0.31645960267E+03  0.00000000000E+00 0. -1.
         13    1    5    5    0    0  0.27275883051E+02  0.48189618545E+02  0.10738158931E+03  0.12081812304E+03  0.00000000000E+00 0. -1.
        -14    1    5    5    0    0 -0.18787139454E+02  0.22654839583E+01 -0.20619786391E+01  0.19035251045E+02  0.00000000000E+00 0.  1.
          5    1    4    4  501    0  0.60726230061E+02 -0.48313412445E+02 -0.10582992505E+03  0.13129853874E+03  0.41800000000E+01 0. -1.
         -5    1    4    4    0  501 -0.54525196045E+02 -0.81046458548E+01 -0.35065222238E+02  0.65465445074E+02  0.41800000000E+01 0. -1.
</event>
<event>
11    1  0.1078607E-008  0.1408353E+03  0.7561462E-02  0.1106629E+00
         22   -1    0    0    0    0  0.00000000000E+00  0.00000000000E+00  0.67414985088E+03  0.67414985088E+03  0.00000000000E+00 0.  1.
         22   -1    0    0    0    0 -0.00000000000E+00 -0.00000000000E+00 -0.58638842372E+03  0.58638842372E+03  0.00000000000E+00 0.  1.
        -24    2    1    2    0    0  0.25367589323E+02 -0.59988814450E+02 -0.52055621817E+03  0.53096085013E+03  0.81844215726E+02 0.  0.
         25    2    1    2    0    0 -0.27277950340E+00  0.62397665210E+02  0.27106327958E+02  0.14239203744E+03  0.12508875360E+03 0.  0.
         24    2    1    2    0    0 -0.25094809819E+02 -0.24088507598E+01  0.58121131738E+03  0.58718538703E+03  0.79652565886E+02 0.  0.
        -11    1    5    5    0    0 -0.32073014543E+02 -0.24141304594E+02  0.52477308933E+03  0.52630625697E+03  0.00000000000E+00 0.  1.
         12    1    5    5    0    0  0.69782047231E+01  0.21732453834E+02  0.56438228054E+02  0.60879130059E+02  0.00000000000E+00 0. -1.
         11    1    3    3    0    0  0.31987281744E+02 -0.12513618570E+02 -0.71165835741E+02  0.79021218795E+02  0.00000000000E+00 0. -1.
        -12    1    3    3    0    0 -0.66196924211E+01 -0.47475195880E+02 -0.44939038243E+03  0.45193963133E+03  0.00000000000E+00 0.  1.
          5    1    4    4  501    0 -0.19597513478E+02  0.12219222210E+02 -0.45942606793E+02  0.51590381321E+02  0.41800000000E+01 0.  1.
         -5    1    4    4    0  501  0.19324733974E+02  0.50178443000E+02  0.73048934751E+02  0.90801656116E+02  0.41800000000E+01 0.  1.
</event>
<event>
11    1  0.1078607E-008  0.7789027E+03  0.7561462E-02  0.8923480E-01
         22   -1    0    0    0    0  0.00000000000E+00  0.00000000000E+00  0.46814248776E+03  0.46814248776E+03  0.00000000000E+00 0. -1.
         22   -1    0    0    0    0 -0.00000000000E+00 -0.00000000000E+00 -0.17523456302E+04  0.17523456302E+04  0.00000000000E+00 0. -1.
        -24    2    1    2    0    0 -0.51912368103E+03 -0.49570093533E+03 -0.74371361874E+03  0.10365443011E+04  0.78136598032E+02 0.  0.
         25    2    1    2    0    0  0.61853392783E+03  0.58218284636E+03 -0.56499606012E+03  0.10278092471E+04  0.12510081510E+03 0.  0.
         24    2    1    2    0    0 -0.99410246802E+02 -0.86481911028E+02  0.24506536398E+02  0.15613456982E+03  0.80099409880E+02 0.  0.
        -11    1    5    5    0    0 -0.42527239658E+02 -0.85179077898E+02  0.27682176218E+02  0.99148092794E+02  0.00000000000E+00 0.  1.
         12    1    5    5    0    0 -0.56883007143E+02 -0.13028331302E+01 -0.31756398200E+01  0.56986477028E+02  0.00000000000E+00 0. -1.
         13    1    3    3    0    0 -0.11972957701E+03 -0.12433905263E+03 -0.13406326584E+03  0.21855967347E+03  0.00000000000E+00 0. -1.
        -14    1    3    3    0    0 -0.39939410401E+03 -0.37136188270E+03 -0.60965035290E+03  0.81798462763E+03  0.00000000000E+00 0.  1.
          5    1    4    4  501    0  0.48729708606E+03  0.41491583375E+03 -0.36991774201E+03  0.73923623249E+03  0.41800000000E+01 0. -1.
         -5    1    4    4    0  501  0.13123684177E+03  0.16726701261E+03 -0.19507831810E+03  0.28857301457E+03  0.41800000000E+01 0. -1.
</event>
<event>
11    1  0.1078607E-008  0.1325549E+03  0.7561462E-02  0.1116169E+00
         22   -1    0    0    0    0  0.00000000000E+00  0.00000000000E+00  0.27051961752E+04  0.27051961752E+04  0.00000000000E+00 0. -1.
         22   -1    0    0    0    0 -0.00000000000E+00 -0.00000000000E+00 -0.86677865781E+02  0.86677865781E+02  0.00000000000E+00 0.  1.
         24    2    1    2    0    0 -0.27145183330E+02  0.32184861536E+02 -0.45936344127E+02  0.96954585768E+02  0.74278649016E+02 0.  0.
         25    2    1    2    0    0  0.56333486843E+02 -0.41473029148E+02  0.34078086535E+03  0.36969273803E+03  0.12509056109E+03 0.  0.
        -24    2    1    2    0    0 -0.29188303513E+02  0.92881676125E+01  0.23236737882E+04  0.23252267171E+04  0.79253928972E+02 0.  0.
        -11    1    3    3    0    0 -0.26678840901E+02  0.51224749969E+02 -0.51213188854E+02  0.77191490942E+02  0.00000000000E+00 0.  1.
         12    1    3    3    0    0 -0.46634242846E+00 -0.19039888434E+02  0.52768447276E+01  0.19763094826E+02  0.00000000000E+00 0. -1.
         11    1    5    5    0    0 -0.30347657061E+02  0.49190628869E+01  0.23167745435E+04  0.23169785202E+04  0.00000000000E+00 0. -1.
        -12    1    5    5    0    0  0.11593535486E+01  0.43691047257E+01  0.68992446574E+01  0.82481969907E+01  0.00000000000E+00 0.  1.
          5    1    4    4  501    0 -0.12325904405E+02 -0.66287280509E+02  0.19919825467E+03  0.21034102914E+03  0.41800000000E+01 0.  1.
         -5    1    4    4    0  501  0.68659391247E+02  0.24814251361E+02  0.14158261068E+03  0.15935170888E+03  0.41800000000E+01 0.  1.
</event>
<event>
11    1  0.1078607E-008  0.2005789E+03  0.7561462E-02  0.1054115E+00
         22   -1    0    0    0    0  0.00000000000E+00  0.00000000000E+00  0.34158304390E+03  0.34158304390E+03  0.00000000000E+00 0. -1.
         22   -1    0    0    0    0 -0.00000000000E+00 -0.00000000000E+00 -0.26852183904E+03  0.26852183904E+03  0.00000000000E+00 0. -1.
        -24    2    1    2    0    0  0.97461364982E+02  0.13635195796E+03 -0.82457982968E+01  0.18554683558E+03  0.79177401459E+02 0.  0.
         25    2    1    2    0    0  0.11184940630E+03 -0.52541579113E+02  0.32676631222E+02  0.17884718829E+03  0.12509055642E+03 0.  0.
         24    2    1    2    0    0 -0.20931077129E+03 -0.83810378842E+02  0.48630371933E+02  0.24571085906E+03  0.84697902028E+02 0.  0.
        -11    1    5    5    0    0 -0.69228584478E+02 -0.61428847959E+02  0.47089138815E+02  0.10384357113E+03  0.00000000000E+00 0.  1.
         12    1    5    5    0    0 -0.14008218681E+03 -0.22381530883E+02  0.15412331186E+01  0.14186728793E+03  0.00000000000E+00 0. -1.
         13    1    3    3    0    0  0.10896416354E+03  0.10746653285E+03  0.12139178194E+01  0.15304809119E+03  0.00000000000E+00 0. -1.
        -14    1    3    3    0    0 -0.11502798560E+02  0.28885425102E+02 -0.94597161163E+01  0.32498744392E+02  0.00000000000E+00 0.  1.
          5    1    4    4  501    0  0.40376532865E+02 -0.81265065168E+02 -0.87955340030E+01  0.91263952585E+02  0.41800000000E+01 0.  1.
         -5    1    4    4    0  501  0.71472873439E+02  0.28723486054E+02  0.41472165225E+02  0.87583235709E+02  0.41800000000E+01 0.  1.
</event>
<event>
11    1  0.1078607E-008  0.2483689E+03  0.7561462E-02  0.1024772E+00
         22   -1    0    0    0    0  0.00000000000E+00  0.00000000000E+00  0.38607939901E+03  0.38607939901E+03  0.00000000000E+00 0.  1.
         22   -1    0    0    0    0 -0.00000000000E+00 -0.00000000000E+00 -0.10509785907E+04  0.10509785907E+04  0.00000000000E+00 0. -1.
        -24    2    1    2    0    0 -0.10771123532E+03  0.17662538664E+03 -0.56906712725E+03  0.61099639862E+03  0.81737178733E+02 0.  0.
         25    2    1    2    0    0  0.16347206440E+03 -0.16540904542E+03 -0.41484793643E+03  0.49176018481E+03  0.12508397521E+03 0.  0.
         24    2    1    2    0    0 -0.55760829086E+02 -0.11216341224E+02  0.31901587202E+03  0.33430140626E+03  0.82165852136E+02 0.  0.
        -11    1    5    5    0    0 -0.72335391664E+02 -0.20522071684E+02  0.29018707364E+03  0.29977008193E+03  0.00000000000E+00 0.  1.
         12    1    5    5    0    0  0.16574562578E+02  0.93057304592E+01  0.28828798384E+02  0.34531324335E+02  0.00000000000E+00 0. -1.
         11    1    3    3    0    0 -0.11132861397E+03  0.11517639554E+03 -0.43196971051E+03  0.46071411220E+03  0.00000000000E+00 0. -1.
        -12    1    3    3    0    0  0.36173786473E+01  0.61448991105E+02 -0.13709741674E+03  0.15028228643E+03  0.00000000000E+00 0.  1.
          5    1    4    4  501    0  0.60763892242E+01 -0.74781301187E+02 -0.73691926683E+02  0.10524798322E+03  0.41800000000E+01 0.  1.
         -5    1    4    4    0  501  0.15739567518E+03 -0.90627744232E+02 -0.34115600975E+03  0.38651220159E+03  0.41800000000E+01 0.  1.
</event>
<event>
11    1  0.1078607E-008  0.1418316E+03  0.7561462E-02  0.1105530E+00
         22   -1    0    0    0    0  0.00000000000E+00  0.00000000000E+00  0.28910497103E+03  0.28910497103E+03  0.00000000000E+00 0.  1.
         22   -1    0    0    0    0 -0.00000000000E+00 -0.00000000000E+00 -0.22342567204E+03  0.22342567204E+03  0.00000000000E+00 0. -1.
        -24    2    1    2    0    0 -0.49198154216E+02  0.22190650673E+01 -0.92505769568E+02  0.13466045666E+03  0.84562039686E+02 0.  0.
         25    2    1    2    0    0  0.53731832292E+02 -0.67982613976E+02 -0.36806383175E+02  0.15656005101E+03  0.12509034386E+03 0.  0.
         24    2    1    2    0    0 -0.45336780760E+01  0.65763548909E+02  0.19499145173E+03  0.22131013539E+03  0.81308739865E+02 0.  0.
        -13    1    5    5    0    0 -0.23938275943E+02 -0.42974507107E+01  0.18897122080E+02  0.30799518838E+02  0.00000000000E+00 0.  1.
         14    1    5    5    0    0  0.19404597867E+02  0.70060999620E+02  0.17609432965E+03  0.19051061656E+03  0.00000000000E+00 0. -1.
         11    1    3    3    0    0 -0.72109835097E+02 -0.82601395665E+01 -0.66222967259E+02  0.98252428042E+02  0.00000000000E+00 0. -1.
        -12    1    3    3    0    0  0.22911680881E+02  0.10479204634E+02 -0.26282802309E+02  0.36408028617E+02  0.00000000000E+00 0.  1.
          5    1    4    4  501    0  0.81718799821E+02 -0.48268826731E+02  0.13096101212E+02  0.95900063321E+02  0.41800000000E+01 0.  1.
         -5    1    4    4    0  501 -0.27986967528E+02 -0.19713787245E+02 -0.49902484387E+02  0.60659987693E+02  0.41800000000E+01 0.  1.
</event>
<event>
11    1  0.1078607E-008  0.4183297E+03  0.7561462E-02  0.9597171E-01
         22   -1    0    0    0    0  0.00000000000E+00  0.00000000000E+00  0.31642043980E+04  0.31642043980E+04  0.00000000000E+00 0. -1.
         22   -1    0    0    0    0 -0.00000000000E+00 -0.00000000000E+00 -0.54946660964E+03  0.54946660964E+03  0.00000000000E+00 0.  1.
        -24    2    1    2    0    0  0.20993596965E+03  0.33766918148E+03 -0.32964218454E+03  0.52251701451E+03  0.79161058259E+02 0.  0.
         25    2    1    2    0    0 -0.22629197326E+03 -0.33636363023E+03  0.24383008006E+03  0.48933568000E+03  0.12509097040E+03 0.  0.
         24    2    1    2    0    0  0.16356003603E+02 -0.13055512534E+01  0.27005498928E+04  0.27018183131E+04  0.81137230439E+02 0.  0.
        -11    1    5    5    0    0 -0.25990035669E+02 -0.23376564634E+02  0.10865869136E+04  0.10871490544E+04  0.00000000000E+00 0.  1.
         12    1    5    5    0    0  0.42346039273E+02  0.22071013381E+02  0.16139629793E+04  0.16146692587E+04  0.00000000000E+00 0. -1.
         13    1    3    3    0    0  0.16346047981E+03  0.31119324682E+03 -0.29385977267E+03  0.45816386950E+03  0.00000000000E+00 0. -1.
        -14    1    3    3    0    0  0.46475489848E+02  0.26475934665E+02 -0.35782411869E+02  0.64353145006E+02  0.00000000000E+00 0.  1.
          5    1    4    4  501    0 -0.83206331827E+02 -0.16953099751E+03  0.17878328421E+03  0.26008650078E+03  0.41800000000E+01 0.  1.
         -5    1    4    4    0  501 -0.14308564143E+03 -0.16683263271E+03  0.65046795848E+02  0.22924917922E+03  0.41800000000E+01 0.  1.
</event>
<event>
11    1  0.1078607E-008  0.1383701E+03  0.7561462E-02  0.1109392E+00
         22   -1    0    0    0    0  0.00000000000E+00  0.00000000000E+00  0.16462283002E+03  0.16462283002E+03  0.00000000000E+00 0. -1.
         22   -1    0    0    0    0 -0.00000000000E+00 -0.00000000000E+00 -0.11522187348E+04  0.11522187348E+04  0.00000000000E+00 0.  1.
         24    2    1    2    0    0 -0.21514390430E+02 -0.17011451136E+02 -0.53944536904E+03  0.54598741205E+03  0.79678663887E+02 0.  0.
         25    2    1    2    0    0  0.71141409096E+02 -0.14710063998E+02 -0.58415730125E+03  0.60180166764E+03  0.12509200012E+03 0.  0.
        -24    2    1    2    0    0 -0.49627018667E+02  0.31721515134E+02  0.13600676548E+03  0.16905248516E+03  0.81313018510E+02 0.  0.
        -13    1    3    3    0    0 -0.43820453811E+02 -0.19094446900E+01 -0.46026670748E+03  0.46235194404E+03  0.00000000000E+00 0.  1.
         14    1    3    3    0    0  0.22306063381E+02 -0.15102006446E+02 -0.79178661562E+02  0.83635468008E+02  0.00000000000E+00 0. -1.
         13    1    5    5    0    0 -0.46632676492E+02  0.28528581383E+02  0.14720558829E+03  0.15702856969E+03  0.00000000000E+00 0. -1.
        -14    1    5    5    0    0 -0.29943421746E+01  0.31929337509E+01 -0.11198822814E+02  0.12023915477E+02  0.00000000000E+00 0.  1.
          5    1    4    4  501    0  0.44378091438E+02  0.53577724024E+02 -0.24138680767E+03  0.25124699168E+03  0.41800000000E+01 0.  1.
         -5    1    4    4    0  501  0.26763317659E+02 -0.68287788023E+02 -0.34277049359E+03  0.35055467596E+03  0.41800000000E+01 0.  1.
</event>
<event>
11    1  0.1078607E-008  0.3440348E+03  0.7561462E-02  0.9831047E-01
         22   -1    0    0    0    0  0.00000000000E+00  0.00000000000E+00  0.21389126662E+04  0.21389126662E+04  0.00000000000E+00 0. -1.
         22   -1    0    0    0    0 -0.00000000000E+00 -0.00000000000E+00 -0.86074747439E+03  0.86074747439E+03  0.00000000000E+00 0. -1.
        -24    2    1    2    0    0  0.29425708639E+03 -0.12990517930E+03 -0.78901483415E+03  0.85592284759E+03  0.81221450513E+02 0.  0.
         25    2    1    2    0    0 -0.27446156090E+03  0.11150240353E+03  0.66126116439E+03  0.73530625591E+03  0.12508808111E+03 0.  0.
         24    2    1    2    0    0 -0.19795525486E+02  0.18402775773E+02  0.14059188616E+04  0.14084310371E+04  0.79621705307E+02 0.  0.
        -13    1    5    5    0    0 -0.22837049744E+02  0.40433131531E+02  0.47905031219E+03  0.48129572050E+03  0.00000000000E+00 0.  1.
         14    1    5    5    0    0  0.30415242586E+01 -0.22030355758E+02  0.92686854939E+03  0.92713531660E+03  0.00000000000E+00 0. -1.
         13    1    3    3    0    0  0.23462390122E+03 -0.13464824341E+03 -0.67449104831E+03  0.72671638122E+03  0.00000000000E+00 0. -1.
        -14    1    3    3    0    0  0.59633185161E+02  0.47430641138E+01 -0.11452378584E+03  0.12920646638E+03  0.00000000000E+00 0.  1.
          5    1    4    4  501    0 -0.26364537334E+03  0.89498448532E+02  0.50148496699E+03  0.57360570054E+03  0.41800000000E+01 0. -1.
         -5    1    4    4    0  501 -0.10816187555E+02  0.22003954996E+02  0.15977619741E+03  0.16170055537E+03  0.41800000000E+01 0. -1.
</event>
<event>
11    1  0.1078607E-008  0.2192035E+03  0.7561462E-02  0.1041718E+00
         22   -1    0    0    0    0  0.00000000000E+00  0.00000000000E+00  0.17417097272E+03  0.17417097272E+03  0.00000000000E+00 0. -1.
         22   -1    0    0    0    0 -0.00000000000E+00 -0.00000000000E+00 -0.48397034802E+03  0.48397034802E+03  0.00000000000E+00 0.  1.
         24    2    1    2    0    0  0.17558275438E+03  0.70276216885E+02 -0.30178133808E+03  0.36525934554E+03  0.81082446917E+02 0.  0.
         25    2    1    2    0    0 -0.13595836544E+03 -0.76852603625E+02 -0.28759226819E+02  0.20215233636E+03  0.12508986430E+03 0.  0.
        -24    2    1    2    0    0 -0.39624388935E+02  0.65763867400E+01  0.20741189599E+02  0.90729638842E+02  0.78665935178E+02 0.  0.
        -11    1    3    3    0    0  0.11288928997E+03  0.17727698235E+01 -0.16722573812E+03  0.20177111288E+03  0.00000000000E+00 0.  1.
         12    1    3    3    0    0  0.62693464410E+02  0.68503447061E+02 -0.13455559996E+03  0.16348823266E+03  0.00000000000E+00 0. -1.
         11    1    5    5    0    0 -0.30095323591E+02 -0.48047410083E+01  0.49635747638E+02  0.58245355882E+02  0.00000000000E+00 0. -1.
        -12    1    5    5    0    0 -0.95290653432E+01  0.11381127748E+02 -0.28894558039E+02  0.32484282960E+02  0.00000000000E+00 0.  1.
          5    1    4    4  501    0 -0.96676333295E+02 -0.10829030949E+03 -0.25051974947E+01  0.14524755751E+03  0.41800000000E+01 0.  1.
         -5    1    4    4    0  501 -0.39282032150E+02  0.31437705866E+02 -0.26254029325E+02  0.56904778847E+02  0.41800000000E+01 0.  1.
</event>
<event>
11    1  0.1078607E-008  0.2036454E+03  0.7561462E-02  0.1051975E+00
         22   -1    0    0    0    0  0.00000000000E+00  0.00000000000E+00  0.29714997162E+03  0.29714997162E+03  0.00000000000E+00 0. -1.
         22   -1    0    0    0    0 -0.00000000000E+00 -0.00000000000E+00 -0.60295922209E+03  0.60295922209E+03  0.00000000000E+00 0. -1.
         24    2    1    2    0    0  0.14390228388E+03  0.10244122194E+03 -0.45064655207E+03  0.49044096650E+03  0.79044009686E+02 0.  0.
         25    2    1    2    0    0 -0.74178442191E+02 -0.88011960941E+02 -0.58519012911E+02  0.17978187770E+03  0.12509397317E+03 0.  0.
        -24    2    1    2    0    0 -0.69723841685E+02 -0.14429261003E+02  0.20335631452E+03  0.22988634951E+03  0.80151889351E+02 0.  0.
        -13    1    3    3    0    0  0.95371953251E+02  0.23282052120E+02 -0.19219498144E+03  0.21581652928E+03  0.00000000000E+00 0.  1.
         14    1    3    3    0    0  0.48530330626E+02  0.79159169823E+02 -0.25845157063E+03  0.27462443722E+03  0.00000000000E+00 0. -1.
         11    1    5    5    0    0  0.15011463970E+02 -0.21388777475E+00  0.67435347861E+02  0.69086293428E+02  0.00000000000E+00 0. -1.
        -12    1    5    5    0    0 -0.84735305655E+02 -0.14215373228E+02  0.13592096665E+03  0.16080005609E+03  0.00000000000E+00 0.  1.
          5    1    4    4  501    0 -0.10542343232E+03 -0.88994058203E+02 -0.52496974066E+02  0.14767344773E+03  0.41800000000E+01 0. -1.
         -5    1    4    4    0  501  0.31244990132E+02  0.98209726193E+00 -0.60220388451E+01  0.32108429972E+02  0.41800000000E+01 0. -1.
</event>
<event>
11    1  0.1078607E-008  0.1376504E+03  0.7561462E-02  0.1110211E+00
         22   -1    0    0    0    0  0.00000000000E+00  0.00000000000E+00  0.19322503771E+04  0.19322503771E+04  0.00000000000E+00 0. -1.
         22   -1    0    0    0    0 -0.00000000000E+00 -0.00000000000E+00 -0.60233867087E+02  0.60233867087E+02  0.00000000000E+00 0.  1.
        -24    2    1    2    0    0  0.24206827088E+02 -0.27658074779E+01 -0.10116992718E+02  0.83699340733E+02  0.79433027947E+02 0.  0.
         25    2    1    2    0    0 -0.61476144500E+02  0.43357346734E+02  0.44535132775E+03  0.46866227287E+03  0.12508934818E+03 0.  0.
         24    2    1    2    0    0  0.37269317412E+02 -0.40591539256E+02  0.14367821750E+04  0.14401226306E+04  0.81077109519E+02 0.  0.
        -13    1    5    5    0    0  0.57608996479E+02 -0.16771530387E+02  0.66383263124E+03  0.66653870330E+03  0.00000000000E+00 0.  1.
         14    1    5    5    0    0 -0.20339679067E+02 -0.23820008869E+02  0.77294954378E+03  0.77358392731E+03  0.00000000000E+00 0. -1.
         11    1    3    3    0    0 -0.13366920792E+02 -0.90203639987E+00  0.27443295512E+02  0.30538872109E+02  0.00000000000E+00 0. -1.
        -12    1    3    3    0    0  0.37573747880E+02 -0.18637710781E+01 -0.37560288230E+02  0.53160468624E+02  0.00000000000E+00 0.  1.
          5    1    4    4  501    0 -0.42183553945E+02 -0.18072465200E+02  0.35304691120E+03  0.35604165505E+03  0.41800000000E+01 0.  1.
         -5    1    4    4    0  501 -0.19292590555E+02  0.61429811934E+02  0.92304416548E+02  0.11262061782E+03  0.41800000000E+01 0.  1.
</event>
<event>
11    1  0.1078607E-008  0.1416611E+03  0.7561462E-02  0.1105718E+00
         22   -1    0    0    0    0  0.00000000000E+00  0.00000000000E+00  0.32786170107E+03  0.32786170107E+03  0.00000000000E+00 0. -1.
         22   -1    0    0    0    0 -0.00000000000E+00 -0.00000000000E+00 -0.60244070398E+03  0.60244070398E+03  0.00000000000E+00 0. -1.
         24    2    1    2    0    0  0.28453765009E+01  0.24638983743E+02 -0.49813520500E+03  0.50549207526E+03  0.82270164709E+02 0.  0.
         25    2    1    2    0    0  0.44838196406E+02  0.24487974162E+02 -0.39981955180E+02  0.14090941859E+03  0.12508710075E+03 0.  0.
        -24    2    1    2    0    0 -0.47683572906E+02 -0.49126957906E+02  0.26353815728E+03  0.28390091119E+03  0.80375281753E+02 0.  0.
        -13    1    3    3    0    0  0.21967323644E+02 -0.20805950684E+02 -0.10484421309E+03  0.10912268284E+03  0.00000000000E+00 0.  1.
         14    1    3    3    0    0 -0.19121947143E+02  0.45444934428E+02 -0.39329099192E+03  0.39636939242E+03  0.00000000000E+00 0. -1.
         13    1    5    5    0    0 -0.42769288315E+02 -0.63268510419E+02  0.25598230114E+03  0.26713115680E+03  0.00000000000E+00 0. -1.
        -14    1    5    5    0    0 -0.49142845913E+01  0.14141552514E+02  0.75558561336E+01  0.16769754395E+02  0.00000000000E+00 0.  1.
          5    1    4    4  501    0  0.41712199535E+02  0.41201186156E+02  0.31933639344E+02  0.66893011986E+02  0.41800000000E+01 0.  1.
         -5    1    4    4    0  501  0.31259968703E+01 -0.16713211994E+02 -0.71915594524E+02  0.74016406609E+02  0.41800000000E+01 0.  1.
</event>
<event>
11    1  0.1078607E-008  0.1363124E+03  0.7561462E-02  0.1111748E+00
         22   -1    0    0    0    0  0.00000000000E+00  0.00000000000E+00  0.60697185428E+03  0.60697185428E+03  0.00000000000E+00 0.  1.
         22   -1    0    0    0    0 -0.00000000000E+00 -0.00000000000E+00 -0.17532490467E+03  0.17532490467E+03  0.00000000000E+00 0.  1.
        -24    2    1    2    0    0  0.52434183983E+02  0.40264880778E+01 -0.13401239682E+03  0.16373414782E+03  0.77999951305E+02 0.  0.
         25    2    1    2    0    0 -0.83364329054E+02  0.15783450549E+01  0.25396068827E+03  0.29512164825E+03  0.12509457840E+03 0.  0.
         24    2    1    2    0    0  0.30930145071E+02 -0.56048331327E+01  0.31169865817E+03  0.32344096288E+03  0.80435781451E+02 0.  0.
        -13    1    5    5    0    0 -0.40674494116E+01 -0.94164131041E+01  0.26378543174E+03  0.26398478550E+03  0.00000000000E+00 0.  1.
         14    1    5    5    0    0  0.34997594482E+02  0.38115799714E+01  0.47913226429E+02  0.59456177377E+02  0.00000000000E+00 0. -1.
         11    1    3    3    0    0 -0.15427037668E+02 -0.12909353603E+02 -0.53096492217E+02  0.56779242575E+02  0.00000000000E+00 0. -1.
        -12    1    3    3    0    0  0.67861221651E+02  0.16935841681E+02 -0.80915904606E+02  0.10695490524E+03  0.00000000000E+00 0.  1.
          5    1    4    4  501    0 -0.70179868252E+02  0.35106825306E+02  0.62919224359E+02  0.10066779170E+03  0.41800000000E+01 0. -1.
         -5    1    4    4    0  501 -0.13184460801E+02 -0.33528480251E+02  0.19104146392E+03  0.19445385656E+03  0.41800000000E+01 0. -1.
</event>
<event>
11    1  0.1078607E-008  0.2426038E+03  0.7561462E-02  0.1027915E+00
         22   -1    0    0    0    0  0.00000000000E+00  0.00000000000E+00  0.12227509560E+04  0.12227509560E+04  0.00000000000E+00 0.  1.
         22   -1    0    0    0    0 -0.00000000000E+00 -0.00000000000E+00 -0.77107189109E+03  0.77107189109E+03  0.00000000000E+00 0.  1.
         24    2    1    2    0    0 -0.77252930258E+02 -0.18909554373E+03 -0.65273697556E+03  0.68864591100E+03  0.80265133028E+02 0.  0.
         25    2    1    2    0    0 -0.45398248393E+02  0.30629790681E+03  0.21791656760E+03  0.39876700441E+03  0.12509230473E+03 0.  0.
        -24    2    1    2    0    0  0.12265117865E+03 -0.11720236308E+03  0.88649947292E+03  0.90640993171E+03  0.83174174363E+02 0.  0.
        -11    1    3    3    0    0 -0.23606255528E+02 -0.68375212925E+02 -0.36408133341E+03  0.37119757863E+03  0.00000000000E+00 0.  1.
         12    1    3    3    0    0 -0.53646674730E+02 -0.12072033080E+03 -0.28865564215E+03  0.31744833237E+03  0.00000000000E+00 0. -1.
         11    1    5    5    0    0  0.15401138295E+02 -0.42808019828E+02  0.11032657284E+03  0.11933848623E+03  0.00000000000E+00 0. -1.
        -12    1    5    5    0    0  0.10725004036E+03 -0.74394343253E+02  0.77617290008E+03  0.78707144548E+03  0.00000000000E+00 0.  1.
          5    1    4    4  501    0 -0.55302349974E+02  0.27796240715E+03  0.23110422724E+03  0.36571585412E+03  0.41800000000E+01 0.  1.
         -5    1    4    4    0  501  0.99041015807E+01  0.28335499656E+02 -0.13187659647E+02  0.33051150295E+02  0.41800000000E+01 0.  1.
</event>
<event>
11    1  0.1078607E-008  0.3523951E+03  0.7561462E-02  0.9801704E-01
         22   -1    0    0    0    0  0.00000000000E+00  0.00000000000E+00  0.72048201507E+03  0.72048201507E+03  0.00000000000E+00 0. -1.
         22   -1    0    0    0    0 -0.00000000000E+00 -0.00000000000E+00 -0.13281993016E+04  0.13281993016E+04  0.00000000000E+00 0. -1.
         24    2    1    2    0    0 -0.31340820355E+03 -0.95286277710E+02 -0.12190776813E+04  0.12651081847E+04  0.83929429830E+02 0.  0.
         25    2    1    2    0    0  0.36037382866E+03  0.10495650571E+03  0.49418987333E+03  0.63305304135E+03  0.12508939921E+03 0.  0.
        -24    2    1    2    0    0 -0.46965625113E+02 -0.96702279976E+01  0.11717052142E+03  0.15052009063E+03  0.81413041598E+02 0.  0.
        -11    1    3    3    0    0 -0.24084842383E+02 -0.29310014154E+02 -0.20594892790E+03  0.20941374708E+03  0.00000000000E+00 0.  1.
         12    1    3    3    0    0 -0.28932336116E+03 -0.65976263556E+02 -0.10131287534E+04  0.10556944376E+04  0.00000000000E+00 0. -1.
         11    1    5    5    0    0 -0.42911590183E+02 -0.42709780438E+02  0.83831003370E+02  0.10340777071E+03  0.00000000000E+00 0. -1.
        -12    1    5    5    0    0 -0.40540349301E+01  0.33039552441E+02  0.33339518054E+02  0.47112319925E+02  0.00000000000E+00 0.  1.
          5    1    4    4  501    0  0.31344876647E+03  0.44077987528E+02  0.36998875074E+03  0.48693135683E+03  0.41800000000E+01 0. -1.
         -5    1    4    4    0  501  0.46925062190E+02  0.60878518179E+02  0.12420112259E+03  0.14612168453E+03  0.41800000000E+01 0. -1.
</event>
<event>
11    1  0.1078607E-008  0.2618215E+03  0.7561462E-02  0.1017784E+00
         22   -1    0    0    0    0  0.00000000000E+00  0.00000000000E+00  0.59836634708E+03  0.59836634708E+03  0.00000000000E+00 0.  1.
         22   -1    0    0    0    0 -0.00000000000E+00 -0.00000000000E+00 -0.79708908422E+03  0.79708908422E+03  0.00000000000E+00 0. -1.
        -24    2    1    2    0    0  0.19861643918E+03  0.96018893220E+02 -0.60830461232E+03  0.65617199512E+03  0.10889934822E+03 0.  0.
         25    2    1    2    0    0 -0.28212106030E+03 -0.93910790749E+02  0.96639692084E+01  0.32272602058E+03  0.12508861967E+03 0.  0.
         24    2    1    2    0    0  0.83504621124E+02 -0.21081024702E+01  0.39991790597E+03  0.41655741561E+03  0.81291347233E+02 0.  0.
        -11    1    5    5    0    0  0.64067981309E+02 -0.34333539012E+02  0.19277165743E+03  0.20602041170E+03  0.00000000000E+00 0.  1.
         12    1    5    5    0    0  0.19436639815E+02  0.32225436542E+02  0.20714624854E+03  0.21053700390E+03  0.00000000000E+00 0. -1.
         13    1    3    3    0    0  0.18718048072E+03  0.57197340012E+02 -0.41720738307E+03  0.46083627088E+03  0.00000000000E+00 0. -1.
        -14    1    3    3    0    0  0.11435958461E+02  0.38821553208E+02 -0.19109722925E+03  0.19533572424E+03  0.00000000000E+00 0.  1.
          5    1    4    4  501    0 -0.12183469732E+02  0.23427759302E+02 -0.77745141110E+01  0.27842634759E+02  0.41800000000E+01 0.  1.
         -5    1    4    4    0  501 -0.26993759057E+03 -0.11733855005E+03  0.17438483319E+02  0.29488338582E+03  0.41800000000E+01 0.  1.
</event>
<event>
11    1  0.1078607E-008  0.1511627E+03  0.7561462E-02  0.1095697E+00
         22   -1    0    0    0    0  0.00000000000E+00  0.00000000000E+00  0.23133746113E+03  0.23133746113E+03  0.00000000000E+00 0.  1.
         22   -1    0    0    0    0 -0.00000000000E+00 -0.00000000000E+00 -0.13742793215E+04  0.13742793215E+04  0.00000000000E+00 0. -1.
         24    2    1    2    0    0  0.80512589630E+02 -0.11288158569E+02 -0.10961563612E+04  0.11021389382E+04  0.80881217240E+02 0.  0.
         25    2    1    2    0    0 -0.11237201693E+03  0.66118102461E+02 -0.23081917986E+03  0.29313542931E+03  0.12510720388E+03 0.  0.
        -24    2    1    2    0    0  0.31859427300E+02 -0.54829943893E+02  0.18403368064E+03  0.21034241516E+03  0.79713174248E+02 0.  0.
        -11    1    3    3    0    0  0.13208204574E+01  0.23751765233E+02 -0.38412538942E+03  0.38486128114E+03  0.00000000000E+00 0.  1.
         12    1    3    3    0    0  0.79191769172E+02 -0.35039923801E+02 -0.71203097173E+03  0.71727765703E+03  0.00000000000E+00 0. -1.
         13    1    5    5    0    0  0.29639240605E+02 -0.75466889012E+02  0.14459011966E+03  0.16577104278E+03  0.00000000000E+00 0. -1.
        -14    1    5    5    0    0  0.22201866949E+01  0.20636945119E+02  0.39443560983E+02  0.44571372379E+02  0.00000000000E+00 0.  1.
          5    1    4    4  501    0 -0.17903089704E+00  0.45194171048E+01 -0.13001593275E+03  0.13016171615E+03  0.41800000000E+01 0.  1.
         -5    1    4    4    0  501 -0.11219298603E+03  0.61598685356E+02 -0.10080324711E+03  0.16297371316E+03  0.41800000000E+01 0.  1.
</event>
<event>
11    1  0.1078607E-008  0.1400283E+03  0.7561462E-02  0.1107527E+00
         22   -1    0    0    0    0  0.00000000000E+00  0.00000000000E+00  0.66977900650E+02  0.66977900650E+02  0.00000000000E+00 0.  1.
         22   -1    0    0    0    0 -0.00000000000E+00 -0.00000000000E+00 -0.16539755296E+04  0.16539755296E+04  0.00000000000E+00 0.  1.
        -24    2    1    2    0    0 -0.10199338264E+02 -0.10369780185E+02 -0.13232039534E+04  0.13256413505E+04  0.79023598112E+02 0.  0.
         25    2    1    2    0    0  0.65395221699E+02  0.35511526140E+02 -0.25543770084E+03  0.29399878714E+03  0.12509701963E+03 0.  0.
         24    2    1    2    0    0 -0.55195883435E+02 -0.25141745955E+02 -0.83559747426E+01  0.10131329263E+03  0.80720926722E+02 0.  0.
        -13    1    5    5    0    0  0.16240169371E+02  0.12221167506E+02 -0.26108052858E+01  0.20491860351E+02  0.00000000000E+00 0.  1.
         14    1    5    5    0    0 -0.71436052806E+02 -0.37362913462E+02 -0.57451694568E+01  0.80821432274E+02  0.00000000000E+00 0. -1.
         13    1    3    3    0    0  0.24338030686E+02 -0.57757271667E+01 -0.16244383251E+03  0.16435844208E+03  0.00000000000E+00 0. -1.
        -14    1    3    3    0    0 -0.34537368950E+02 -0.45940530182E+01 -0.11607601209E+04  0.11612829085E+04  0.00000000000E+00 0.  1.
          5    1    4    4  501    0 -0.12644522734E+02  0.27120947806E+02 -0.18806041294E+03  0.19047210053E+03  0.41800000000E+01 0.  1.
         -5    1    4    4    0  501  0.78039744433E+02  0.83905783342E+01 -0.67377287897E+02  0.10352668661E+03  0.41800000000E+01 0.  1.
</event>
<event>
11    1  0.1078607E-008  0.1359032E+03  0.7561462E-02  0.1112221E+00
         22   -1    0    0    0    0  0.00000000000E+00  0.00000000000E+00  0.29584245208E+03  0.29584245208E+03  0.00000000000E+00 0. -1.
         22   -1    0    0    0    0 -0.00000000000E+00 -0.00000000000E+00 -0.37300425301E+03  0.37300425301E+03  0.00000000000E+00 0.  1.
        -24    2    1    2    0    0 -0.11892958875E+02 -0.55442103565E+01 -0.31051460565E+03  0.32097621083E+03  0.80213632595E+02 0.  0.
         25    2    1    2    0    0  0.61705583278E+02 -0.41507944852E+01  0.64581678439E+02  0.15376350269E+03  0.12509042116E+03 0.  0.
         24    2    1    2    0    0 -0.49812624403E+02  0.96950048418E+01  0.16877112629E+03  0.19410699158E+03  0.81354412550E+02 0.  0.
        -11    1    5    5    0    0  0.35096363688E+01  0.19327817814E+02  0.11874759170E+03  0.12036142499E+03  0.00000000000E+00 0.  1.
         12    1    5    5    0    0 -0.53322260772E+02 -0.96328129722E+01  0.50023534585E+02  0.73745566592E+02  0.00000000000E+00 0. -1.
         11    1    3    3    0    0  0.31673368500E+02 -0.17350356613E+02 -0.13384765290E+03  0.13863416366E+03  0.00000000000E+00 0. -1.
        -12    1    3    3    0    0 -0.43566327375E+02  0.11806146257E+02 -0.17666695276E+03  0.18234204717E+03  0.00000000000E+00 0.  1.
          5    1    4    4  501    0  0.26601058986E+02  0.55404337480E+02  0.57288211019E+02  0.84122936662E+02  0.41800000000E+01 0. -1.
         -5    1    4    4    0  501  0.35104524292E+02 -0.59555131966E+02  0.72934674202E+01  0.69640566024E+02  0.41800000000E+01 0. -1.
</event>
<event>
11    1  0.1078607E-008  0.1315460E+03  0.7561462E-02  0.1117384E+00
         22   -1    0    0    0    0  0.00000000000E+00  0.00000000000E+00  0.10141684325E+04  0.10141684325E+04  0.00000000000E+00 0.  1.
         22   -1    0    0    0    0 -0.00000000000E+00 -0.00000000000E+00 -0.18997572434E+03  0.18997572434E+03  0.00000000000E+00 0. -1.
         24    2    1    2    0    0 -0.18974884788E+02  0.30891864427E+02 -0.10259953321E+03  0.13541186983E+03  0.80593776036E+02 0.  0.
         25    2    1    2    0    0  0.51786487849E+02 -0.36799170507E+02  0.25123749425E+01  0.14033092272E+03  0.12510170490E+03 0.  0.
        -24    2    1    2    0    0 -0.32811603061E+02  0.59073060807E+01  0.92427986638E+03  0.92840136426E+03  0.80773288933E+02 0.  0.
        -11    1    3    3    0    0  0.19252772772E+02  0.12403059032E+02 -0.87334572226E+02  0.90287499902E+02  0.00000000000E+00 0.  1.
         12    1    3    3    0    0 -0.38227657560E+02  0.18488805395E+02 -0.15264960980E+02  0.45124369925E+02  0.00000000000E+00 0. -1.
         13    1    5    5    0    0  0.25482055550E+02 -0.74331585411E+01  0.22236413959E+03  0.22394284444E+03  0.00000000000E+00 0. -1.
        -14    1    5    5    0    0 -0.58293658611E+02  0.13340464622E+02  0.70191572679E+03  0.70445851982E+03  0.00000000000E+00 0.  1.
          5    1    4    4  501    0 -0.23189028400E+02 -0.36217630618E+02  0.37754025462E+02  0.57378451045E+02  0.41800000000E+01 0.  1.
         -5    1    4    4    0  501  0.74975516249E+02 -0.58153988963E+00 -0.35241650520E+02  0.82952471674E+02  0.41800000000E+01 0.  1.
</event>
<event>
11    1  0.1078607E-008  0.1554247E+03  0.7561462E-02  0.1091461E+00
         22   -1    0    0    0    0  0.00000000000E+00  0.00000000000E+00  0.42813471400E+03  0.42813471400E+03  0.00000000000E+00 0.  1.
         22   -1    0    0    0    0 -0.00000000000E+00 -0.00000000000E+00 -0.24504479554E+03  0.24504479554E+03  0.00000000000E+00 0. -1.
         24    2    1    2    0    0  0.73040554869E+02 -0.45454850448E+02 -0.74452976175E+02  0.13946441842E+03  0.80659855313E+02 0.  0.
         25    2    1    2    0    0 -0.79005191767E+02  0.64625848502E+02 -0.84436171450E+02  0.18219535209E+03  0.12508940264E+03 0.  0.
        -24    2    1    2    0    0  0.59646368972E+01 -0.19170998054E+02  0.34197906609E+03  0.35151973902E+03  0.78824750054E+02 0.  0.
        -13    1    3    3    0    0  0.17355032247E+01  0.50357587785E+01  0.14095127193E+02  0.15067960994E+02  0.00000000000E+00 0.  1.
         14    1    3    3    0    0  0.71305051645E+02 -0.50490609226E+02 -0.88548103368E+02  0.12439645743E+03  0.00000000000E+00 0. -1.
         13    1    5    5    0    0  0.20731618150E+02 -0.76236072755E+01  0.22638475258E+02  0.31629415755E+02  0.00000000000E+00 0. -1.
        -14    1    5    5    0    0 -0.14766981253E+02 -0.11547390779E+02  0.31934059083E+03  0.31989032327E+03  0.00000000000E+00 0.  1.
          5    1    4    4  501    0  0.16577926203E+02  0.50810602555E+02  0.35451668113E+00  0.53611034790E+02  0.41800000000E+01 0.  1.
         -5    1    4    4    0  501 -0.95583117970E+02  0.13815245947E+02 -0.84790688132E+02  0.12858431730E+03  0.41800000000E+01 0.  1.
</event>
<event>
11    1  0.1078607E-008  0.1395028E+03  0.7561462E-02  0.1108115E+00
         22   -1    0    0    0    0  0.00000000000E+00  0.00000000000E+00  0.19361788951E+03  0.19361788951E+03  0.00000000000E+00 0. -1.
         22   -1    0    0    0    0 -0.00000000000E+00 -0.00000000000E+00 -0.48527296451E+03  0.48527296451E+03  0.00000000000E+00 0.  1.
        -24    2    1    2    0    0 -0.38760708193E+00 -0.44174626469E+02 -0.30501324022E+03  0.31877352127E+03  0.81436682735E+02 0.  0.
         25    2    1    2    0    0 -0.32672929892E+02 -0.12260129399E+02 -0.12978025911E+03  0.18359810499E+03  0.12509003710E+03 0.  0.
         24    2    1    2    0    0  0.33060536974E+02  0.56434755867E+02  0.14313842433E+03  0.17651922775E+03  0.79953414388E+02 0.  0.
        -11    1    5    5    0    0 -0.36022117750E+01  0.15009308930E+01 -0.94646521021E+01  0.10237595549E+02  0.00000000000E+00 0.  1.
         12    1    5    5    0    0  0.36662748749E+02  0.54933824974E+02  0.15260307643E+03  0.16628163220E+03  0.00000000000E+00 0. -1.
         11    1    3    3    0    0  0.32766618827E+02 -0.32681702038E+02 -0.93026470133E+02  0.10390220933E+03  0.00000000000E+00 0. -1.
        -12    1    3    3    0    0 -0.33154225909E+02 -0.11492924431E+02 -0.21198677008E+03  0.21487131195E+03  0.00000000000E+00 0.  1.
          5    1    4    4  501    0 -0.34865858740E+02 -0.20416951785E+01 -0.15342784374E+03  0.15740829793E+03  0.41800000000E+01 0.  1.
         -5    1    4    4    0  501  0.21929288484E+01 -0.10218434220E+02  0.23647584631E+02  0.26189807058E+02  0.41800000000E+01 0.  1.
</event>
<event>
11    1  0.1078607E-008  0.2139994E+03  0.7561462E-02  0.1045043E+00
         22   -1    0    0    0    0  0.00000000000E+00  0.00000000000E+00  0.48619932282E+03  0.48619932282E+03  0.00000000000E+00 0. -1.
         22   -1    0    0    0    0 -0.00000000000E+00 -0.00000000000E+00 -0.19882242291E+04  0.19882242291E+04  0.00000000000E+00 0. -1.
         24    2    1    2    0    0 -0.17829233638E+03 -0.59627590437E+00 -0.16882733287E+04  0.16995099496E+04  0.79238397898E+02 0.  0.
         25    2    1    2    0    0  0.14116239247E+03  0.76539321673E+02 -0.25065253489E+03  0.32289243971E+03  0.12509094918E+03 0.  0.
        -24    2    1    2    0    0  0.37129943909E+02 -0.75943045768E+02  0.43690095726E+03  0.45202116264E+03  0.79339183803E+02 0.  0.
        -11    1    3    3    0    0 -0.37624602211E+02 -0.26252594290E+02 -0.25249942705E+03  0.25663353260E+03  0.00000000000E+00 0.  1.
         12    1    3    3    0    0 -0.14066773416E+03  0.25656318386E+02 -0.14357739016E+04  0.14428764170E+04  0.00000000000E+00 0. -1.
         13    1    5    5    0    0  0.38230369531E+02 -0.49668027881E+02  0.40863350025E+03  0.41341239904E+03  0.00000000000E+00 0. -1.
        -14    1    5    5    0    0 -0.11004256219E+01 -0.26275017887E+02  0.28267457008E+02  0.38608763606E+02  0.00000000000E+00 0.  1.
          5    1    4    4  501    0  0.11627335399E+03  0.10677853703E+03 -0.16380996847E+03  0.22753533130E+03  0.41800000000E+01 0. -1.
         -5    1    4    4    0  501  0.24889038472E+02 -0.30239215362E+02 -0.86842566420E+02  0.95357108409E+02  0.41800000000E+01 0. -1.
</event>
<event>
11    1  0.1078607E-008  0.1310795E+03  0.7561462E-02  0.1117950E+00
         22   -1    0    0    0    0  0.00000000000E+00  0.00000000000E+00  0.49443783445E+03  0.49443783445E+03  0.00000000000E+00 0. -1.
         22   -1    0    0    0    0 -0.00000000000E+00 -0.00000000000E+00 -0.44848839199E+03  0.44848839199E+03  0.00000000000E+00 0. -1.
        -24    2    1    2    0    0  0.23202049511E+02 -0.43736153820E+01 -0.38874799093E+03  0.39759090730E+03  0.79975405611E+02 0.  0.
         25    2    1    2    0    0 -0.35445403812E+02  0.40446633739E+02  0.41582099448E+02  0.14236903714E+03  0.12509022708E+03 0.  0.
         24    2    1    2    0    0  0.12243354301E+02 -0.36073018357E+02  0.39311533394E+03  0.40296628199E+03  0.79943706886E+02 0.  0.
        -11    1    5    5    0    0  0.13416744445E+02 -0.30170957044E+02  0.50739253075E+02  0.60537323059E+02  0.00000000000E+00 0.  1.
         12    1    5    5    0    0 -0.11733901446E+01 -0.59020613132E+01  0.34237608086E+03  0.34242895894E+03  0.00000000000E+00 0. -1.
         13    1    3    3    0    0 -0.42506798528E+01 -0.26073539790E+01 -0.35018948132E+03  0.35022498398E+03  0.00000000000E+00 0. -1.
        -14    1    3    3    0    0  0.27452729364E+02 -0.17662614030E+01 -0.38558509603E+02  0.47365923317E+02  0.00000000000E+00 0.  1.
          5    1    4    4  501    0 -0.13178294198E+02 -0.39350619225E+02 -0.12263167465E+02  0.43474088232E+02  0.41800000000E+01 0. -1.
         -5    1    4    4    0  501 -0.22267109614E+02  0.79797252965E+02  0.53845266913E+02  0.98894948912E+02  0.41800000000E+01 0. -1.
</event>
<event>
11    1  0.1078607E-008  0.1555352E+03  0.7561462E-02  0.1091353E+00
         22   -1    0    0    0    0  0.00000000000E+00  0.00000000000E+00  0.20070393519E+03  0.20070393519E+03  0.00000000000E+00 0.  1.
         22   -1    0    0    0    0 -0.00000000000E+00 -0.00000000000E+00 -0.79789307988E+03  0.79789307988E+03  0.00000000000E+00 0. -1.
        -24    2    1    2    0    0 -0.14142692058E+02 -0.91229008125E+01 -0.67799623872E+03  0.68296814714E+03  0.80519235129E+02 0.  0.
         25    2    1    2    0    0  0.19002008455E+01  0.98790899163E+02 -0.14638495577E+02  0.16009347115E+03  0.12510947778E+03 0.  0.
         24    2    1    2    0    0  0.12242491212E+02 -0.89667998351E+02  0.95445589609E+02  0.15553539678E+03  0.83013074618E+02 0.  0.
        -13    1    5    5    0    0  0.45489983804E+02 -0.61192396296E+02  0.75931438682E+02  0.10760776631E+03  0.00000000000E+00 0.  1.
         14    1    5    5    0    0 -0.33247492591E+02 -0.28475602054E+02  0.19514150927E+02  0.47927630469E+02  0.00000000000E+00 0. -1.
         11    1    3    3    0    0 -0.11748725018E+02  0.48435488228E+01 -0.65971868468E+03  0.65984106831E+03  0.00000000000E+00 0. -1.
        -12    1    3    3    0    0 -0.23939670401E+01 -0.13966449635E+02 -0.18277554040E+02  0.23127078832E+02  0.00000000000E+00 0.  1.
          5    1    4    4  501    0  0.45852226513E+02  0.47661308253E+02 -0.50772921724E+02  0.83482866272E+02  0.41800000000E+01 0. -1.
         -5    1    4    4    0  501 -0.43952025667E+02  0.51129590911E+02  0.36134426147E+02  0.76610604879E+02  0.41800000000E+01 0. -1.
</event>
<event>
11    1  0.1078607E-008  0.1742556E+03  0.7561462E-02  0.1074387E+00
         22   -1    0    0    0    0  0.00000000000E+00  0.00000000000E+00  0.47594142721E+03  0.47594142721E+03  0.00000000000E+00 0.  1.
         22   -1    0    0    0    0 -0.00000000000E+00 -0.00000000000E+00 -0.90073043994E+03  0.90073043994E+03  0.00000000000E+00 0. -1.
         24    2    1    2    0    0  0.20048817367E+02 -0.32012640066E+02 -0.69381760082E+03  0.69951074128E+03  0.80657608156E+02 0.  0.
         25    2    1    2    0    0 -0.68158088182E+02  0.14099357602E+03 -0.13984033429E+03  0.24439153459E+03  0.12508872700E+03 0.  0.
        -24    2    1    2    0    0  0.48109270815E+02 -0.10898093595E+03  0.40886892237E+03  0.43276959128E+03  0.76969975416E+02 0.  0.
        -13    1    3    3    0    0 -0.21182608975E+02 -0.96902935015E+01 -0.66844162786E+02  0.70786628749E+02  0.00000000000E+00 0.  1.
         14    1    3    3    0    0  0.41231426342E+02 -0.22322346564E+02 -0.62697343803E+03  0.62872411253E+03  0.00000000000E+00 0. -1.
         11    1    5    5    0    0  0.22555006618E+02 -0.90049208259E+01  0.23390534637E+02  0.33718452414E+02  0.00000000000E+00 0. -1.
        -12    1    5    5    0    0  0.25554264198E+02 -0.99976015128E+02  0.38547838774E+03  0.39905113887E+03  0.00000000000E+00 0.  1.
          5    1    4    4  501    0 -0.30248920284E+02 -0.91673832470E+01  0.50362577755E+01  0.32278079038E+02  0.41800000000E+01 0.  1.
         -5    1    4    4    0  501 -0.37909167898E+02  0.15016095927E+03 -0.14487659206E+03  0.21211345555E+03  0.41800000000E+01 0.  1.
</event>
<event>
11    1  0.1078607E-008  0.1481875E+03  0.7561462E-02  0.1098745E+00
         22   -1    0    0    0    0  0.00000000000E+00  0.00000000000E+00  0.95269977686E+03  0.95269977686E+03  0.00000000000E+00 0.  1.
         22   -1    0    0    0    0 -0.00000000000E+00 -0.00000000000E+00 -0.62758422492E+03  0.62758422492E+03  0.00000000000E+00 0. -1.
         24    2    1    2    0    0  0.91082284456E+00  0.25104688399E+02 -0.51740608171E+03  0.52418120799E+03  0.80161152952E+02 0.  0.
         25    2    1    2    0    0  0.72276421806E+02 -0.55112986154E+02 -0.45284556764E+02  0.16114589993E+03  0.12512388897E+03 0.  0.
        -24    2    1    2    0    0 -0.73187244650E+02  0.30008297755E+02  0.88780619041E+03  0.89495689385E+03  0.80567607718E+02 0.  0.
        -11    1    3    3    0    0 -0.15903687086E+01  0.73282815079E+01 -0.11187249826E+01  0.75818551869E+01  0.00000000000E+00 0.  1.
         12    1    3    3    0    0  0.25011915532E+01  0.17776406891E+02 -0.51628735672E+03  0.51659935280E+03  0.00000000000E+00 0. -1.
         11    1    5    5    0    0 -0.45860818104E+01 -0.16723479702E+02  0.47596781128E+02  0.50657284703E+02  0.00000000000E+00 0. -1.
        -12    1    5    5    0    0 -0.68601162840E+02  0.46731777457E+02  0.84020940928E+03  0.84429960915E+03  0.00000000000E+00 0.  1.
          5    1    4    4  501    0  0.46285347542E+02 -0.26932740928E+02  0.40381566337E+02  0.67200068682E+02  0.41800000000E+01 0.  1.
         -5    1    4    4    0  501  0.25991074263E+02 -0.28180245225E+02 -0.85666123101E+02  0.93945831251E+02  0.41800000000E+01 0.  1.
</event>
<event>
11    1  0.1078607E-008  0.1457206E+03  0.7561462E-02  0.1101333E+00
         22   -1    0    0    0    0  0.00000000000E+00  0.00000000000E+00  0.25230751609E+03  0.25230751609E+03  0.00000000000E+00 0. -1.
         22   -1    0    0    0    0 -0.00000000000E+00 -0.00000000000E+00 -0.13659925907E+04  0.13659925907E+04  0.00000000000E+00 0. -1.
         24    2    1    2    0    0  0.52187376004E+02  0.65007601684E+02 -0.11662385256E+04  0.11718034132E+04  0.77855186966E+02 0.  0.
         25    2    1    2    0    0 -0.32302096190E+01 -0.82058429667E+01 -0.16234476805E+03  0.20513891515E+03  0.12509348777E+03 0.  0.
        -24    2    1    2    0    0 -0.48957166385E+02 -0.56801758717E+02  0.21489821900E+03  0.24135777847E+03  0.80306218699E+02 0.  0.
        -13    1    3    3    0    0  0.46600482621E+01  0.47173689757E+02 -0.27009233768E+03  0.27422061179E+03  0.00000000000E+00 0.  1.
         14    1    3    3    0    0  0.47527327742E+02  0.17833911927E+02 -0.89614618787E+03  0.89758280138E+03  0.00000000000E+00 0. -1.
         13    1    5    5    0    0 -0.55171129969E+02 -0.16986200686E+02  0.17648033639E+03  0.18568170004E+03  0.00000000000E+00 0. -1.
        -14    1    5    5    0    0  0.62139635844E+01 -0.39815558032E+02  0.38417882608E+02  0.55676078426E+02  0.00000000000E+00 0.  1.
          5    1    4    4  501    0 -0.52175066754E+02 -0.40152266371E+02 -0.74097623632E+02  0.99208731034E+02  0.41800000000E+01 0. -1.
         -5    1    4    4    0  501  0.48944857135E+02  0.31946423404E+02 -0.88247144418E+02  0.10593018411E+03  0.41800000000E+01 0. -1.
</event>
<event>
11    1  0.1078607E-008  0.1900224E+03  0.7561462E-02  0.1061812E+00
         22   -1    0    0    0    0  0.00000000000E+00  0.00000000000E+00  0.20593577945E+03  0.20593577945E+03  0.00000000000E+00 0. -1.
         22   -1    0    0    0    0 -0.00000000000E+00 -0.00000000000E+00 -0.67789428855E+03  0.67789428855E+03  0.00000000000E+00 0. -1.
         24    2    1    2    0    0  0.12815206692E+03  0.81446653510E+02 -0.43791673870E+03  0.47078608413E+03  0.82534582736E+02 0.  0.
         25    2    1    2    0    0 -0.11977810275E+03 -0.38786992269E+02 -0.17246846084E+03  0.24747602030E+03  0.12509111069E+03 0.  0.
        -24    2    1    2    0    0 -0.83739641761E+01 -0.42659661241E+02  0.13842669044E+03  0.16556796357E+03  0.79754824051E+02 0.  0.
        -13    1    3    3    0    0  0.23293707720E+02  0.43843892259E+01 -0.14413510246E+02  0.27741106067E+02  0.00000000000E+00 0.  1.
         14    1    3    3    0    0  0.10485835920E+03  0.77062264284E+02 -0.42350322846E+03  0.44304497806E+03  0.00000000000E+00 0. -1.
         13    1    5    5    0    0  0.46149512389E+01  0.85081149135E+01  0.99518872190E+02  0.99988457915E+02  0.00000000000E+00 0. -1.
        -14    1    5    5    0    0 -0.12988915415E+02 -0.51167776155E+02  0.38907818254E+02  0.65579505652E+02  0.00000000000E+00 0.  1.
          5    1    4    4  501    0 -0.74386323026E+02  0.39187771661E+02 -0.60745767761E+02  0.10381005347E+03  0.41800000000E+01 0. -1.
         -5    1    4    4    0  501 -0.45391779722E+02 -0.77974763930E+02 -0.11172269308E+03  0.14366596683E+03  0.41800000000E+01 0. -1.
</event>
<event>
11    1  0.1078607E-008  0.1470019E+03  0.7561462E-02  0.1099982E+00
         22   -1    0    0    0    0  0.00000000000E+00  0.00000000000E+00  0.20544461182E+04  0.20544461182E+04  0.00000000000E+00 0. -1.
         22   -1    0    0    0    0 -0.00000000000E+00 -0.00000000000E+00 -0.62850489883E+03  0.62850489883E+03  0.00000000000E+00 0.  1.
         24    2    1    2    0    0  0.76741342580E+02 -0.53917738961E+01 -0.60213557255E+03  0.61221368621E+03  0.79498710466E+02 0.  0.
         25    2    1    2    0    0 -0.99923125184E+02 -0.45291609335E+02  0.32711219560E+03  0.36699571254E+03  0.12508998237E+03 0.  0.
        -24    2    1    2    0    0  0.23181782604E+02  0.50683383232E+02  0.17009645963E+04  0.17037416182E+04  0.79679002905E+02 0.  0.
        -11    1    3    3    0    0  0.50460487903E+02  0.18372864618E+02 -0.51994699253E+03  0.52271282559E+03  0.00000000000E+00 0.  1.
         12    1    3    3    0    0  0.26280854677E+02 -0.23764638514E+02 -0.82188580019E+02  0.89500860621E+02  0.00000000000E+00 0. -1.
         13    1    5    5    0    0  0.19889052572E+02  0.49487636188E+02  0.16987716890E+04  0.16996087349E+04  0.00000000000E+00 0. -1.
        -14    1    5    5    0    0  0.32927300323E+01  0.11957470435E+01  0.21929073190E+01  0.41328833237E+01  0.00000000000E+00 0.  1.
          5    1    4    4  501    0 -0.42068517981E+02 -0.51310793657E+02  0.29078787821E+03  0.29829116693E+03  0.41800000000E+01 0. -1.
         -5    1    4    4    0  501 -0.57854607203E+02  0.60191843212E+01  0.36324317389E+02  0.68704545616E+02  0.41800000000E+01 0. -1.
</event>
<event>
11    1  0.1078607E-008  0.7253543E+03  0.7561462E-02  0.8995754E-01
         22   -1    0    0    0    0  0.00000000000E+00  0.00000000000E+00  0.33927300544E+03  0.33927300544E+03  0.00000000000E+00 0. -1.
         22   -1    0    0    0    0 -0.00000000000E+00 -0.00000000000E+00 -0.21100356540E+04  0.21100356540E+04  0.00000000000E+00 0. -1.
        -24    2    1    2    0    0  0.40201805027E+03 -0.56239118535E+03 -0.77738189654E+03  0.10434653053E+04  0.81208818079E+02 0.  0.
         25    2    1    2    0    0 -0.29445057025E+03  0.68505167940E+03 -0.95307315111E+03  0.12165510026E+04  0.12510383246E+03 0.  0.
         24    2    1    2    0    0 -0.10756748001E+03 -0.12266049405E+03 -0.40307600881E+02  0.18929235150E+03  0.87123659767E+02 0.  0.
        -13    1    5    5    0    0  0.80001891271E+01 -0.25254462047E+02 -0.26582170015E+02  0.37528690919E+02  0.00000000000E+00 0.  1.
         14    1    5    5    0    0 -0.11556766914E+03 -0.97406032003E+02 -0.13725430866E+02  0.15176366058E+03  0.00000000000E+00 0. -1.
         11    1    3    3    0    0  0.31774851201E+03 -0.43424760006E+03 -0.55217286681E+03  0.77099284684E+03  0.00000000000E+00 0. -1.
        -12    1    3    3    0    0  0.84269538255E+02 -0.12814358529E+03 -0.22520902973E+03  0.27247245843E+03  0.00000000000E+00 0.  1.
          5    1    4    4  501    0 -0.23505774374E+03  0.42596274622E+03 -0.67243353712E+03  0.82998839648E+03  0.41800000000E+01 0.  1.
         -5    1    4    4    0  501 -0.59392826509E+02  0.25908893318E+03 -0.28063961399E+03  0.38656260616E+03  0.41800000000E+01 0.  1.
</event>
<event>
11    1  0.1078607E-008  0.1681969E+03  0.7561462E-02  0.1079612E+00
         22   -1    0    0    0    0  0.00000000000E+00  0.00000000000E+00  0.17382108306E+03  0.17382108306E+03  0.00000000000E+00 0. -1.
         22   -1    0    0    0    0 -0.00000000000E+00 -0.00000000000E+00 -0.75789773423E+03  0.75789773423E+03  0.00000000000E+00 0.  1.
        -24    2    1    2    0    0  0.23973836949E+02  0.10112880458E+02 -0.60737791626E+03  0.61320823747E+03  0.80245835569E+02 0.  0.
         25    2    1    2    0    0  0.92369143297E+02  0.24185779110E+02 -0.33231520537E+02  0.16083787954E+03  0.12508988366E+03 0.  0.
         24    2    1    2    0    0 -0.11634298025E+03 -0.34298659568E+02  0.56532785623E+02  0.15767270028E+03  0.83382476957E+02 0.  0.
        -13    1    5    5    0    0 -0.91362869518E+01 -0.24327815456E+02 -0.13447033395E+02  0.29259819741E+02  0.00000000000E+00 0.  1.
         14    1    5    5    0    0 -0.10720669329E+03 -0.99708441119E+01  0.69979819017E+02  0.12841288054E+03  0.00000000000E+00 0. -1.
         11    1    3    3    0    0  0.17118447638E+02  0.40525502334E+01 -0.23990622017E+02  0.29749190875E+02  0.00000000000E+00 0. -1.
        -12    1    3    3    0    0  0.68553893107E+01  0.60603302246E+01 -0.58338729424E+03  0.58345904659E+03  0.00000000000E+00 0.  1.
          5    1    4    4  501    0  0.47612448815E+02  0.19760437771E+02  0.46273228172E+02  0.69398157242E+02  0.41800000000E+01 0. -1.
         -5    1    4    4    0  501  0.44756694482E+02  0.44253413385E+01 -0.79504748709E+02  0.91439722299E+02  0.41800000000E+01 0. -1.
</event>
<event>
11    1  0.1078607E-008  0.1588313E+03  0.7561462E-02  0.1088182E+00
         22   -1    0    0    0    0  0.00000000000E+00  0.00000000000E+00  0.20109559429E+04  0.20109559429E+04  0.00000000000E+00 0. -1.
         22   -1    0    0    0    0 -0.00000000000E+00 -0.00000000000E+00 -0.16093577753E+03  0.16093577753E+03  0.00000000000E+00 0.  1.
         24    2    1    2    0    0  0.50357343202E+02 -0.91949528663E+02 -0.11055440815E+03  0.17201763168E+03  0.79857439292E+02 0.  0.
         25    2    1    2    0    0 -0.10781233905E+02  0.42929569326E+02  0.22452853126E+03  0.26080691457E+03  0.12509197581E+03 0.  0.
        -24    2    1    2    0    0 -0.39576109297E+02  0.49019959338E+02  0.17360460422E+04  0.17390671741E+04  0.80805634748E+02 0.  0.
        -13    1    3    3    0    0 -0.52737789407E+01 -0.60307738421E+02 -0.82027088339E+02  0.10194743390E+03  0.00000000000E+00 0.  1.
         14    1    3    3    0    0  0.55631122142E+02 -0.31641790243E+02 -0.28527319813E+02  0.70070197775E+02  0.00000000000E+00 0. -1.
         13    1    5    5    0    0 -0.22597744687E+02  0.27098214712E+02  0.15911945843E+04  0.15915857428E+04  0.00000000000E+00 0. -1.
        -14    1    5    5    0    0 -0.16978364610E+02  0.21921744626E+02  0.14485145788E+03  0.14748143138E+03  0.00000000000E+00 0.  1.
          5    1    4    4  501    0 -0.72630546028E+01  0.84729918219E+02  0.11234148572E+03  0.14096096203E+03  0.41800000000E+01 0.  1.
         -5    1    4    4    0  501 -0.35181793023E+01 -0.41800348893E+02  0.11218704554E+03  0.11984595254E+03  0.41800000000E+01 0.  1.
</event>
<event>
11    1  0.1078607E-008  0.1518704E+04  0.7561462E-02  0.8299254E-01
         22   -1    0    0    0    0  0.00000000000E+00  0.00000000000E+00  0.23809509336E+03  0.23809509336E+03  0.00000000000E+00 0. -1.
         22   -1    0    0    0    0 -0.00000000000E+00 -0.00000000000E+00 -0.24217876872E+04  0.24217876872E+04  0.00000000000E+00 0. -1.
         24    2    1    2    0    0 -0.58357195535E+03  0.23544650170E+03 -0.12931300796E+04  0.14403817559E+04  0.80764582601E+02 0.  0.
         25    2    1    2    0    0  0.63164621957E+03 -0.30584386499E+03 -0.72321817291E+03  0.10154853415E+04  0.12509411120E+03 0.  0.
        -24    2    1    2    0    0 -0.48074264224E+02  0.70397363285E+02 -0.16734434133E+03  0.20401568318E+03  0.79695337175E+02 0.  0.
        -13    1    3    3    0    0 -0.15974712220E+03  0.34621278372E+02 -0.38607740956E+03  0.41925355352E+03  0.00000000000E+00 0.  1.
         14    1    3    3    0    0 -0.42382483314E+03  0.20082522333E+03 -0.90705267003E+03  0.10211282024E+04  0.00000000000E+00 0. -1.
         11    1    5    5    0    0  0.11486379852E+02 -0.45825572660E+01 -0.55119755760E+02  0.56490036539E+02  0.00000000000E+00 0. -1.
        -12    1    5    5    0    0 -0.59560644076E+02  0.74979920551E+02 -0.11222458557E+03  0.14752564664E+03  0.00000000000E+00 0.  1.
          5    1    4    4  501    0  0.13169749555E+03 -0.12180792898E+03 -0.20144652030E+03  0.26977689826E+03  0.41800000000E+01 0. -1.
         -5    1    4    4    0  501  0.49994872402E+03 -0.18403593601E+03 -0.52177165262E+03  0.74570844321E+03  0.41800000000E+01 0. -1.
</event>
<event>
11    1  0.1078607E-008  0.1822208E+03  0.7561462E-02  0.1067860E+00
         22   -1    0    0    0    0  0.00000000000E+00  0.00000000000E+00  0.67163784525E+03  0.67163784525E+03  0.00000000000E+00 0.  1.
         22   -1    0    0    0    0 -0.00000000000E+00 -0.00000000000E+00 -0.57103654862E+03  0.57103654862E+03  0.00000000000E+00 0.  1.
         24    2    1    2    0    0 -0.69336981890E+02 -0.10851079719E+03 -0.23871648749E+03  0.28250531020E+03  0.79003029873E+02 0.  0.
         25    2    1    2    0    0 -0.28533266378E+01  0.15227157602E+03 -0.27346751178E+03  0.33708525148E+03  0.12508881818E+03 0.  0.
        -24    2    1    2    0    0  0.72190308527E+02 -0.43760778826E+02  0.61278529588E+03  0.62308383219E+03  0.74841142919E+02 0.  0.
        -11    1    3    3    0    0 -0.39147774754E+02 -0.10268482304E+03 -0.22150994908E+03  0.24727187202E+03  0.00000000000E+00 0.  1.
         12    1    3    3    0    0 -0.30189207135E+02 -0.58259741562E+01 -0.17206538410E+02  0.35233438186E+02  0.00000000000E+00 0. -1.
         11    1    5    5    0    0  0.45946523352E+02  0.14963620989E+02  0.28009342409E+03  0.28423110171E+03  0.00000000000E+00 0. -1.
        -12    1    5    5    0    0  0.26243785176E+02 -0.58724399815E+02  0.33269187179E+03  0.33885273048E+03  0.00000000000E+00 0.  1.
          5    1    4    4  501    0  0.43076719173E+02  0.19446210669E+02 -0.30616631035E+02  0.56467772579E+02  0.41800000000E+01 0. -1.
         -5    1    4    4    0  501 -0.45930045811E+02  0.13282536535E+03 -0.24285088074E+03  0.28061747890E+03  0.41800000000E+01 0. -1.
</event>
<event>
11    1  0.1078607E-008  0.6645101E+03  0.7561462E-02  0.9086303E-01
         22   -1    0    0    0    0  0.00000000000E+00  0.00000000000E+00  0.20019152764E+04  0.20019152764E+04  0.00000000000E+00 0. -1.
         22   -1    0    0    0    0 -0.00000000000E+00 -0.00000000000E+00 -0.40509275498E+03  0.40509275498E+03  0.00000000000E+00 0. -1.
         24    2    1    2    0    0  0.66214742154E+03  0.21391560315E+03  0.62522627807E+03  0.93890208942E+03  0.80188163730E+02 0.  0.
         25    2    1    2    0    0 -0.64496760287E+03  0.17056408669E+03  0.44680457742E+03  0.81262280967E+03  0.12508470716E+03 0.  0.
        -24    2    1    2    0    0 -0.17179818664E+02 -0.38447968984E+03  0.52479166594E+03  0.65548313230E+03  0.78307509362E+02 0.  0.
        -11    1    3    3    0    0  0.39784725055E+03  0.94552564601E+02  0.33514303416E+03  0.52871871122E+03  0.00000000000E+00 0.  1.
         12    1    3    3    0    0  0.26430017098E+03  0.11936303854E+03  0.29008324391E+03  0.41018337820E+03  0.00000000000E+00 0. -1.
         11    1    5    5    0    0 -0.38327577122E+02 -0.34728356408E+03  0.45591704819E+03  0.57439988847E+03  0.00000000000E+00 0. -1.
        -12    1    5    5    0    0  0.21147758458E+02 -0.37196125757E+02  0.68874617748E+02  0.81083243824E+02  0.00000000000E+00 0.  1.
          5    1    4    4  501    0 -0.29270452498E+03  0.14008485095E+03  0.23139149693E+03  0.39857145113E+03  0.41800000000E+01 0. -1.
         -5    1    4    4    0  501 -0.35226307789E+03  0.30479235745E+02  0.21541308050E+03  0.41405135854E+03  0.41800000000E+01 0. -1.
</event>
<event>
11    1  0.1078607E-008  0.1959075E+03  0.7561462E-02  0.1057456E+00
         22   -1    0    0    0    0  0.00000000000E+00  0.00000000000E+00  0.64736116184E+03  0.64736116184E+03  0.00000000000E+00 0. -1.
         22   -1    0    0    0    0 -0.00000000000E+00 -0.00000000000E+00 -0.73182252810E+03  0.73182252810E+03  0.00000000000E+00 0.  1.
        -24    2    1    2    0    0 -0.59002469636E+02  0.14751771040E+03 -0.54423099530E+03  0.57278026804E+03  0.81529705605E+02 0.  0.
         25    2    1    2    0    0  0.85460555334E+00 -0.13055186624E+03 -0.12026199049E+03  0.21715268113E+03  0.12509124844E+03 0.  0.
         24    2    1    2    0    0  0.58147864083E+02 -0.16965844164E+02  0.58003161953E+03  0.58925074078E+03  0.84325215027E+02 0.  0.
        -11    1    5    5    0    0 -0.17074489900E+02 -0.20268597439E+02  0.20754616996E+03  0.20923137172E+03  0.00000000000E+00 0.  1.
         12    1    5    5    0    0  0.75222353983E+02  0.33027532751E+01  0.37248544957E+03  0.38001936905E+03  0.00000000000E+00 0. -1.
         13    1    3    3    0    0 -0.64853917009E+02  0.10730136876E+03 -0.29928691554E+03  0.32448770717E+03  0.00000000000E+00 0. -1.
        -14    1    3    3    0    0  0.58514473730E+01  0.40216341644E+02 -0.24494407976E+03  0.24829256087E+03  0.00000000000E+00 0.  1.
          5    1    4    4  501    0 -0.40588265421E+02 -0.88091670789E+02 -0.12408472039E+03  0.15755011897E+03  0.41800000000E+01 0. -1.
         -5    1    4    4    0  501  0.41442870975E+02 -0.42460195446E+02  0.38227299042E+01  0.59602562159E+02  0.41800000000E+01 0. -1.
</event>
<event>
11    1  0.1078607E-008  0.3857281E+03  0.7561462E-02  0.9692832E-01
         22   -1    0    0    0    0  0.00000000000E+00  0.00000000000E+00  0.23513687266E+04  0.23513687266E+04  0.00000000000E+00 0. -1.
         22   -1    0    0    0    0 -0.00000000000E+00 -0.00000000000E+00 -0.14351809157E+03  0.14351809157E+03  0.00000000000E+00 0.  1.
         24    2    1    2    0    0  0.29351535049E+02  0.54648315434E+02  0.35745707376E+02  0.10616009747E+03  0.78385328411E+02 0.  0.
         25    2    1    2    0    0  0.94261386921E+02 -0.39018833794E+03  0.40540017631E+03  0.58406091107E+03  0.12508275966E+03 0.  0.
        -24    2    1    2    0    0 -0.12361292197E+03  0.33554002251E+03  0.17667047513E+04  0.18046658096E+04  0.87782371687E+02 0.  0.
        -13    1    3    3    0    0  0.47861666176E+02  0.61577103748E+02  0.19038751164E+02  0.80280463633E+02  0.00000000000E+00 0.  1.
         14    1    3    3    0    0 -0.18510131127E+02 -0.69287883141E+01  0.16706956211E+02  0.25879633840E+02  0.00000000000E+00 0. -1.
         11    1    5    5    0    0 -0.17217762058E+02  0.52693935860E+02  0.46768013127E+03  0.47095414574E+03  0.00000000000E+00 0. -1.
        -12    1    5    5    0    0 -0.10639515991E+03  0.28284608665E+03  0.12990246200E+04  0.13337116638E+04  0.00000000000E+00 0.  1.
          5    1    4    4  501    0  0.99060786945E+02 -0.30494182005E+03  0.24959938436E+03  0.40634945330E+03  0.41800000000E+01 0. -1.
         -5    1    4    4    0  501 -0.47994000236E+01 -0.85246517896E+02  0.15580079194E+03  0.17771145777E+03  0.41800000000E+01 0. -1.
</event>
<event>
11    1  0.1078607E-008  0.1392574E+03  0.7561462E-02  0.1108390E+00
         22   -1    0    0    0    0  0.00000000000E+00  0.00000000000E+00  0.39709059149E+02  0.39709059149E+02  0.00000000000E+00 0. -1.
         22   -1    0    0    0    0 -0.00000000000E+00 -0.00000000000E+00 -0.15121732028E+04  0.15121732028E+04  0.00000000000E+00 0.  1.
        -24    2    1    2    0    0  0.57630025609E+02  0.29751094034E+02 -0.11810737081E+04  0.11852585641E+04  0.75474580132E+02 0.  0.
         25    2    1    2    0    0 -0.27900144125E+02 -0.11929437961E+02 -0.21771829020E+03  0.25292568337E+03  0.12509763343E+03 0.  0.
         24    2    1    2    0    0 -0.29729881484E+02 -0.17821656073E+02 -0.73672145300E+02  0.11369801447E+03  0.79361049788E+02 0.  0.
        -11    1    5    5    0    0 -0.35409358605E+02 -0.31277590336E+02 -0.83607997177E+02  0.96033366733E+02  0.00000000000E+00 0.  1.
         12    1    5    5    0    0  0.56794771210E+01  0.13455934263E+02  0.99358518767E+01  0.17664647740E+02  0.00000000000E+00 0. -1.
         13    1    3    3    0    0  0.29014122934E+02  0.40133959839E+02 -0.33533125533E+03  0.33896844228E+03  0.00000000000E+00 0. -1.
        -14    1    3    3    0    0  0.28615902676E+02 -0.10382865804E+02 -0.84574245278E+03  0.84629012178E+03  0.00000000000E+00 0.  1.
          5    1    4    4  501    0 -0.40633384355E+02  0.38037000172E+02 -0.42285878815E+02  0.70024661751E+02  0.41800000000E+01 0. -1.
         -5    1    4    4    0  501  0.12733240230E+02 -0.49966438133E+02 -0.17543241139E+03  0.18290102162E+03  0.41800000000E+01 0. -1.
</event>
<event>
11    1  0.1078607E-008  0.1401949E+03  0.7561462E-02  0.1107341E+00
         22   -1    0    0    0    0  0.00000000000E+00  0.00000000000E+00  0.33054234231E+04  0.33054234231E+04  0.00000000000E+00 0. -1.
         22   -1    0    0    0    0 -0.00000000000E+00 -0.00000000000E+00 -0.24240308644E+03  0.24240308644E+03  0.00000000000E+00 0. -1.
         24    2    1    2    0    0  0.64606625363E+02  0.61263148548E+00 -0.21954765485E+03  0.24351800999E+03  0.83219331162E+02 0.  0.
         25    2    1    2    0    0 -0.12807763130E+02 -0.47037145918E+02  0.44383645773E+03  0.46369723122E+03  0.12509112333E+03 0.  0.
        -24    2    1    2    0    0 -0.51798862234E+02  0.46424514432E+02  0.28387315337E+04  0.28406112683E+04  0.76402219989E+02 0.  0.
        -11    1    3    3    0    0  0.11390039131E+02 -0.10964044694E+02  0.14808231570E+01  0.15878794182E+02  0.00000000000E+00 0.  1.
         12    1    3    3    0    0  0.53216586233E+02  0.11576676179E+02 -0.22102847801E+03  0.22763921581E+03  0.00000000000E+00 0. -1.
         11    1    5    5    0    0 -0.49861381197E+02  0.64777612759E+02  0.19885995812E+04  0.19902790233E+04  0.00000000000E+00 0. -1.
        -12    1    5    5    0    0 -0.19374810371E+01 -0.18353098326E+02  0.85013195257E+03  0.85033224497E+03  0.00000000000E+00 0.  1.
          5    1    4    4  501    0  0.95909515297E+01 -0.85714866791E+02  0.24245461329E+03  0.25737275817E+03  0.41800000000E+01 0.  1.
         -5    1    4    4    0  501 -0.22398714659E+02  0.38677720874E+02  0.20138184444E+03  0.20632447306E+03  0.41800000000E+01 0.  1.
</event>
<event>
11    1  0.1078607E-008  0.1283957E+03  0.7561462E-02  0.1121256E+00
         22   -1    0    0    0    0  0.00000000000E+00  0.00000000000E+00  0.12493370516E+03  0.12493370516E+03  0.00000000000E+00 0.  1.
         22   -1    0    0    0    0 -0.00000000000E+00 -0.00000000000E+00 -0.93068642342E+03  0.93068642342E+03  0.00000000000E+00 0. -1.
        -24    2    1    2    0    0  0.18825677953E+02  0.13261754756E+02 -0.81901567443E+03  0.82299362765E+03  0.77469709536E+02 0.  0.
         25    2    1    2    0    0 -0.28010599852E+02 -0.35850090355E+02 -0.32318405544E+02  0.13697386800E+03  0.12509012149E+03 0.  0.
         24    2    1    2    0    0  0.91849218992E+01  0.22588335599E+02  0.45581361717E+02  0.95652632938E+02  0.80480867022E+02 0.  0.
        -11    1    5    5    0    0  0.13921723083E+02  0.28716754177E+01  0.65621319448E+02  0.67143268161E+02  0.00000000000E+00 0.  1.
         12    1    5    5    0    0 -0.47368011836E+01  0.19716660182E+02 -0.20039957730E+02  0.28509364777E+02  0.00000000000E+00 0. -1.
         11    1    3    3    0    0 -0.17855919313E+02  0.26931596315E+02 -0.57043851489E+03  0.57135299422E+03  0.00000000000E+00 0. -1.
        -12    1    3    3    0    0  0.36681597266E+02 -0.13669841560E+02 -0.24857715954E+03  0.25164063342E+03  0.00000000000E+00 0.  1.
          5    1    4    4  501    0 -0.59484223666E+02 -0.64223575964E+02 -0.81607348326E+01  0.88017671906E+02  0.41800000000E+01 0.  1.
         -5    1    4    4    0  501  0.31473623814E+02  0.28373485609E+02 -0.24157670712E+02  0.48956196092E+02  0.41800000000E+01 0.  1.
</event>
<event>
11    1  0.1078607E-008  0.1431440E+03  0.7561462E-02  0.1104098E+00
         22   -1    0    0    0    0  0.00000000000E+00  0.00000000000E+00  0.76468949651E+03  0.76468949651E+03  0.00000000000E+00 0.  1.
         22   -1    0    0    0    0 -0.00000000000E+00 -0.00000000000E+00 -0.13149827951E+04  0.13149827951E+04  0.00000000000E+00 0.  1.
        -24    2    1    2    0    0 -0.57801627148E+02  0.56186559546E+02 -0.10434146327E+04  0.10495804480E+04  0.80044134419E+02 0.  0.
         25    2    1    2    0    0  0.42555073403E+01 -0.17828761011E+02 -0.24968140271E+03  0.27986653836E+03  0.12509397417E+03 0.  0.
         24    2    1    2    0    0  0.53546119807E+02 -0.38357798535E+02  0.74280273682E+03  0.75022530529E+03  0.82119396118E+02 0.  0.
        -11    1    5    5    0    0 -0.37581149703E+01 -0.41799012517E+02  0.44242135776E+03  0.44440740169E+03  0.00000000000E+00 0.  1.
         12    1    5    5    0    0  0.57304234778E+02  0.34412139818E+01  0.30038137906E+03  0.30581790360E+03  0.00000000000E+00 0. -1.
         11    1    3    3    0    0 -0.76187726849E+02  0.44656895877E+02 -0.71195896794E+03  0.71741506822E+03  0.00000000000E+00 0. -1.
        -12    1    3    3    0    0  0.18386099702E+02  0.11529663669E+02 -0.33145566476E+03  0.33216537976E+03  0.00000000000E+00 0.  1.
          5    1    4    4  501    0  0.54491205888E+02 -0.20658129414E+02 -0.20251372473E+03  0.21077317414E+03  0.41800000000E+01 0. -1.
         -5    1    4    4    0  501 -0.50235698548E+02  0.28293684034E+01 -0.47167677980E+02  0.69093364227E+02  0.41800000000E+01 0. -1.
</event>
<event>
11    1  0.1078607E-008  0.1403418E+03  0.7561462E-02  0.1107177E+00
         22   -1    0    0    0    0  0.00000000000E+00  0.00000000000E+00  0.60201907006E+03  0.60201907006E+03  0.00000000000E+00 0. -1.
         22   -1    0    0    0    0 -0.00000000000E+00 -0.00000000000E+00 -0.55692546805E+03  0.55692546805E+03  0.00000000000E+00 0.  1.
         24    2    1    2    0    0 -0.41233083972E+00 -0.45723684746E+02 -0.46557193706E+03  0.47247373531E+03  0.66207073803E+02 0.  0.
         25    2    1    2    0    0  0.50791813500E+02  0.81987132137E+02 -0.78091162950E+01  0.15814780007E+03  0.12509215089E+03 0.  0.
        -24    2    1    2    0    0 -0.50379482660E+02 -0.36263447392E+02  0.51847465536E+03  0.52832300272E+03  0.80349841747E+02 0.  0.
        -11    1    3    3    0    0  0.21691605852E+02 -0.31951108750E+02 -0.40088598618E+03  0.40274181933E+03  0.00000000000E+00 0.  1.
         12    1    3    3    0    0 -0.22103936692E+02 -0.13772575996E+02 -0.64685950871E+02  0.69731915985E+02  0.00000000000E+00 0. -1.
         11    1    5    5    0    0 -0.40778401531E+02 -0.60796881759E+02  0.42263458544E+03  0.42892788634E+03  0.00000000000E+00 0. -1.
        -12    1    5    5    0    0 -0.96010811286E+01  0.24533434367E+02  0.95840069915E+02  0.99395116389E+02  0.00000000000E+00 0.  1.
          5    1    4    4  501    0 -0.38159878735E+01 -0.30287766128E+02  0.90045112341E+01  0.32100843650E+02  0.41800000000E+01 0. -1.
         -5    1    4    4    0  501  0.54607801373E+02  0.11227489827E+03 -0.16813627529E+02  0.12604695642E+03  0.41800000000E+01 0. -1.
</event>
<event>
11    1  0.1078607E-008  0.1513130E+03  0.7561462E-02  0.1095545E+00
         22   -1    0    0    0    0  0.00000000000E+00  0.00000000000E+00  0.28413266103E+03  0.28413266103E+03  0.00000000000E+00 0.  1.
         22   -1    0    0    0    0 -0.00000000000E+00 -0.00000000000E+00 -0.15754913935E+04  0.15754913935E+04  0.00000000000E+00 0. -1.
        -24    2    1    2    0    0 -0.91302433153E+01 -0.12570110458E+02 -0.14788667244E+04  0.14811291631E+04  0.80345754320E+02 0.  0.
         25    2    1    2    0    0  0.84256392127E+02  0.47291289663E+02  0.36182074738E+00  0.15806107343E+03  0.12509023274E+03 0.  0.
         24    2    1    2    0    0 -0.75126148812E+02 -0.34721179205E+02  0.18714617117E+03  0.22043381801E+03  0.81962675764E+02 0.  0.
        -13    1    5    5    0    0 -0.49671397984E+02  0.21019908992E+02  0.10390609030E+03  0.11707074764E+03  0.00000000000E+00 0.  1.
         14    1    5    5    0    0 -0.25454750828E+02 -0.55741088197E+02  0.83240080873E+02  0.10336307037E+03  0.00000000000E+00 0. -1.
         11    1    3    3    0    0  0.17883704039E+02  0.17641065082E+02 -0.10619999996E+04  0.10622970550E+04  0.00000000000E+00 0. -1.
        -12    1    3    3    0    0 -0.27013947355E+02 -0.30211175540E+02 -0.41686672485E+03  0.41883210809E+03  0.00000000000E+00 0.  1.
          5    1    4    4  501    0  0.21063064314E+02  0.24478915216E+02  0.59909927292E+02  0.68187548398E+02  0.41800000000E+01 0. -1.
         -5    1    4    4    0  501  0.63193327813E+02  0.22812374448E+02 -0.59548106544E+02  0.89873525028E+02  0.41800000000E+01 0. -1.
</event>
<event>
11    1  0.1078607E-008  0.2086277E+03  0.7561462E-02  0.1048585E+00
         22   -1    0    0    0    0  0.00000000000E+00  0.00000000000E+00  0.67929150434E+03  0.67929150434E+03  0.00000000000E+00 0. -1.
         22   -1    0    0    0    0 -0.00000000000E+00 -0.00000000000E+00 -0.37657562431E+03  0.37657562431E+03  0.00000000000E+00 0. -1.
         24    2    1    2    0    0 -0.13799538429E+03  0.93013994327E+02 -0.28075951522E+03  0.33848647694E+03  0.89737731515E+02 0.  0.
         25    2    1    2    0    0  0.19932272928E+03 -0.51446537897E+01  0.19358971667E+03  0.30476268424E+03  0.12508915794E+03 0.  0.
        -24    2    1    2    0    0 -0.61327344991E+02 -0.87869340537E+02  0.38988567858E+03  0.41261796747E+03  0.82223357170E+02 0.  0.
        -13    1    3    3    0    0 -0.18978978032E+02  0.60722098493E+02 -0.72511516533E+02  0.96463956390E+02  0.00000000000E+00 0.  1.
         14    1    3    3    0    0 -0.11901640626E+03  0.32291895834E+02 -0.20824799869E+03  0.24202252055E+03  0.00000000000E+00 0. -1.
         13    1    5    5    0    0 -0.27852115373E+02 -0.64945231301E+02  0.11663842967E+03  0.13637502219E+03  0.00000000000E+00 0. -1.
        -14    1    5    5    0    0 -0.33475229618E+02 -0.22924109236E+02  0.27324724891E+03  0.27624294528E+03  0.00000000000E+00 0.  1.
          5    1    4    4  501    0  0.43652317598E+02 -0.50702726317E+02  0.27157118720E+02  0.72327538220E+02  0.41800000000E+01 0. -1.
         -5    1    4    4    0  501  0.15567041168E+03  0.45558072528E+02  0.16643259795E+03  0.23243514602E+03  0.41800000000E+01 0. -1.
</event>
<event>
11    1  0.1078607E-008  0.1317403E+03  0.7561462E-02  0.1117149E+00
         22   -1    0    0    0    0  0.00000000000E+00  0.00000000000E+00  0.16697667630E+04  0.16697667630E+04  0.00000000000E+00 0.  1.
         22   -1    0    0    0    0 -0.00000000000E+00 -0.00000000000E+00 -0.20146437894E+03  0.20146437894E+03  0.00000000000E+00 0. -1.
        -24    2    1    2    0    0  0.38309804839E+02 -0.15745816721E+02 -0.18189512229E+03  0.20322819549E+03  0.80624388606E+02 0.  0.
         25    2    1    2    0    0 -0.23855134289E+02  0.35390503432E+02  0.59635649642E+03  0.61082802702E+03  0.12509297585E+03 0.  0.
         24    2    1    2    0    0 -0.14454670550E+02 -0.19644686710E+02  0.10538410100E+04  0.10571749195E+04  0.80268828405E+02 0.  0.
        -11    1    5    5    0    0 -0.36983018019E+02  0.98382182138E+01  0.76554712740E+03  0.76650305833E+03  0.00000000000E+00 0.  1.
         12    1    5    5    0    0  0.22528347469E+02 -0.29482904924E+02  0.28829388259E+03  0.29067186114E+03  0.00000000000E+00 0. -1.
         11    1    3    3    0    0 -0.39856243051E+01 -0.33261655561E+02 -0.12897718120E+03  0.13325665538E+03  0.00000000000E+00 0. -1.
        -12    1    3    3    0    0  0.42295429144E+02  0.17515838840E+02 -0.52917941095E+02  0.69971540118E+02  0.00000000000E+00 0.  1.
          5    1    4    4  501    0 -0.30097086882E+02  0.26766654394E+01  0.27767938324E+02  0.41249605761E+02  0.41800000000E+01 0. -1.
         -5    1    4    4    0  501  0.62419525928E+01  0.32713837992E+02  0.56858855810E+03  0.56957842126E+03  0.41800000000E+01 0. -1.
</event>
<event>
11    1  0.1078607E-008  0.1688835E+03  0.7561462E-02  0.1079007E+00
         22   -1    0    0    0    0  0.00000000000E+00  0.00000000000E+00  0.13965415832E+04  0.13965415832E+04  0.00000000000E+00 0. -1.
         22   -1    0    0    0    0 -0.00000000000E+00 -0.00000000000E+00 -0.17984582673E+03  0.17984582673E+03  0.00000000000E+00 0.  1.
        -24    2    1    2    0    0 -0.11832917731E+03 -0.16821450077E+02 -0.64364047011E+02  0.15583378313E+03  0.76528962045E+02 0.  0.
         25    2    1    2    0    0  0.10280496007E+03 -0.28770564796E+02  0.31473139427E+02  0.16743460429E+03  0.12508870051E+03 0.  0.
         24    2    1    2    0    0  0.15524217236E+02  0.45592014872E+02  0.12495866641E+04  0.12531190225E+04  0.80751597080E+02 0.  0.
        -13    1    5    5    0    0  0.41412034005E+02  0.26167478891E+02  0.41116032610E+03  0.41406823987E+03  0.00000000000E+00 0.  1.
         14    1    5    5    0    0 -0.25887816769E+02  0.19424535981E+02  0.83842633799E+03  0.83905078267E+03  0.00000000000E+00 0. -1.
         11    1    3    3    0    0 -0.11029192619E+03 -0.37538589947E+02 -0.40795253088E+02  0.12344110901E+03  0.00000000000E+00 0. -1.
        -12    1    3    3    0    0 -0.80372511186E+01  0.20717139870E+02 -0.23568793923E+02  0.32392674124E+02  0.00000000000E+00 0.  1.
          5    1    4    4  501    0  0.47465718998E+02 -0.35832333314E+02 -0.43562973125E+02  0.73838713547E+02  0.41800000000E+01 0.  1.
         -5    1    4    4    0  501  0.55339241076E+02  0.70617685186E+01  0.75036112552E+02  0.93595890745E+02  0.41800000000E+01 0.  1.
</event>
<event>
11    1  0.1078607E-008  0.1730074E+03  0.7561462E-02  0.1075444E+00
         22   -1    0    0    0    0  0.00000000000E+00  0.00000000000E+00  0.37419307237E+04  0.37419307237E+04  0.00000000000E+00 0.  1.
         22   -1    0    0    0    0 -0.00000000000E+00 -0.00000000000E+00 -0.20353377526E+03  0.20353377526E+03  0.00000000000E+00 0. -1.
        -24    2    1    2    0    0 -0.11970434665E+03 -0.26216789721E+01 -0.16649901450E+03  0.22012656809E+03  0.79986125938E+02 0.  0.
         25    2    1    2    0    0  0.11278829253E+03  0.86560882237E+01  0.72991279407E+03  0.74914689964E+03  0.12510900641E+03 0.  0.
         24    2    1    2    0    0  0.69160541159E+01 -0.60344092516E+01  0.29749831689E+04  0.29761910312E+04  0.84284953766E+02 0.  0.
        -13    1    5    5    0    0  0.52739801419E+01  0.18935157673E+02  0.27000226423E+04  0.27000941879E+04  0.00000000000E+00 0.  1.
         14    1    5    5    0    0  0.16420739740E+01 -0.24969566924E+02  0.27496052660E+03  0.27609684328E+03  0.00000000000E+00 0. -1.
         11    1    3    3    0    0 -0.12247648042E+03 -0.16740510155E+02 -0.12330506012E+03  0.17459917179E+03  0.00000000000E+00 0. -1.
        -12    1    3    3    0    0  0.27721337713E+01  0.14118831182E+02 -0.43193954377E+02  0.45527396305E+02  0.00000000000E+00 0.  1.
          5    1    4    4  501    0  0.12160045405E+03 -0.46453518835E+00  0.72465006063E+03  0.73479389559E+03  0.41800000000E+01 0. -1.
         -5    1    4    4    0  501 -0.88121615138E+01  0.91206234121E+01  0.52627334434E+01  0.14353004050E+02  0.41800000000E+01 0. -1.
</event>
<event>
11    1  0.1078607E-008  0.1470896E+03  0.7561462E-02  0.1099890E+00
         22   -1    0    0    0    0  0.00000000000E+00  0.00000000000E+00  0.46639615116E+02  0.46639615116E+02  0.00000000000E+00 0.  1.
         22   -1    0    0    0    0 -0.00000000000E+00 -0.00000000000E+00 -0.17550892659E+04  0.17550892659E+04  0.00000000000E+00 0. -1.
         24    2    1    2    0    0 -0.67932154950E+02  0.17275603878E+02 -0.11307732004E+04  0.11358314663E+04  0.80943591911E+02 0.  0.
         25    2    1    2    0    0  0.11623117824E+03 -0.11760088857E+02 -0.53523672095E+03  0.56193747698E+03  0.12508954432E+03 0.  0.
        -24    2    1    2    0    0 -0.48299023287E+02 -0.55155150216E+01 -0.42439729423E+02  0.10395993766E+03  0.81506573038E+02 0.  0.
        -11    1    3    3    0    0  0.53154171415E+00 -0.25677438673E+02 -0.22562296195E+03  0.22708001751E+03  0.00000000000E+00 0.  1.
         12    1    3    3    0    0 -0.68463696664E+02  0.42953042552E+02 -0.90515023843E+03  0.90875144884E+03  0.00000000000E+00 0. -1.
         11    1    5    5    0    0  0.79337225544E+01 -0.74353081837E+01 -0.46302437328E+02  0.47561996004E+02  0.00000000000E+00 0. -1.
        -12    1    5    5    0    0 -0.56232745842E+02  0.19197931622E+01  0.38627079051E+01  0.56397941656E+02  0.00000000000E+00 0.  1.
          5    1    4    4  501    0  0.13192485903E+03 -0.11746591419E+02 -0.32363028747E+03  0.34970871623E+03  0.41800000000E+01 0. -1.
         -5    1    4    4    0  501 -0.15693680795E+02 -0.13497437807E-01 -0.21160643348E+03  0.21222876075E+03  0.41800000000E+01 0. -1.
</event>
<event>
11    1  0.1078607E-008  0.1613395E+03  0.7561462E-02  0.1085824E+00
         22   -1    0    0    0    0  0.00000000000E+00  0.00000000000E+00  0.18970547786E+03  0.18970547786E+03  0.00000000000E+00 0. -1.
         22   -1    0    0    0    0 -0.00000000000E+00 -0.00000000000E+00 -0.13215993036E+04  0.13215993036E+04  0.00000000000E+00 0.  1.
        -24    2    1    2    0    0 -0.18169681769E+02  0.38182120860E+02 -0.10297512877E+04  0.10336905290E+04  0.79626524768E+02 0.  0.
         25    2    1    2    0    0  0.27886212955E+02 -0.13584847415E+03 -0.22942730763E+03  0.29583203532E+03  0.12508898766E+03 0.  0.
         24    2    1    2    0    0 -0.97165311859E+01  0.97666353289E+02  0.12728476962E+03  0.18178221715E+03  0.84913098820E+02 0.  0.
        -11    1    5    5    0    0 -0.20735838125E+02  0.95553331435E+01 -0.41075719302E+01  0.23198093055E+02  0.00000000000E+00 0.  1.
         12    1    5    5    0    0  0.11019306939E+02  0.88111020146E+02  0.13139234155E+03  0.15858412410E+03  0.00000000000E+00 0. -1.
         13    1    3    3    0    0 -0.93254876355E+01  0.28648101881E+02 -0.11605809813E+03  0.11990479808E+03  0.00000000000E+00 0. -1.
        -14    1    3    3    0    0 -0.88441941339E+01  0.95340189796E+01 -0.91369318961E+03  0.91378573092E+03  0.00000000000E+00 0.  1.
          5    1    4    4  501    0  0.63448724901E+02 -0.11758673698E+03 -0.12142749969E+03  0.18059482686E+03  0.41800000000E+01 0.  1.
         -5    1    4    4    0  501 -0.35562511946E+02 -0.18261737168E+02 -0.10799980794E+03  0.11523720847E+03  0.41800000000E+01 0.  1.
</event>
<event>
11    1  0.1078607E-008  0.1481348E+03  0.7561462E-02  0.1098800E+00
         22   -1    0    0    0    0  0.00000000000E+00  0.00000000000E+00  0.19326379104E+03  0.19326379104E+03  0.00000000000E+00 0. -1.
         22   -1    0    0    0    0 -0.00000000000E+00 -0.00000000000E+00 -0.98040309806E+03  0.98040309806E+03  0.00000000000E+00 0. -1.
        -24    2    1    2    0    0  0.14644688876E+02  0.76200516056E+02 -0.82925789631E+03  0.83712065182E+03  0.84150707332E+02 0.  0.
         25    2    1    2    0    0 -0.29110203532E+02 -0.97039282003E+02 -0.86460995428E+02  0.18272106230E+03  0.12508979446E+03 0.  0.
         24    2    1    2    0    0  0.14465514656E+02  0.20838765947E+02  0.12857958472E+03  0.15382517498E+03  0.80535517443E+02 0.  0.
        -11    1    5    5    0    0 -0.27955872519E+02  0.20147015844E+02  0.27117369845E+02  0.43849570158E+02  0.00000000000E+00 0.  1.
         12    1    5    5    0    0  0.42421387176E+02  0.69175010228E+00  0.10146221488E+03  0.10997560482E+03  0.00000000000E+00 0. -1.
         13    1    3    3    0    0 -0.65311403610E+01  0.64996061769E+02 -0.77573581788E+03  0.77848134402E+03  0.00000000000E+00 0. -1.
        -14    1    3    3    0    0  0.21175829237E+02  0.11204454287E+02 -0.53522078433E+02  0.58639307803E+02  0.00000000000E+00 0.  1.
          5    1    4    4  501    0 -0.51992534383E+02 -0.95822875646E+02 -0.10615222424E+03  0.15222028196E+03  0.41800000000E+01 0. -1.
         -5    1    4    4    0  501  0.22882330851E+02 -0.12164063570E+01  0.19691228812E+02  0.30500780346E+02  0.41800000000E+01 0. -1.
</event>
<event>
11    1  0.1078607E-008  0.1465541E+03  0.7561462E-02  0.1100453E+00
         22   -1    0    0    0    0  0.00000000000E+00  0.00000000000E+00  0.88799101627E+03  0.88799101627E+03  0.00000000000E+00 0. -1.
         22   -1    0    0    0    0 -0.00000000000E+00 -0.00000000000E+00 -0.16686221731E+03  0.16686221731E+03  0.00000000000E+00 0.  1.
         24    2    1    2    0    0 -0.90874139497E+01  0.56926913029E+02 -0.12421840656E+03  0.15144504212E+03  0.64669418856E+02 0.  0.
         25    2    1    2    0    0  0.23558781295E+01 -0.12315359066E+03  0.29772189049E+03  0.34562756149E+03  0.12509088748E+03 0.  0.
        -24    2    1    2    0    0  0.67315358203E+01  0.66226677636E+02  0.54762531503E+03  0.55778062997E+03  0.82428509073E+02 0.  0.
        -11    1    3    3    0    0 -0.26517178776E+02  0.55185749955E+02 -0.11785268731E+03  0.13280769434E+03  0.00000000000E+00 0.  1.
         12    1    3    3    0    0  0.17429764826E+02  0.17411630736E+01 -0.63657192408E+01  0.18637347778E+02  0.00000000000E+00 0. -1.
         13    1    5    5    0    0  0.22000363539E+02  0.70656933253E+02  0.52463494111E+03  0.52982850022E+03  0.00000000000E+00 0. -1.
        -14    1    5    5    0    0 -0.15268827718E+02 -0.44302556175E+01  0.22990373913E+02  0.27952129747E+02  0.00000000000E+00 0.  1.
          5    1    4    4  501    0  0.10167584665E+02  0.21716927941E+02  0.82674733400E+02  0.86183459433E+02  0.41800000000E+01 0.  1.
         -5    1    4    4    0  501 -0.78117065357E+01 -0.14487051861E+03  0.21504715709E+03  0.25944410205E+03  0.41800000000E+01 0.  1.
</event>
<event>
11    1  0.1078607E-008  0.1394034E+03  0.7561462E-02  0.1108226E+00
         22   -1    0    0    0    0  0.00000000000E+00  0.00000000000E+00  0.47469221207E+03  0.47469221207E+03  0.00000000000E+00 0. -1.
         22   -1    0    0    0    0 -0.00000000000E+00 -0.00000000000E+00 -0.48194574771E+03  0.48194574771E+03  0.00000000000E+00 0. -1.
        -24    2    1    2    0    0 -0.63987475822E+02 -0.12645604896E+02 -0.28800691625E+03  0.30555136626E+03  0.78481496087E+02 0.  0.
         25    2    1    2    0    0  0.45021691828E+02  0.29551605011E+02 -0.15545447379E+03  0.20667242431E+03  0.12508855846E+03 0.  0.
         24    2    1    2    0    0  0.18965783995E+02 -0.16906000115E+02  0.43620785440E+03  0.44441416921E+03  0.81124273524E+02 0.  0.
        -13    1    5    5    0    0 -0.92623825363E+01 -0.29483470764E+02  0.65544739882E+02  0.72465024010E+02  0.00000000000E+00 0.  1.
         14    1    5    5    0    0  0.28228166531E+02  0.12577470648E+02  0.37066311452E+03  0.37194914520E+03  0.00000000000E+00 0. -1.
         13    1    3    3    0    0 -0.47227962895E+02 -0.10349468790E+02 -0.28410699093E+03  0.28819155831E+03  0.00000000000E+00 0. -1.
        -14    1    3    3    0    0 -0.16759512928E+02 -0.22961361061E+01 -0.38999253205E+01  0.17359807951E+02  0.00000000000E+00 0.  1.
          5    1    4    4  501    0  0.18063962769E+02 -0.16060569226E+02  0.14572793943E+02  0.28532216144E+02  0.41800000000E+01 0. -1.
         -5    1    4    4    0  501  0.26957729058E+02  0.45612174237E+02 -0.17002726773E+03  0.17814020817E+03  0.41800000000E+01 0. -1.
</event>
<event>
11    1  0.1078607E-008  0.1617972E+03  0.7561462E-02  0.1085399E+00
         22   -1    0    0    0    0  0.00000000000E+00  0.00000000000E+00  0.14564068362E+04  0.14564068362E+04  0.00000000000E+00 0.  1.
         22   -1    0    0    0    0 -0.00000000000E+00 -0.00000000000E+00 -0.25517916946E+03  0.25517916946E+03  0.00000000000E+00 0.  1.
         24    2    1    2    0    0 -0.22167090150E+02 -0.12255272759E+02 -0.18542104044E+03  0.20081259945E+03  0.72822841649E+02 0.  0.
         25    2    1    2    0    0  0.46431341728E+02  0.11104634474E+03  0.69144241740E+02  0.18685725385E+03  0.12509015539E+03 0.  0.
        -24    2    1    2    0    0 -0.24264251578E+02 -0.98791071978E+02  0.13175044655E+04  0.13239161524E+04  0.81163613912E+02 0.  0.
        -13    1    3    3    0    0 -0.42492865773E+02  0.98315762261E+01 -0.13764520339E+03  0.14439011583E+03  0.00000000000E+00 0.  1.
         14    1    3    3    0    0  0.20325775622E+02 -0.22086848985E+02 -0.47775837048E+02  0.56422483624E+02  0.00000000000E+00 0. -1.
         13    1    5    5    0    0  0.14564103124E+02 -0.24560072527E+02  0.11480162137E+03  0.11829929219E+03  0.00000000000E+00 0. -1.
        -14    1    5    5    0    0 -0.38828354702E+02 -0.74230999450E+02  0.12027028441E+04  0.12056168602E+04  0.00000000000E+00 0.  1.
          5    1    4    4  501    0  0.35181513716E+02  0.16034812582E+02  0.81494452180E+02  0.90297686892E+02  0.41800000000E+01 0. -1.
         -5    1    4    4    0  501  0.11249828012E+02  0.95011532154E+02 -0.12350210441E+02  0.96559566955E+02  0.41800000000E+01 0. -1.
</event>
<event>
11    1  0.1078607E-008  0.2719701E+03  0.7561462E-02  0.1012805E+00
         22   -1    0    0    0    0  0.00000000000E+00  0.00000000000E+00  0.43502635816E+03  0.43502635816E+03  0.00000000000E+00 0. -1.
         22   -1    0    0    0    0 -0.00000000000E+00 -0.00000000000E+00 -0.11790934942E+04  0.11790934942E+04  0.00000000000E+00 0. -1.
        -24    2    1    2    0    0 -0.15594059515E+02 -0.44079037154E+02 -0.78898799202E+03  0.79457139514E+03  0.81581334921E+02 0.  0.
         25    2    1    2    0    0  0.25498419086E+03  0.52329581929E+02 -0.28386740863E+03  0.40496135900E+03  0.12513062721E+03 0.  0.
         24    2    1    2    0    0 -0.23939013135E+03 -0.82505447750E+01  0.32878826466E+03  0.41458709818E+03  0.80031447097E+02 0.  0.
        -11    1    5    5    0    0 -0.68745740554E+02 -0.37504421116E+02  0.84994203933E+02  0.11557064138E+03  0.00000000000E+00 0.  1.
         12    1    5    5    0    0 -0.17064439079E+03  0.29253876340E+02  0.24379406073E+03  0.29901645680E+03  0.00000000000E+00 0. -1.
         13    1    3    3    0    0 -0.47424081897E+02 -0.22022461625E+02 -0.35078605773E+03  0.35466165659E+03  0.00000000000E+00 0. -1.
        -14    1    3    3    0    0  0.31830022382E+02 -0.22056575529E+02 -0.43820193430E+03  0.43990973855E+03  0.00000000000E+00 0.  1.
          5    1    4    4  501    0 -0.28528543465E+01  0.76623781884E+01  0.85397822942E+01  0.12539980026E+02  0.41800000000E+01 0. -1.
         -5    1    4    4    0  501  0.25783704521E+03  0.44667203740E+02 -0.29240719092E+03  0.39242137897E+03  0.41800000000E+01 0. -1.
</event>
<event>
11    1  0.1078607E-008  0.1748645E+03  0.7561462E-02  0.1073874E+00
         22   -1    0    0    0    0  0.00000000000E+00  0.00000000000E+00  0.35053673498E+04  0.35053673498E+04  0.00000000000E+00 0.  1.
         22   -1    0    0    0    0 -0.00000000000E+00 -0.00000000000E+00 -0.10335549534E+04  0.10335549534E+04  0.00000000000E+00 0. -1.
        -24    2    1    2    0    0  0.12199508989E+03  0.12623319765E+01 -0.10076097683E+04  0.10178648224E+04  0.76726501975E+02 0.  0.
         25    2    1    2    0    0 -0.13938615443E+03 -0.66135085261E+02  0.47544272163E+03  0.51526273628E+03  0.12509019267E+03 0.  0.
         24    2    1    2    0    0  0.17391064538E+02  0.64872753285E+02  0.30039794430E+04  0.30057947446E+04  0.79991433114E+02 0.  0.
        -11    1    5    5    0    0  0.28549280119E+02  0.77893476024E+02  0.20761285988E+04  0.20777854591E+04  0.00000000000E+00 0.  1.
         12    1    5    5    0    0 -0.11158215580E+02 -0.13020722740E+02  0.92785084418E+03  0.92800928554E+03  0.00000000000E+00 0. -1.
         13    1    3    3    0    0  0.94660060450E+02  0.97275171095E+01 -0.47230652827E+03  0.48179726886E+03  0.00000000000E+00 0. -1.
        -14    1    3    3    0    0  0.27335029442E+02 -0.84651851330E+01 -0.53530323999E+03  0.53606755352E+03  0.00000000000E+00 0.  1.
          5    1    4    4  501    0 -0.46401963492E+02  0.17866122422E+02  0.45909289577E+02  0.67804688744E+02  0.41800000000E+01 0.  1.
         -5    1    4    4    0  501 -0.92984190939E+02 -0.84001207683E+02  0.42953343205E+03  0.44745804754E+03  0.41800000000E+01 0.  1.
</event>
<event>
11    1  0.1078607E-008  0.1399133E+03  0.7561462E-02  0.1107655E+00
         22   -1    0    0    0    0  0.00000000000E+00  0.00000000000E+00  0.10403500034E+04  0.10403500034E+04  0.00000000000E+00 0.  1.
         22   -1    0    0    0    0 -0.00000000000E+00 -0.00000000000E+00 -0.70029528969E+03  0.70029528969E+03  0.00000000000E+00 0.  1.
         24    2    1    2    0    0  0.34106257019E+02 -0.34098547119E+02 -0.64461690225E+03  0.65141846852E+03  0.80555091611E+02 0.  0.
         25    2    1    2    0    0 -0.27779320811E+02  0.94865468043E+02  0.78410503987E+02  0.17767568266E+03  0.12509713578E+03 0.  0.
        -24    2    1    2    0    0 -0.63269362081E+01 -0.60766920924E+02  0.90626111199E+03  0.91155114194E+03  0.76704839848E+02 0.  0.
        -11    1    3    3    0    0  0.28949221377E+02 -0.47676227838E+02 -0.62228029982E+03  0.62477504085E+03  0.00000000000E+00 0.  1.
         12    1    3    3    0    0  0.51570356416E+01  0.13577680719E+02 -0.22336602425E+02  0.26643427674E+02  0.00000000000E+00 0. -1.
         13    1    5    5    0    0 -0.16536331008E+02  0.49888475074E+01  0.53977284795E+02  0.56673504537E+02  0.00000000000E+00 0. -1.
        -14    1    5    5    0    0  0.10209394799E+02 -0.65755768432E+02  0.85228382720E+03  0.85487763740E+03  0.00000000000E+00 0.  1.
          5    1    4    4  501    0  0.18524455222E+02  0.36965139928E+02 -0.26394256295E+02  0.49231150469E+02  0.41800000000E+01 0.  1.
         -5    1    4    4    0  501 -0.46303776032E+02  0.57900328116E+02  0.10480476028E+03  0.12844453219E+03  0.41800000000E+01 0.  1.
</event>
<event>
11    1  0.1078607E-008  0.1562133E+03  0.7561462E-02  0.1090694E+00
         22   -1    0    0    0    0  0.00000000000E+00  0.00000000000E+00  0.39180657293E+03  0.39180657293E+03  0.00000000000E+00 0.  1.
         22   -1    0    0    0    0 -0.00000000000E+00 -0.00000000000E+00 -0.19512633692E+04  0.19512633692E+04  0.00000000000E+00 0. -1.
         24    2    1    2    0    0  0.30803734954E+01  0.25797244292E+02 -0.18200145695E+04  0.18219891315E+04  0.80724071031E+02 0.  0.
         25    2    1    2    0    0 -0.89194069853E+02 -0.59700269285E+02 -0.62528216497E+02  0.17627343931E+03  0.12507135283E+03 0.  0.
        -24    2    1    2    0    0  0.86113696358E+02  0.33903024993E+02  0.32308598969E+03  0.34480737134E+03  0.77088149517E+02 0.  0.
        -13    1    3    3    0    0  0.13046465870E+02  0.39900898496E+02 -0.47179524105E+03  0.47365920391E+03  0.00000000000E+00 0.  1.
         14    1    3    3    0    0 -0.99660923743E+01 -0.14103654204E+02 -0.13482193284E+04  0.13483299276E+04  0.00000000000E+00 0. -1.
         11    1    5    5    0    0  0.22886393484E+02 -0.24558262598E+02  0.10898002039E+03  0.11403306588E+03  0.00000000000E+00 0. -1.
        -12    1    5    5    0    0  0.63227302874E+02  0.58461287591E+02  0.21410596930E+03  0.23077430547E+03  0.00000000000E+00 0.  1.
          5    1    4    4  501    0 -0.59609320545E+02 -0.92847961305E+02 -0.70412997148E+02  0.13095601392E+03  0.41800000000E+01 0.  1.
         -5    1    4    4    0  501 -0.29584749309E+02  0.33147692021E+02  0.78847806507E+01  0.45317425389E+02  0.41800000000E+01 0.  1.
</event>
<event>
11    1  0.1078607E-008  0.1482067E+03  0.7561462E-02  0.1098725E+00
         22   -1    0    0    0    0  0.00000000000E+00  0.00000000000E+00  0.97993244785E+03  0.97993244785E+03  0.00000000000E+00 0.  1.
         22   -1    0    0    0    0 -0.00000000000E+00 -0.00000000000E+00 -0.10558970666E+04  0.10558970666E+04  0.00000000000E+00 0.  1.
         24    2    1    2    0    0 -0.75029780948E+02  0.24488533023E+02 -0.10025050965E+04  0.10080174413E+04  0.69667332262E+02 0.  0.
         25    2    1    2    0    0  0.12537515851E+03  0.19212898378E+02  0.12051337304E+03  0.21507891830E+03  0.12508957663E+03 0.  0.
        -24    2    1    2    0    0 -0.50345377559E+02 -0.43701431401E+02  0.80602710465E+03  0.81273315490E+03  0.80068817201E+02 0.  0.
        -11    1    3    3    0    0 -0.56160019675E+02  0.39340676942E+02 -0.47044878442E+03  0.47541949417E+03  0.00000000000E+00 0.  1.
         12    1    3    3    0    0 -0.18869761273E+02 -0.14852143918E+02 -0.53205631204E+03  0.53259794709E+03  0.00000000000E+00 0. -1.
         13    1    5    5    0    0 -0.60992884813E+02 -0.24261620846E+01  0.43389620274E+03  0.43816884076E+03  0.00000000000E+00 0. -1.
        -14    1    5    5    0    0  0.10647507254E+02 -0.41275269316E+02  0.37213090191E+03  0.37456431414E+03  0.00000000000E+00 0.  1.
          5    1    4    4  501    0  0.76303453805E+02 -0.51363455213E+02  0.63300329333E+02  0.11173551668E+03  0.41800000000E+01 0.  1.
         -5    1    4    4    0  501  0.49071704701E+02  0.70576353591E+02  0.57213043711E+02  0.10334340162E+03  0.41800000000E+01 0.  1.
</event>
<event>
11    1  0.1078607E-008  0.1364685E+03  0.7561462E-02  0.1111567E+00
         22   -1    0    0    0    0  0.00000000000E+00  0.00000000000E+00  0.55514110348E+03  0.55514110348E+03  0.00000000000E+00 0.  1.
         22   -1    0    0    0    0 -0.00000000000E+00 -0.00000000000E+00 -0.53694035715E+03  0.53694035715E+03  0.00000000000E+00 0.  1.
        -24    2    1    2    0    0  0.53692455387E+00  0.41352794818E+02 -0.37287847549E+03  0.38357844936E+03  0.79898231495E+02 0.  0.
         25    2    1    2    0    0  0.19203586223E+02 -0.91028564209E+02 -0.11474242214E+03  0.19356737920E+03  0.12509008605E+03 0.  0.
         24    2    1    2    0    0 -0.19740510777E+02  0.49675769391E+02  0.50582164396E+03  0.51493563208E+03  0.80285738807E+02 0.  0.
        -11    1    5    5    0    0 -0.34833007053E+02 -0.46893046678E+01  0.27885636110E+03  0.28106262306E+03  0.00000000000E+00 0.  1.
         12    1    5    5    0    0  0.15092496276E+02  0.54365074058E+02  0.22696528286E+03  0.23387300901E+03  0.00000000000E+00 0. -1.
         13    1    3    3    0    0  0.31994078078E+02  0.32044602664E+02 -0.11455154845E+03  0.12317684378E+03  0.00000000000E+00 0. -1.
        -14    1    3    3    0    0 -0.31457153524E+02  0.93081921546E+01 -0.25832692705E+03  0.26040160558E+03  0.00000000000E+00 0.  1.
          5    1    4    4  501    0 -0.46485856011E+02 -0.23879759501E+02 -0.11030112802E+02  0.53575306918E+02  0.41800000000E+01 0.  1.
         -5    1    4    4    0  501  0.65689442234E+02 -0.67148804708E+02 -0.10371230933E+03  0.13999207228E+03  0.41800000000E+01 0.  1.
</event>
<event>
11    1  0.1078607E-008  0.1588038E+03  0.7561462E-02  0.1088208E+00
         22   -1    0    0    0    0  0.00000000000E+00  0.00000000000E+00  0.78154444212E+03  0.78154444212E+03  0.00000000000E+00 0.  1.
         22   -1    0    0    0    0 -0.00000000000E+00 -0.00000000000E+00 -0.56126094795E+03  0.56126094795E+03  0.00000000000E+00 0. -1.
         24    2    1    2    0    0 -0.22928509257E+02  0.83130919803E+02 -0.28678077762E+03  0.31029839423E+03  0.81273690006E+02 0.  0.
         25    2    1    2    0    0 -0.49053650179E+01 -0.13360829073E+03 -0.22711712910E+03  0.29172582635E+03  0.12508608824E+03 0.  0.
        -24    2    1    2    0    0  0.27833874274E+02  0.50477370930E+02  0.73418140089E+03  0.74078116948E+03  0.80073229688E+02 0.  0.
        -13    1    3    3    0    0 -0.41376807909E+02  0.16481031536E+02 -0.72034430090E+02  0.84691344018E+02  0.00000000000E+00 0.  1.
         14    1    3    3    0    0  0.18448298652E+02  0.66649888267E+02 -0.21474634753E+03  0.22560705022E+03  0.00000000000E+00 0. -1.
         11    1    5    5    0    0 -0.22648629757E+02 -0.38901205826E+01  0.12458862165E+03  0.12669024474E+03  0.00000000000E+00 0. -1.
        -12    1    5    5    0    0  0.50482504031E+02  0.54367491512E+02  0.60959277924E+03  0.61409092474E+03  0.00000000000E+00 0.  1.
          5    1    4    4  501    0 -0.38047371114E+02 -0.14302760256E+03 -0.19052747866E+03  0.24129378373E+03  0.41800000000E+01 0. -1.
         -5    1    4    4    0  501  0.33142006096E+02  0.94193118312E+01 -0.36589650444E+02  0.50432042622E+02  0.41800000000E+01 0. -1.
</event>
<event>
11    1  0.1078607E-008  0.1323469E+03  0.7561462E-02  0.1116419E+00
         22   -1    0    0    0    0  0.00000000000E+00  0.00000000000E+00  0.22393333060E+03  0.22393333060E+03  0.00000000000E+00 0. -1.
         22   -1    0    0    0    0 -0.00000000000E+00 -0.00000000000E+00 -0.16062032204E+04  0.16062032204E+04  0.00000000000E+00 0.  1.
         24    2    1    2    0    0 -0.92131468097E+01  0.43392570099E+02 -0.14003839049E+04  0.14032582289E+04  0.78043440759E+02 0.  0.
         25    2    1    2    0    0  0.37244970279E+02 -0.17418982846E+02 -0.17221105945E+03  0.21678342813E+03  0.12509115454E+03 0.  0.
        -24    2    1    2    0    0 -0.28031823469E+02 -0.25973587253E+02  0.19032507449E+03  0.21009489401E+03  0.80348118510E+02 0.  0.
        -11    1    3    3    0    0 -0.12080286831E+02  0.16528102749E+02 -0.12670141442E+04  0.12671795268E+04  0.00000000000E+00 0.  1.
         12    1    3    3    0    0  0.28671400209E+01  0.26864467350E+02 -0.13336976072E+03  0.13607870213E+03  0.00000000000E+00 0. -1.
         13    1    5    5    0    0 -0.35583115436E+02  0.19863018015E+02  0.10997342860E+03  0.11728108367E+03  0.00000000000E+00 0. -1.
        -14    1    5    5    0    0  0.75512919663E+01 -0.45836605268E+02  0.80351645893E+02  0.92813810344E+02  0.00000000000E+00 0.  1.
          5    1    4    4  501    0  0.65892377801E+02 -0.17388163602E+02 -0.35332271355E+02  0.76876495009E+02  0.41800000000E+01 0.  1.
         -5    1    4    4    0  501 -0.28647407522E+02 -0.30819244327E-01 -0.13687878809E+03  0.13990693313E+03  0.41800000000E+01 0.  1.
</event>
<event>
11    1  0.1078607E-008  0.1263509E+03  0.7561462E-02  0.1123836E+00
         22   -1    0    0    0    0  0.00000000000E+00  0.00000000000E+00  0.56310244927E+03  0.56310244927E+03  0.00000000000E+00 0. -1.
         22   -1    0    0    0    0 -0.00000000000E+00 -0.00000000000E+00 -0.32305508784E+03  0.32305508784E+03  0.00000000000E+00 0.  1.
         24    2    1    2    0    0 -0.15593807667E+02  0.80888515691E+01 -0.27456545526E+03  0.28832250709E+03  0.86226924534E+02 0.  0.
         25    2    1    2    0    0  0.17149393607E+02 -0.13630936457E+02  0.67374501701E+02  0.14375886889E+03  0.12508950705E+03 0.  0.
        -24    2    1    2    0    0 -0.15555859402E+01  0.55420848882E+01  0.44723831499E+03  0.45407616114E+03  0.78293774751E+02 0.  0.
        -11    1    3    3    0    0 -0.44006869291E+02 -0.19172655949E+02 -0.16764310543E+03  0.17438006216E+03  0.00000000000E+00 0.  1.
         12    1    3    3    0    0  0.28413061624E+02  0.27261507518E+02 -0.10692234983E+03  0.11394244493E+03  0.00000000000E+00 0. -1.
         13    1    5    5    0    0 -0.19528557026E+02  0.37198533430E+02  0.22878170210E+03  0.23260731426E+03  0.00000000000E+00 0. -1.
        -14    1    5    5    0    0  0.17972971085E+02 -0.31656448542E+02  0.21845661289E+03  0.22146884688E+03  0.00000000000E+00 0.  1.
          5    1    4    4  501    0  0.17782390517E+02 -0.10318416543E+02 -0.35235454659E+02  0.41008447879E+02  0.41800000000E+01 0.  1.
         -5    1    4    4    0  501 -0.63299691045E+00 -0.33125199145E+01  0.10260995636E+03  0.10275042101E+03  0.41800000000E+01 0.  1.
</event>
<event>
11    1  0.1078607E-008  0.1349764E+03  0.7561462E-02  0.1113301E+00
         22   -1    0    0    0    0  0.00000000000E+00  0.00000000000E+00  0.56672325100E+03  0.56672325100E+03  0.00000000000E+00 0.  1.
         22   -1    0    0    0    0 -0.00000000000E+00 -0.00000000000E+00 -0.52287825055E+03  0.52287825055E+03  0.00000000000E+00 0.  1.
         24    2    1    2    0    0 -0.11300970080E+02 -0.15370292484E+02 -0.45237620906E+03  0.45971760405E+03  0.79574387403E+02 0.  0.
         25    2    1    2    0    0 -0.20868419131E+02  0.54143125962E+02  0.14096876310E+02  0.13860954246E+03  0.12508762662E+03 0.  0.
        -24    2    1    2    0    0  0.32169389211E+02 -0.38772833477E+02  0.48212433320E+03  0.49127435504E+03  0.79802362355E+02 0.  0.
        -11    1    3    3    0    0 -0.35216179727E+02 -0.13718083054E+02 -0.40363252298E+03  0.40539804973E+03  0.00000000000E+00 0.  1.
         12    1    3    3    0    0  0.23915209647E+02 -0.16522094304E+01 -0.48743686077E+02  0.54319554314E+02  0.00000000000E+00 0. -1.
         11    1    5    5    0    0  0.19457275167E+02 -0.47871956801E+02  0.14758960200E+03  0.15637455171E+03  0.00000000000E+00 0. -1.
        -12    1    5    5    0    0  0.12712114044E+02  0.90991233238E+01  0.33453473120E+03  0.33489980333E+03  0.00000000000E+00 0.  1.
          5    1    4    4  501    0  0.51729049898E+02  0.20700408791E+02 -0.56843023863E+01  0.56162133338E+02  0.41800000000E+01 0.  1.
         -5    1    4    4    0  501 -0.72597469029E+02  0.33442717171E+02  0.19781178696E+02  0.82447409127E+02  0.41800000000E+01 0.  1.
</event>
<event>
11    1  0.1078607E-008  0.1267116E+03  0.7561462E-02  0.1123377E+00
         22   -1    0    0    0    0  0.00000000000E+00  0.00000000000E+00  0.16999682857E+03  0.16999682857E+03  0.00000000000E+00 0. -1.
         22   -1    0    0    0    0 -0.00000000000E+00 -0.00000000000E+00 -0.36319936265E+03  0.36319936265E+03  0.00000000000E+00 0.  1.
        -24    2    1    2    0    0  0.33250268645E+02  0.12318550090E+02 -0.25582586084E+03  0.26993002285E+03  0.78473047094E+02 0.  0.
         25    2    1    2    0    0 -0.96620101989E+01  0.18275691496E+01 -0.29524710331E+02  0.12890084974E+03  0.12508807335E+03 0.  0.
         24    2    1    2    0    0 -0.23588258446E+02 -0.14146119240E+02  0.92148037091E+02  0.13436531862E+03  0.93841672417E+02 0.  0.
        -11    1    5    5    0    0 -0.53889752876E+02  0.70618523242E+01  0.30096302290E+02  0.62126987975E+02  0.00000000000E+00 0.  1.
         12    1    5    5    0    0  0.30301494430E+02 -0.21207971564E+02  0.62051734801E+02  0.72238330645E+02  0.00000000000E+00 0. -1.
         13    1    3    3    0    0 -0.10625164288E+02  0.33808086196E+01 -0.99406933460E+00  0.11194291264E+02  0.00000000000E+00 0. -1.
        -14    1    3    3    0    0  0.43875432933E+02  0.89377414709E+01 -0.25483179151E+03  0.25873573159E+03  0.00000000000E+00 0.  1.
          5    1    4    4  501    0 -0.45684583696E+02  0.46066568165E+02 -0.30220643848E+02  0.71693581335E+02  0.41800000000E+01 0.  1.
         -5    1    4    4    0  501  0.36022573498E+02 -0.44238999015E+02  0.69593351722E+00  0.57207268408E+02  0.41800000000E+01 0.  1.
</event>
<event>
11    1  0.1078607E-008  0.1898010E+03  0.7561462E-02  0.1061980E+00
         22   -1    0    0    0    0  0.00000000000E+00  0.00000000000E+00  0.17565803901E+04  0.17565803901E+04  0.00000000000E+00 0.  1.
         22   -1    0    0    0    0 -0.00000000000E+00 -0.00000000000E+00 -0.14211554859E+03  0.14211554859E+03  0.00000000000E+00 0. -1.
        -24    2    1    2    0    0 -0.14441883605E+03 -0.91445618399E+01 -0.71576062277E+02  0.18130466766E+03  0.82509554636E+02 0.  0.
         25    2    1    2    0    0  0.12350039091E+03 -0.40002271653E+02  0.58539869680E+03  0.61252795749E+03  0.12508531570E+03 0.  0.
         24    2    1    2    0    0  0.20918445139E+02  0.49146833493E+02  0.11006422070E+04  0.11048633135E+04  0.80353476756E+02 0.  0.
        -13    1    5    5    0    0 -0.10164069535E+02  0.61614039990E+02  0.77073898587E+03  0.77326462649E+03  0.00000000000E+00 0.  1.
         14    1    5    5    0    0  0.31082514674E+02 -0.12467206498E+02  0.32990322109E+03  0.33159868703E+03  0.00000000000E+00 0. -1.
         13    1    3    3    0    0 -0.12995457997E+03 -0.25625069965E+02 -0.83266920679E+02  0.15645516017E+03  0.00000000000E+00 0. -1.
        -14    1    3    3    0    0 -0.14464256080E+02  0.16480508125E+02  0.11690858402E+02  0.24849507484E+02  0.00000000000E+00 0.  1.
          5    1    4    4  501    0  0.12668630194E+02 -0.34342626830E+02  0.34255233809E+02  0.50307093455E+02  0.41800000000E+01 0.  1.
         -5    1    4    4    0  501  0.11083176071E+03 -0.56596448227E+01  0.55114346299E+03  0.56222086403E+03  0.41800000000E+01 0.  1.
</event>
<event>
11    1  0.1078607E-008  0.1405006E+03  0.7561462E-02  0.1107001E+00
         22   -1    0    0    0    0  0.00000000000E+00  0.00000000000E+00  0.76924820689E+03  0.76924820689E+03  0.00000000000E+00 0. -1.
         22   -1    0    0    0    0 -0.00000000000E+00 -0.00000000000E+00 -0.15411550535E+03  0.15411550535E+03  0.00000000000E+00 0. -1.
        -24    2    1    2    0    0  0.29752268570E+02  0.37731069849E+02 -0.85798708417E+02  0.12720568538E+03  0.80690996459E+02 0.  0.
         25    2    1    2    0    0 -0.39920698574E+02 -0.97122480725E+02  0.11006267822E+03  0.19694234187E+03  0.12508418944E+03 0.  0.
         24    2    1    2    0    0  0.10168430005E+02  0.59391410876E+02  0.59086873173E+03  0.59921568499E+03  0.79390442410E+02 0.  0.
        -11    1    5    5    0    0 -0.23164507846E+02  0.61095630925E+02  0.35016221209E+03  0.35620618372E+03  0.00000000000E+00 0.  1.
         12    1    5    5    0    0  0.33332937850E+02 -0.17042200493E+01  0.24070651963E+03  0.24300950127E+03  0.00000000000E+00 0. -1.
         13    1    3    3    0    0  0.37576025497E+02  0.32040512442E+02 -0.99121274122E+02  0.11074104530E+03  0.00000000000E+00 0. -1.
        -14    1    3    3    0    0 -0.78237569270E+01  0.56905574073E+01  0.13322565705E+02  0.16464640082E+02  0.00000000000E+00 0.  1.
          5    1    4    4  501    0 -0.98184008282E+01 -0.23112226928E+02 -0.27707059023E+02  0.37626181684E+02  0.41800000000E+01 0.  1.
         -5    1    4    4    0  501 -0.30102297746E+02 -0.74010253797E+02  0.13776973725E+03  0.15931616019E+03  0.41800000000E+01 0.  1.
</event>
<event>
11    1  0.1078607E-008  0.1529502E+03  0.7561462E-02  0.1093902E+00
         22   -1    0    0    0    0  0.00000000000E+00  0.00000000000E+00  0.11633611850E+04  0.11633611850E+04  0.00000000000E+00 0. -1.
         22   -1    0    0    0    0 -0.00000000000E+00 -0.00000000000E+00 -0.11491119504E+04  0.11491119504E+04  0.00000000000E+00 0. -1.
         24    2    1    2    0    0  0.27885134385E+02  0.32130592409E+01 -0.98586564663E+03  0.98949802077E+03  0.79920932333E+02 0.  0.
         25    2    1    2    0    0 -0.10878187653E+03 -0.36528978568E+02 -0.11278968310E+03  0.20380603584E+03  0.12509006633E+03 0.  0.
        -24    2    1    2    0    0  0.80896742145E+02  0.33315919327E+02  0.11129045643E+04  0.11191690788E+04  0.79552651523E+02 0.  0.
        -13    1    3    3    0    0 -0.14795889523E+02 -0.19781368652E+02 -0.13426800019E+03  0.13652148830E+03  0.00000000000E+00 0.  1.
         14    1    3    3    0    0  0.42681023908E+02  0.22994427893E+02 -0.85159764644E+03  0.85297653247E+03  0.00000000000E+00 0. -1.
         11    1    5    5    0    0  0.18870242148E+02  0.47391888556E+02  0.63591020254E+03  0.63795286882E+03  0.00000000000E+00 0. -1.
        -12    1    5    5    0    0  0.62026499996E+02 -0.14075969230E+02  0.47699436172E+03  0.48121620995E+03  0.00000000000E+00 0.  1.
          5    1    4    4  501    0 -0.13518237143E+02  0.36065401998E+02  0.70696762699E+00  0.38748266541E+02  0.41800000000E+01 0.  1.
         -5    1    4    4    0  501 -0.95263639386E+02 -0.72594380565E+02 -0.11349665073E+03  0.16505776930E+03  0.41800000000E+01 0.  1.
</event>
<event>
11    1  0.1078607E-008  0.2036842E+03  0.7561462E-02  0.1051949E+00
         22   -1    0    0    0    0  0.00000000000E+00  0.00000000000E+00  0.20498783738E+04  0.20498783738E+04  0.00000000000E+00 0. -1.
         22   -1    0    0    0    0 -0.00000000000E+00 -0.00000000000E+00 -0.40337408126E+03  0.40337408126E+03  0.00000000000E+00 0. -1.
        -24    2    1    2    0    0  0.15837176099E+03  0.79134932434E+02 -0.31974791214E+03  0.37425814436E+03  0.80538680739E+02 0.  0.
         25    2    1    2    0    0 -0.92619659186E+02 -0.20794872321E+02  0.60106557311E+02  0.16815041141E+03  0.12510369556E+03 0.  0.
         24    2    1    2    0    0 -0.65752101803E+02 -0.58340060113E+02  0.19061456473E+04  0.19108438992E+04  0.10102612011E+03 0.  0.
        -13    1    5    5    0    0 -0.32795870373E+02 -0.13607210994E+02  0.16342367614E+03  0.16723642913E+03  0.00000000000E+00 0.  1.
         14    1    5    5    0    0 -0.32956231430E+02 -0.44732849119E+02  0.17427219712E+04  0.17436074701E+04  0.00000000000E+00 0. -1.
         13    1    3    3    0    0  0.12880047950E+03  0.90406410951E+02 -0.29398147916E+03  0.33344863585E+03  0.00000000000E+00 0. -1.
        -14    1    3    3    0    0  0.29571281485E+02 -0.11271478516E+02 -0.25766432977E+02  0.40809508512E+02  0.00000000000E+00 0.  1.
          5    1    4    4  501    0  0.28698025521E+02  0.11168857894E+02  0.17030130875E+02  0.35437519850E+02  0.41800000000E+01 0.  1.
         -5    1    4    4    0  501 -0.12131768471E+03 -0.31963730215E+02  0.43076426436E+02  0.13271289156E+03  0.41800000000E+01 0.  1.
</event>
<event>
11    1  0.1078607E-008  0.1508109E+03  0.7561462E-02  0.1096053E+00
         22   -1    0    0    0    0  0.00000000000E+00  0.00000000000E+00  0.11086133458E+04  0.11086133458E+04  0.00000000000E+00 0.  1.
         22   -1    0    0    0    0 -0.00000000000E+00 -0.00000000000E+00 -0.37527030750E+03  0.37527030750E+03  0.00000000000E+00 0.  1.
         24    2    1    2    0    0  0.19391493649E+02 -0.58777082283E+01 -0.32505070997E+03  0.33515111474E+03  0.79105803686E+02 0.  0.
         25    2    1    2    0    0 -0.10119664591E+03  0.18059363947E+02  0.11539849339E+03  0.19882405582E+03  0.12508913272E+03 0.  0.
        -24    2    1    2    0    0  0.81805152256E+02 -0.12181655719E+02  0.94299525484E+03  0.94990848271E+03  0.79029103422E+02 0.  0.
        -11    1    3    3    0    0  0.10394063699E+02  0.19935900309E+02 -0.28917263690E+03  0.29004532510E+03  0.00000000000E+00 0.  1.
         12    1    3    3    0    0  0.89974299505E+01 -0.25813608537E+02 -0.35878073072E+02  0.45105789637E+02  0.00000000000E+00 0. -1.
         13    1    5    5    0    0  0.33881712317E+02 -0.27265482133E+02  0.17689644982E+03  0.18216402198E+03  0.00000000000E+00 0. -1.
        -14    1    5    5    0    0  0.47923439939E+02  0.15083826414E+02  0.76609880503E+03  0.76774446073E+03  0.00000000000E+00 0.  1.
          5    1    4    4  501    0  0.29372274782E+02 -0.19940226015E+01  0.21904061222E+02  0.36931923183E+02  0.41800000000E+01 0.  1.
         -5    1    4    4    0  501 -0.13056892069E+03  0.20053386548E+02  0.93494432172E+02  0.16189213263E+03  0.41800000000E+01 0.  1.
</event>
<event>
11    1  0.1078607E-008  0.1336710E+03  0.7561462E-02  0.1114839E+00
         22   -1    0    0    0    0  0.00000000000E+00  0.00000000000E+00  0.32167837452E+03  0.32167837452E+03  0.00000000000E+00 0. -1.
         22   -1    0    0    0    0 -0.00000000000E+00 -0.00000000000E+00 -0.15692180525E+04  0.15692180525E+04  0.00000000000E+00 0. -1.
         24    2    1    2    0    0 -0.37561421979E+02  0.64232650201E+01 -0.90360393070E+03  0.90781939792E+03  0.78637630300E+02 0.  0.
         25    2    1    2    0    0  0.66070082589E+02  0.30849956988E+02 -0.64861710170E+03  0.66458224470E+03  0.12509372359E+03 0.  0.
        -24    2    1    2    0    0 -0.28508660610E+02 -0.37273222008E+02  0.30468135442E+03  0.31849478442E+03  0.80038510528E+02 0.  0.
        -13    1    3    3    0    0 -0.27303588401E+02 -0.33555222471E+02 -0.34677780705E+03  0.34946571557E+03  0.00000000000E+00 0.  1.
         14    1    3    3    0    0 -0.10257833578E+02  0.39978487491E+02 -0.55682612365E+03  0.55835368235E+03  0.00000000000E+00 0. -1.
         11    1    5    5    0    0  0.18226974254E+02 -0.99044086679E+01  0.19571236728E+03  0.19680866497E+03  0.00000000000E+00 0. -1.
        -12    1    5    5    0    0 -0.46735634864E+02 -0.27368813340E+02  0.10896898714E+03  0.12168611945E+03  0.00000000000E+00 0.  1.
          5    1    4    4  501    0 -0.10491289020E+02 -0.77363932370E+01 -0.39807647089E+01  0.14256150016E+02  0.41800000000E+01 0.  1.
         -5    1    4    4    0  501  0.76561371609E+02  0.38586350225E+02 -0.64463633700E+03  0.65032609468E+03  0.41800000000E+01 0.  1.
</event>
<event>
11    1  0.1078607E-008  0.1362010E+03  0.7561462E-02  0.1111876E+00
         22   -1    0    0    0    0  0.00000000000E+00  0.00000000000E+00  0.28645655619E+03  0.28645655619E+03  0.00000000000E+00 0.  1.
         22   -1    0    0    0    0 -0.00000000000E+00 -0.00000000000E+00 -0.26760566023E+03  0.26760566023E+03  0.00000000000E+00 0.  1.
         24    2    1    2    0    0  0.77590336168E+01 -0.14040828662E+02 -0.18948311081E+03  0.20648761208E+03  0.80473207872E+02 0.  0.
         25    2    1    2    0    0  0.69880835911E+00 -0.41763194954E+02  0.17543123505E+02  0.13303989193E+03  0.12508876399E+03 0.  0.
        -24    2    1    2    0    0 -0.84578419759E+01  0.55804023617E+02  0.19079088327E+03  0.21453471242E+03  0.80239376568E+02 0.  0.
        -13    1    3    3    0    0  0.42100925481E+02 -0.18727920643E+02 -0.89463076359E+02  0.10063232567E+03  0.00000000000E+00 0.  1.
         14    1    3    3    0    0 -0.34341891864E+02  0.46870919804E+01 -0.10002003445E+03  0.10585528641E+03  0.00000000000E+00 0. -1.
         13    1    5    5    0    0  0.10483110609E+02 -0.13368007040E+02  0.85288977336E+02  0.86964411545E+02  0.00000000000E+00 0. -1.
        -14    1    5    5    0    0 -0.18940952585E+02  0.69172030657E+02  0.10550190593E+03  0.12757030088E+03  0.00000000000E+00 0.  1.
          5    1    4    4  501    0 -0.10541180530E+02 -0.57541446608E+02  0.61402402083E+02  0.84910905933E+02  0.41800000000E+01 0.  1.
         -5    1    4    4    0  501  0.11239988889E+02  0.15778251654E+02 -0.43859278578E+02  0.48128985995E+02  0.41800000000E+01 0.  1.
</event>
<event>
11    1  0.1078607E-008  0.1380212E+03  0.7561462E-02  0.1109788E+00
         22   -1    0    0    0    0  0.00000000000E+00  0.00000000000E+00  0.11124281844E+04  0.11124281844E+04  0.00000000000E+00 0. -1.
         22   -1    0    0    0    0 -0.00000000000E+00 -0.00000000000E+00 -0.16992379934E+03  0.16992379934E+03  0.00000000000E+00 0.  1.
        -24    2    1    2    0    0 -0.51333769375E+02 -0.16371810806E+02 -0.10819711469E+03  0.14541298916E+03  0.80840149184E+02 0.  0.
         25    2    1    2    0    0  0.10242132525E+03 -0.64522953730E+01  0.12043612664E+03  0.20170254329E+03  0.12508914977E+03 0.  0.
         24    2    1    2    0    0 -0.51087555876E+02  0.22824106179E+02  0.93026537312E+03  0.93523645130E+03  0.78375233523E+02 0.  0.
        -11    1    5    5    0    0 -0.23357194080E+02  0.22078723372E+02  0.11251276822E+03  0.11701346741E+03  0.00000000000E+00 0.  1.
         12    1    5    5    0    0 -0.27730361796E+02  0.74538280648E+00  0.81775260490E+03  0.81822298390E+03  0.00000000000E+00 0. -1.
         13    1    3    3    0    0 -0.32101904921E+02  0.31796760436E+02 -0.47068456514E+02  0.65245734515E+02  0.00000000000E+00 0. -1.
        -14    1    3    3    0    0 -0.19231864454E+02 -0.48168571242E+02 -0.61128658181E+02  0.80167254642E+02  0.00000000000E+00 0.  1.
          5    1    4    4  501    0  0.42697275662E+01  0.33590301094E+02 -0.80748387148E+01  0.35060152899E+02  0.41800000000E+01 0.  1.
         -5    1    4    4    0  501  0.98151597685E+02 -0.40042596467E+02  0.12851096536E+03  0.16664239040E+03  0.41800000000E+01 0.  1.
</event>
<event>
11    1  0.1078607E-008  0.1470611E+03  0.7561462E-02  0.1099920E+00
         22   -1    0    0    0    0  0.00000000000E+00  0.00000000000E+00  0.76277356287E+03  0.76277356287E+03  0.00000000000E+00 0.  1.
         22   -1    0    0    0    0 -0.00000000000E+00 -0.00000000000E+00 -0.29555819195E+04  0.29555819195E+04  0.00000000000E+00 0. -1.
         24    2    1    2    0    0 -0.29848771716E+02  0.69167353577E+02 -0.23912782928E+04  0.23938047737E+04  0.80089630733E+02 0.  0.
         25    2    1    2    0    0  0.92137406692E+02 -0.63841067964E+02 -0.54696464471E+03  0.57217408045E+03  0.12509145495E+03 0.  0.
        -24    2    1    2    0    0 -0.62288634976E+02 -0.53262856127E+01  0.74543458093E+03  0.75237662819E+03  0.80558257428E+02 0.  0.
        -13    1    3    3    0    0 -0.74856036240E+01 -0.17481933201E+02 -0.29087920509E+03  0.29150019589E+03  0.00000000000E+00 0.  1.
         14    1    3    3    0    0 -0.22363168092E+02  0.86649286778E+02 -0.21003990877E+04  0.21023045778E+04  0.00000000000E+00 0. -1.
         13    1    5    5    0    0  0.13743416193E+02  0.10830368307E+02  0.58571909553E+02  0.61129755071E+02  0.00000000000E+00 0. -1.
        -14    1    5    5    0    0 -0.76032051169E+02 -0.16156653920E+02  0.68686267138E+03  0.69124687312E+03  0.00000000000E+00 0.  1.
          5    1    4    4  501    0  0.35229750657E+02  0.29508447694E+02 -0.27808177153E+03  0.28188442290E+03  0.41800000000E+01 0.  1.
         -5    1    4    4    0  501  0.56907656034E+02 -0.93349515658E+02 -0.26888287318E+03  0.29028965755E+03  0.41800000000E+01 0.  1.
</event>
<event>
11    1  0.1078607E-008  0.1269418E+03  0.7561462E-02  0.1123085E+00
         22   -1    0    0    0    0  0.00000000000E+00  0.00000000000E+00  0.10995153111E+04  0.10995153111E+04  0.00000000000E+00 0.  1.
         22   -1    0    0    0    0 -0.00000000000E+00 -0.00000000000E+00 -0.38066426363E+03  0.38066426363E+03  0.00000000000E+00 0. -1.
         24    2    1    2    0    0 -0.37288942341E+01  0.65347366686E+01 -0.35364942007E+03  0.36252566671E+03  0.79374676492E+02 0.  0.
         25    2    1    2    0    0  0.24267378779E+02 -0.91794130965E+00  0.18153309593E+03  0.22180069951E+03  0.12510610335E+03 0.  0.
        -24    2    1    2    0    0 -0.20538484545E+02 -0.56167953590E+01  0.89096737164E+03  0.89585320855E+03  0.90976569522E+02 0.  0.
        -13    1    3    3    0    0 -0.53662355911E+01 -0.19683986339E+02 -0.22644626881E+02  0.30480074298E+02  0.00000000000E+00 0.  1.
         14    1    3    3    0    0  0.16373413569E+01  0.26218723007E+02 -0.33100479319E+03  0.33204559241E+03  0.00000000000E+00 0. -1.
         13    1    5    5    0    0  0.12159026629E+02  0.12939450896E+02  0.36808214803E+02  0.40867052684E+02  0.00000000000E+00 0. -1.
        -14    1    5    5    0    0 -0.32697511174E+02 -0.18556246255E+02  0.85415915683E+03  0.85498615586E+03  0.00000000000E+00 0.  1.
          5    1    4    4  501    0  0.14529169719E+02 -0.53376967720E+02  0.14942087944E+03  0.15938716720E+03  0.41800000000E+01 0. -1.
         -5    1    4    4    0  501  0.97382090594E+01  0.52459026410E+02  0.32112216495E+02  0.62413532313E+02  0.41800000000E+01 0. -1.
</event>
<event>
11    1  0.1078607E-008  0.2390991E+03  0.7561462E-02  0.1029872E+00
         22   -1    0    0    0    0  0.00000000000E+00  0.00000000000E+00  0.95147226911E+03  0.95147226911E+03  0.00000000000E+00 0.  1.
         22   -1    0    0    0    0 -0.00000000000E+00 -0.00000000000E+00 -0.23368488012E+03  0.23368488012E+03  0.00000000000E+00 0. -1.
        -24    2    1    2    0    0  0.16927895602E+02  0.94816046127E+01 -0.15186546286E+03  0.17364827981E+03  0.81939927955E+02 0.  0.
         25    2    1    2    0    0  0.17153846985E+03 -0.94261922495E+02  0.20181780869E+03  0.30771419898E+03  0.12508734420E+03 0.  0.
         24    2    1    2    0    0 -0.18846636545E+03  0.84780317882E+02  0.66783504316E+03  0.70379467045E+03  0.81338921001E+02 0.  0.
        -13    1    5    5    0    0 -0.12197247450E+03  0.70990085641E+02  0.54974924499E+03  0.56757476086E+03  0.00000000000E+00 0.  1.
         14    1    5    5    0    0 -0.66493890951E+02  0.13790232241E+02  0.11808579817E+03  0.13621990959E+03  0.00000000000E+00 0. -1.
         11    1    3    3    0    0 -0.35170912561E+01 -0.34449918429E+01 -0.14923585566E+03  0.14931704027E+03  0.00000000000E+00 0. -1.
        -12    1    3    3    0    0  0.20444986858E+02  0.12926596456E+02 -0.26296072063E+01  0.24331239541E+02  0.00000000000E+00 0.  1.
          5    1    4    4  501    0  0.10202693057E+03 -0.10508678169E+03  0.18364081020E+03  0.23493434364E+03  0.41800000000E+01 0.  1.
         -5    1    4    4    0  501  0.69511539282E+02  0.10824859200E+02  0.18176998492E+02  0.72779855346E+02  0.41800000000E+01 0.  1.
</event>
<event>
11    1  0.1078607E-008  0.1336092E+03  0.7561462E-02  0.1114912E+00
         22   -1    0    0    0    0  0.00000000000E+00  0.00000000000E+00  0.23317114994E+04  0.23317114994E+04  0.00000000000E+00 0. -1.
         22   -1    0    0    0    0 -0.00000000000E+00 -0.00000000000E+00 -0.51240279786E+03  0.51240279786E+03  0.00000000000E+00 0. -1.
        -24    2    1    2    0    0  0.72399146272E+01 -0.10941071763E+02 -0.48388891113E+03  0.49039081970E+03  0.78501938241E+02 0.  0.
         25    2    1    2    0    0 -0.52973687431E+02  0.13424155919E+01  0.16687791527E+03  0.21518304892E+03  0.12508993684E+03 0.  0.
         24    2    1    2    0    0  0.45733772804E+02  0.95986561707E+01  0.21363196974E+04  0.21385404287E+04  0.85496217777E+02 0.  0.
        -11    1    5    5    0    0 -0.24494168783E+02  0.44872186765E+01  0.38399552348E+03  0.38480210692E+03  0.00000000000E+00 0.  1.
         12    1    5    5    0    0  0.70227941587E+02  0.51114374942E+01  0.17523241739E+04  0.17537383217E+04  0.00000000000E+00 0. -1.
         13    1    3    3    0    0  0.72139038558E+01 -0.32348588481E+02 -0.44298927915E+03  0.44422738887E+03  0.00000000000E+00 0. -1.
        -14    1    3    3    0    0  0.26010771378E-01  0.21407516718E+02 -0.40899631988E+02  0.46163430823E+02  0.00000000000E+00 0.  1.
          5    1    4    4  501    0 -0.34303128948E+02  0.52125460964E+02  0.14264132112E+03  0.15574911630E+03  0.41800000000E+01 0. -1.
         -5    1    4    4    0  501 -0.18670558484E+02 -0.50783045372E+02  0.24236594153E+02  0.59433932627E+02  0.41800000000E+01 0. -1.
</event>
<event>
11    1  0.1078607E-008  0.1504375E+03  0.7561462E-02  0.1096433E+00
         22   -1    0    0    0    0  0.00000000000E+00  0.00000000000E+00  0.98938366472E+03  0.98938366472E+03  0.00000000000E+00 0. -1.
         22   -1    0    0    0    0 -0.00000000000E+00 -0.00000000000E+00 -0.28948543354E+03  0.28948543354E+03  0.00000000000E+00 0.  1.
         24    2    1    2    0    0  0.95445065755E+01 -0.42230361762E+02 -0.22546625016E+03  0.24485825050E+03  0.85123626684E+02 0.  0.
         25    2    1    2    0    0  0.99682762928E+01  0.12065632178E+03  0.99627112369E+02  0.20057564607E+03  0.12509082205E+03 0.  0.
        -24    2    1    2    0    0 -0.19512782868E+02 -0.78425960021E+02  0.82573736897E+03  0.83343520169E+03  0.78997803781E+02 0.  0.
        -13    1    3    3    0    0 -0.37339190387E+02 -0.20641817802E+02 -0.82873036948E+02  0.93210729178E+02  0.00000000000E+00 0.  1.
         14    1    3    3    0    0  0.46883696962E+02 -0.21588543960E+02 -0.14259321321E+03  0.15164752133E+03  0.00000000000E+00 0. -1.
         11    1    5    5    0    0  0.36392696757E+01 -0.59423991698E+02  0.74408203561E+03  0.74645999946E+03  0.00000000000E+00 0. -1.
        -12    1    5    5    0    0 -0.23152052544E+02 -0.19001968323E+02  0.81655333353E+02  0.86975202225E+02  0.00000000000E+00 0.  1.
          5    1    4    4  501    0 -0.37379581435E+02  0.91221702278E+02  0.15968751106E+02  0.99955517540E+02  0.41800000000E+01 0.  1.
         -5    1    4    4    0  501  0.47347857728E+02  0.29434619504E+02  0.83658361264E+02  0.10062012853E+03  0.41800000000E+01 0.  1.
</event>
<event>
11    1  0.1078607E-008  0.2559479E+03  0.7561462E-02  0.1020778E+00
         22   -1    0    0    0    0  0.00000000000E+00  0.00000000000E+00  0.12048508083E+04  0.12048508083E+04  0.00000000000E+00 0. -1.
         22   -1    0    0    0    0 -0.00000000000E+00 -0.00000000000E+00 -0.87062683278E+02  0.87062683278E+02  0.00000000000E+00 0. -1.
         24    2    1    2    0    0  0.73287043576E+01  0.23877853584E+02  0.61527419550E+02  0.10724744071E+03  0.84217150174E+02 0.  0.
         25    2    1    2    0    0  0.20682200518E+03 -0.87032802922E+02  0.31480127773E+03  0.40631754766E+03  0.12507619465E+03 0.  0.
        -24    2    1    2    0    0 -0.21415070954E+03  0.63154949338E+02  0.74145942775E+03  0.77834850322E+03  0.78836764448E+02 0.  0.
        -11    1    3    3    0    0 -0.98599013243E+01 -0.31929150622E+01 -0.18405173572E+02  0.21122565539E+02  0.00000000000E+00 0.  1.
         12    1    3    3    0    0  0.17188605682E+02  0.27070768646E+02  0.79932593122E+02  0.86124875173E+02  0.00000000000E+00 0. -1.
         13    1    5    5    0    0 -0.19309102864E+03  0.29551775484E+02  0.57673604760E+03  0.60891864923E+03  0.00000000000E+00 0. -1.
        -14    1    5    5    0    0 -0.21059680898E+02  0.33603173854E+02  0.16472338016E+03  0.16942985399E+03  0.00000000000E+00 0.  1.
          5    1    4    4  501    0  0.75421306822E+01 -0.38260646390E+02  0.10835861776E+03  0.11523811540E+03  0.41800000000E+01 0.  1.
         -5    1    4    4    0  501  0.19927987450E+03 -0.48772156532E+02  0.20644265997E+03  0.29107943226E+03  0.41800000000E+01 0.  1.
</event>
<event>
11    1  0.1078607E-008  0.1334913E+03  0.7561462E-02  0.1115052E+00
         22   -1    0    0    0    0  0.00000000000E+00  0.00000000000E+00  0.80625393303E+03  0.80625393303E+03  0.00000000000E+00 0.  1.
         22   -1    0    0    0    0 -0.00000000000E+00 -0.00000000000E+00 -0.22775740975E+03  0.22775740975E+03  0.00000000000E+00 0.  1.
        -24    2    1    2    0    0 -0.23265108774E+02 -0.31391595320E+02 -0.17855456215E+03  0.19946225336E+03  0.79854626089E+02 0.  0.
         25    2    1    2    0    0 -0.16012630503E+02  0.56675201340E+02  0.10011965142E+03  0.17070334563E+03  0.12508878776E+03 0.  0.
         24    2    1    2    0    0  0.39277739277E+02 -0.25283606019E+02  0.65693143401E+03  0.66384574380E+03  0.83368225507E+02 0.  0.
        -13    1    5    5    0    0  0.19590305962E+02 -0.23170363899E+02  0.62831314719E+03  0.62904535351E+03  0.00000000000E+00 0.  1.
         14    1    5    5    0    0  0.19687433315E+02 -0.21132421206E+01  0.28618286828E+02  0.34800390282E+02  0.00000000000E+00 0. -1.
         11    1    3    3    0    0  0.35066607225E+01 -0.47290261606E+02 -0.57825778764E+02  0.74782927209E+02  0.00000000000E+00 0. -1.
        -12    1    3    3    0    0 -0.26771769497E+02  0.15898666286E+02 -0.12072878339E+03  0.12467932615E+03  0.00000000000E+00 0.  1.
          5    1    4    4  501    0 -0.43028075924E+02  0.60579642050E+02  0.11676071625E+03  0.13846243392E+03  0.41800000000E+01 0. -1.
         -5    1    4    4    0  501  0.27015445421E+02 -0.39044407102E+01 -0.16641064831E+02  0.32240911700E+02  0.41800000000E+01 0. -1.
</event>
<event>
11    1  0.1078607E-008  0.1413101E+03  0.7561462E-02  0.1106104E+00
         22   -1    0    0    0    0  0.00000000000E+00  0.00000000000E+00  0.10236579334E+04  0.10236579334E+04  0.00000000000E+00 0.  1.
         22   -1    0    0    0    0 -0.00000000000E+00 -0.00000000000E+00 -0.18671184671E+03  0.18671184671E+03  0.00000000000E+00 0. -1.
         24    2    1    2    0    0  0.19119435292E+02 -0.37713691574E+02 -0.96468978244E+02  0.13243933195E+03  0.80287219069E+02 0.  0.
         25    2    1    2    0    0 -0.70680576540E+02  0.75975558454E+02  0.25914114257E+02  0.16457818889E+03  0.12508560892E+03 0.  0.
        -24    2    1    2    0    0  0.51561141248E+02 -0.38261866880E+02  0.90750095067E+03  0.91335225926E+03  0.80819875526E+02 0.  0.
        -13    1    3    3    0    0 -0.27222822470E+02 -0.82953466870E+00 -0.13229872983E+02  0.30278700932E+02  0.00000000000E+00 0.  1.
         14    1    3    3    0    0  0.46342257763E+02 -0.36884156905E+02 -0.83239105261E+02  0.10216063102E+03  0.00000000000E+00 0. -1.
         13    1    5    5    0    0  0.42240627431E+02 -0.67425681929E+00  0.18283271871E+03  0.18765001535E+03  0.00000000000E+00 0. -1.
        -14    1    5    5    0    0  0.93205138167E+01 -0.37587610061E+02  0.72466823196E+03  0.72570224391E+03  0.00000000000E+00 0.  1.
          5    1    4    4  501    0  0.65428103934E+01  0.19949522461E+02 -0.42171922957E+02  0.47294136001E+02  0.41800000000E+01 0. -1.
         -5    1    4    4    0  501 -0.77223386934E+02  0.56026035993E+02  0.68086037213E+02  0.11728405289E+03  0.41800000000E+01 0. -1.
</event>
<event>
11    1  0.1078607E-008  0.1324542E+03  0.7561462E-02  0.1116290E+00
         22   -1    0    0    0    0  0.00000000000E+00  0.00000000000E+00  0.42118499376E+03  0.42118499376E+03  0.00000000000E+00 0.  1.
         22   -1    0    0    0    0 -0.00000000000E+00 -0.00000000000E+00 -0.67836355865E+03  0.67836355865E+03  0.00000000000E+00 0.  1.
         24    2    1    2    0    0  0.10811529989E+02 -0.42017754203E+02 -0.64053160714E+03  0.64793544489E+03  0.87505543495E+02 0.  0.
         25    2    1    2    0    0  0.29551454506E+02  0.65819717660E+02  0.23984569001E+03  0.27995883575E+03  0.12508185720E+03 0.  0.
        -24    2    1    2    0    0 -0.40362984496E+02 -0.23801963457E+02  0.14350735225E+03  0.17165427178E+03  0.81701437493E+02 0.  0.
        -13    1    3    3    0    0 -0.12324347607E+02 -0.14148811784E+01 -0.49350168562E+03  0.49365757884E+03  0.00000000000E+00 0.  1.
         14    1    3    3    0    0  0.23135877597E+02 -0.40602873025E+02 -0.14702992152E+03  0.15427786605E+03  0.00000000000E+00 0. -1.
         13    1    5    5    0    0 -0.13971462835E+02  0.30557272697E+02  0.46584869929E+02  0.57437781945E+02  0.00000000000E+00 0. -1.
        -14    1    5    5    0    0 -0.26391521661E+02 -0.54359236154E+02  0.96922482318E+02  0.11421648983E+03  0.00000000000E+00 0.  1.
          5    1    4    4  501    0 -0.40305357695E+02  0.35538084694E+02  0.43288580667E+02  0.69129233605E+02  0.41800000000E+01 0.  1.
         -5    1    4    4    0  501  0.69856812202E+02  0.30281632965E+02  0.19655710935E+03  0.21082960214E+03  0.41800000000E+01 0.  1.
</event>
<event>
11    1  0.1078607E-008  0.1420479E+03  0.7561462E-02  0.1105293E+00
         22   -1    0    0    0    0  0.00000000000E+00  0.00000000000E+00  0.12076505966E+04  0.12076505966E+04  0.00000000000E+00 0. -1.
         22   -1    0    0    0    0 -0.00000000000E+00 -0.00000000000E+00 -0.69000667874E+03  0.69000667874E+03  0.00000000000E+00 0.  1.
         24    2    1    2    0    0  0.79346844732E+01  0.67983065795E+02 -0.61945151219E+03  0.62840497699E+03  0.80548014878E+02 0.  0.
         25    2    1    2    0    0 -0.55415662973E+02 -0.39820763662E+02  0.15331219896E+02  0.14331849232E+03  0.12509418458E+03 0.  0.
        -24    2    1    2    0    0  0.47480978500E+02 -0.28162302133E+02  0.11217642102E+04  0.11259338061E+04  0.79526308998E+02 0.  0.
        -13    1    3    3    0    0  0.11021852115E+02  0.64825182182E+02 -0.62041088678E+03  0.62388576991E+03  0.00000000000E+00 0.  1.
         14    1    3    3    0    0 -0.30871676416E+01  0.31578836125E+01  0.95937459251E+00  0.45192070728E+01  0.00000000000E+00 0. -1.
         11    1    5    5    0    0  0.49630614975E+02 -0.25788311092E+01  0.10115002458E+04  0.10127203936E+04  0.00000000000E+00 0. -1.
        -12    1    5    5    0    0 -0.21496364750E+01 -0.25583471023E+02  0.11026396432E+03  0.11321341243E+03  0.00000000000E+00 0.  1.
          5    1    4    4  501    0  0.21228235104E+01 -0.60469658756E+02  0.44725409637E+02  0.75358613820E+02  0.41800000000E+01 0.  1.
         -5    1    4    4    0  501 -0.57538486484E+02  0.20648895094E+02 -0.29394189740E+02  0.67959878501E+02  0.41800000000E+01 0.  1.
</event>
<event>
11    1  0.1078607E-008  0.3086523E+03  0.7561462E-02  0.9965945E-01
         22   -1    0    0    0    0  0.00000000000E+00  0.00000000000E+00  0.27807241749E+04  0.27807241749E+04  0.00000000000E+00 0. -1.
         22   -1    0    0    0    0 -0.00000000000E+00 -0.00000000000E+00 -0.57150086071E+02  0.57150086071E+02  0.00000000000E+00 0. -1.
         24    2    1    2    0    0 -0.98896525269E+02  0.11318526498E+02  0.20497958988E+03  0.24142166391E+03  0.79744315065E+02 0.  0.
         25    2    1    2    0    0  0.23608647599E+02 -0.28660127729E+03  0.95874159939E+03  0.10087272989E+04  0.12509056202E+03 0.  0.
        -24    2    1    2    0    0  0.75287877670E+02  0.27528275079E+03  0.15598528995E+04  0.15877252982E+04  0.79257156356E+02 0.  0.
        -11    1    3    3    0    0 -0.78341082549E+00 -0.23209399912E+02  0.44251744346E+02  0.49975062326E+02  0.00000000000E+00 0.  1.
         12    1    3    3    0    0 -0.98113114444E+02  0.34527926410E+02  0.16072784554E+03  0.19144660159E+03  0.00000000000E+00 0. -1.
         11    1    5    5    0    0  0.89141530664E+02  0.21480258651E+03  0.11595286760E+04  0.11826212894E+04  0.00000000000E+00 0. -1.
        -12    1    5    5    0    0 -0.13853652994E+02  0.60480164283E+02  0.40032422353E+03  0.40510400876E+03  0.00000000000E+00 0.  1.
          5    1    4    4  501    0 -0.47167885126E+02 -0.15654912405E+03  0.55852733378E+03  0.58198169439E+03  0.41800000000E+01 0. -1.
         -5    1    4    4    0  501  0.70776532725E+02 -0.13005215324E+03  0.40021426562E+03  0.42674560449E+03  0.41800000000E+01 0. -1.
</event>
<event>
11    1  0.1078607E-008  0.1516679E+03  0.7561462E-02  0.1095187E+00
         22   -1    0    0    0    0  0.00000000000E+00  0.00000000000E+00  0.66401298637E+03  0.66401298637E+03  0.00000000000E+00 0. -1.
         22   -1    0    0    0    0 -0.00000000000E+00 -0.00000000000E+00 -0.43796247250E+03  0.43796247250E+03  0.00000000000E+00 0. -1.
         24    2    1    2    0    0  0.20563785904E+02 -0.11383607624E+02 -0.40502289512E+03  0.41364604140E+03  0.80666264240E+02 0.  0.
         25    2    1    2    0    0 -0.48247059613E+02  0.85725392580E+02  0.32203978474E+03  0.35921504267E+03  0.12509677146E+03 0.  0.
        -24    2    1    2    0    0  0.27683273709E+02 -0.74341784956E+02  0.30903362424E+03  0.32911437480E+03  0.80755347535E+02 0.  0.
        -13    1    3    3    0    0 -0.26513257954E+02 -0.18777336303E+02 -0.10656072335E+03  0.11140345132E+03  0.00000000000E+00 0.  1.
         14    1    3    3    0    0  0.47077043858E+02  0.73937286789E+01 -0.29846217177E+03  0.30224259008E+03  0.00000000000E+00 0. -1.
         11    1    5    5    0    0  0.41888653675E+01 -0.72712209648E+02  0.28948725779E+03  0.29850876779E+03  0.00000000000E+00 0. -1.
        -12    1    5    5    0    0  0.23494408341E+02 -0.16295753080E+01  0.19546366448E+02  0.30605607008E+02  0.00000000000E+00 0.  1.
          5    1    4    4  501    0 -0.75383350990E+02  0.26012463137E+02  0.24636989903E+03  0.25898821863E+03  0.41800000000E+01 0. -1.
         -5    1    4    4    0  501  0.27136291377E+02  0.59712929443E+02  0.75669885715E+02  0.10022682404E+03  0.41800000000E+01 0. -1.
</event>
<event>
11    1  0.2318929E-008  0.1527993E+03  0.7561462E-02  0.1094052E+00
         22   -1    0    0    0    0  0.00000000000E+00  0.00000000000E+00  0.25713445997E+04  0.25713445997E+04  0.00000000000E+00 0. -1.
         22   -1    0    0    0    0 -0.00000000000E+00 -0.00000000000E+00 -0.67400214874E+03  0.67400214874E+03  0.00000000000E+00 0.  1.
        -24    2    1    2    0    0  0.19805333411E+02 -0.85683430035E+02 -0.53335339553E+03  0.54654581446E+03  0.80700566034E+02 0.  0.
         25    2    1    2    0    0 -0.60535063466E+02  0.71482161930E+01 -0.96098330038E+02  0.16911082102E+03  0.12509192558E+03 0.  0.
         24    2    1    2    0    0  0.40729730055E+02  0.78535213842E+02  0.25267941765E+04  0.25296901130E+04  0.82562500061E+02 0.  0.
        -11    1    5    5    0    0  0.53056205766E+01  0.51553998812E+02  0.56028795750E+03  0.56267980213E+03  0.00000000000E+00 0.  1.
         12    1    5    5    0    0  0.35424109479E+02  0.26981215031E+02  0.19665062190E+04  0.19670103109E+04  0.00000000000E+00 0. -1.
         13    1    3    3    0    0 -0.29161074966E+01 -0.28462942542E+02 -0.38980803258E+02  0.48354377296E+02  0.00000000000E+00 0. -1.
        -14    1    3    3    0    0  0.22721440907E+02 -0.57220487493E+02 -0.49437259228E+03  0.49819143716E+03  0.00000000000E+00 0.  1.
          5    1    4    4  501    0 -0.62311091542E+02 -0.50553701157E+02 -0.65359049347E+02  0.10357425627E+03  0.41800000000E+01 0. -1.
         -5    1    4    4    0  501  0.17760280765E+01  0.57701917350E+02 -0.30739280691E+02  0.65536564748E+02  0.41800000000E+01 0. -1.
</event>
<event>
11    1  0.1078607E-008  0.1334458E+03  0.7561462E-02  0.1115106E+00
         22   -1    0    0    0    0  0.00000000000E+00  0.00000000000E+00  0.38437894977E+03  0.38437894977E+03  0.00000000000E+00 0. -1.
         22   -1    0    0    0    0 -0.00000000000E+00 -0.00000000000E+00 -0.13107777509E+04  0.13107777509E+04  0.00000000000E+00 0.  1.
         24    2    1    2    0    0  0.22766409349E+02 -0.39977760064E+02 -0.12323825126E+04  0.12381067590E+04  0.10965928476E+03 0.  0.
         25    2    1    2    0    0  0.18877231514E+02  0.78460276195E+02  0.15185139959E+02  0.14963603258E+03  0.12509192204E+03 0.  0.
        -24    2    1    2    0    0 -0.41643640863E+02 -0.38482516131E+02  0.29079857152E+03  0.30741390904E+03  0.82002471911E+02 0.  0.
        -13    1    3    3    0    0 -0.25681410280E+02 -0.60826730135E+02 -0.71576099412E+03  0.71879985158E+03  0.00000000000E+00 0.  1.
         14    1    3    3    0    0  0.48447819628E+02  0.20848970071E+02 -0.51662151846E+03  0.51930690744E+03  0.00000000000E+00 0. -1.
         11    1    5    5    0    0 -0.14593921167E+02 -0.37079819536E+02  0.27087273124E+03  0.27378811530E+03  0.00000000000E+00 0. -1.
        -12    1    5    5    0    0 -0.27049719696E+02 -0.14026965950E+01  0.19925840279E+02  0.33625793734E+02  0.00000000000E+00 0.  1.
          5    1    4    4  501    0 -0.28432615404E+02  0.32454863795E+02 -0.43365034817E+02  0.61316640868E+02  0.41800000000E+01 0. -1.
         -5    1    4    4    0  501  0.47309846918E+02  0.46005412400E+02  0.58550174776E+02  0.88319391709E+02  0.41800000000E+01 0. -1.
</event>
<event>
11    1  0.1078607E-008  0.3796016E+03  0.7561462E-02  0.9711939E-01
         22   -1    0    0    0    0  0.00000000000E+00  0.00000000000E+00  0.98936231328E+03  0.98936231328E+03  0.00000000000E+00 0. -1.
         22   -1    0    0    0    0 -0.00000000000E+00 -0.00000000000E+00 -0.30525595097E+03  0.30525595097E+03  0.00000000000E+00 0. -1.
         24    2    1    2    0    0  0.35504204724E+03 -0.66193359969E+02 -0.96509933032E+02  0.38229552267E+03  0.79995520284E+02 0.  0.
         25    2    1    2    0    0 -0.34918941688E+03  0.13831657251E+02  0.56155405098E+03  0.67313775109E+03  0.12508763396E+03 0.  0.
        -24    2    1    2    0    0 -0.58526303643E+01  0.52361702718E+02  0.21906224436E+03  0.23918499049E+03  0.80281950523E+02 0.  0.
        -11    1    3    3    0    0  0.12127166795E+02  0.21220448490E+01  0.10976143237E+02  0.16493846404E+02  0.00000000000E+00 0.  1.
         12    1    3    3    0    0  0.34291488045E+03 -0.68315404817E+02 -0.10748607627E+03  0.36580167627E+03  0.00000000000E+00 0. -1.
         13    1    5    5    0    0 -0.26339169485E+02  0.47515383168E+02  0.69825371342E+02  0.88470593814E+02  0.00000000000E+00 0. -1.
        -14    1    5    5    0    0  0.20486539121E+02  0.48463195499E+01  0.14923687302E+03  0.15071439668E+03  0.00000000000E+00 0.  1.
          5    1    4    4  501    0 -0.29384155068E+02  0.37914034946E+02  0.50520960453E+02  0.69790704682E+02  0.41800000000E+01 0. -1.
         -5    1    4    4    0  501 -0.31980526181E+03 -0.24082377695E+02  0.51103309052E+03  0.60334704641E+03  0.41800000000E+01 0. -1.
</event>
<event>
11    1  0.1078607E-008  0.1257831E+03  0.7561462E-02  0.1124562E+00
         22   -1    0    0    0    0  0.00000000000E+00  0.00000000000E+00  0.44279651183E+03  0.44279651183E+03  0.00000000000E+00 0. -1.
         22   -1    0    0    0    0 -0.00000000000E+00 -0.00000000000E+00 -0.27012390354E+03  0.27012390354E+03  0.00000000000E+00 0. -1.
         24    2    1    2    0    0 -0.24036658373E+01  0.14887725535E+01 -0.17659114782E+03  0.19583901079E+03  0.84619682138E+02 0.  0.
         25    2    1    2    0    0  0.12842596568E+02 -0.92342720212E+01 -0.27758436278E+02  0.12910592012E+03  0.12509038236E+03 0.  0.
        -24    2    1    2    0    0 -0.10438930730E+02  0.77454994677E+01  0.37702219239E+03  0.38797548447E+03  0.90610589658E+02 0.  0.
        -13    1    3    3    0    0  0.40348999013E+02  0.68034449766E+01 -0.73798201393E+02  0.84383073621E+02  0.00000000000E+00 0.  1.
         14    1    3    3    0    0 -0.42752664850E+02 -0.53146724231E+01 -0.10279294643E+03  0.11145593717E+03  0.00000000000E+00 0. -1.
         11    1    5    5    0    0 -0.12063911249E+02 -0.20559185819E+02  0.34238891052E+03  0.34321769203E+03  0.00000000000E+00 0. -1.
        -12    1    5    5    0    0  0.16249805184E+01  0.28304685287E+02  0.34633281868E+02  0.44757792437E+02  0.00000000000E+00 0.  1.
          5    1    4    4  501    0 -0.39734638767E+02 -0.39179391403E+02  0.11135183913E+02  0.57055507617E+02  0.41800000000E+01 0.  1.
         -5    1    4    4    0  501  0.52577235334E+02  0.29945119382E+02 -0.38893620191E+02  0.72050412502E+02  0.41800000000E+01 0.  1.
</event>
<event>
11    1  0.1078607E-008  0.2343717E+03  0.7561462E-02  0.1032570E+00
         22   -1    0    0    0    0  0.00000000000E+00  0.00000000000E+00  0.31336753242E+03  0.31336753242E+03  0.00000000000E+00 0. -1.
         22   -1    0    0    0    0 -0.00000000000E+00 -0.00000000000E+00 -0.33337551334E+03  0.33337551334E+03  0.00000000000E+00 0. -1.
        -24    2    1    2    0    0 -0.63993830796E+02  0.40151102849E+02 -0.14077320178E+02  0.11141701265E+03  0.80673777174E+02 0.  0.
         25    2    1    2    0    0 -0.81141276491E+02  0.11713134806E+03 -0.16930712524E+03  0.25419587600E+03  0.12508789417E+03 0.  0.
         24    2    1    2    0    0  0.14513510729E+03 -0.15728245090E+03  0.16337646450E+03  0.28113015712E+03  0.80872290459E+02 0.  0.
        -13    1    5    5    0    0  0.49637598523E+02 -0.11176278428E+02  0.58364010118E+02  0.77428406051E+02  0.00000000000E+00 0.  1.
         14    1    5    5    0    0  0.95497508764E+02 -0.14610617248E+03  0.10501245438E+03  0.20370175107E+03  0.00000000000E+00 0. -1.
         11    1    3    3    0    0 -0.82113063795E+02  0.41890232977E+02 -0.96572772349E+01  0.92685542930E+02  0.00000000000E+00 0. -1.
        -12    1    3    3    0    0  0.18119232999E+02 -0.17391301283E+01 -0.44200429432E+01  0.18731469715E+02  0.00000000000E+00 0.  1.
          5    1    4    4  501    0 -0.10873180838E+02  0.72875102746E+02 -0.15242419786E+03  0.16935056880E+03  0.41800000000E+01 0.  1.
         -5    1    4    4    0  501 -0.70268095653E+02  0.44256245310E+02 -0.16882927384E+02  0.84845307193E+02  0.41800000000E+01 0.  1.
</event>
<event>
11    1  0.1078607E-008  0.1324461E+03  0.7561462E-02  0.1116299E+00
         22   -1    0    0    0    0  0.00000000000E+00  0.00000000000E+00  0.14855499989E+03  0.14855499989E+03  0.00000000000E+00 0.  1.
         22   -1    0    0    0    0 -0.00000000000E+00 -0.00000000000E+00 -0.44690732679E+03  0.44690732679E+03  0.00000000000E+00 0.  1.
        -24    2    1    2    0    0 -0.25630104530E+02 -0.64147701491E+00 -0.27706333931E+03  0.28968975483E+03  0.80614802061E+02 0.  0.
         25    2    1    2    0    0  0.64997401833E+02  0.10994244681E+02 -0.11027390754E+03  0.17930266272E+03  0.12507427598E+03 0.  0.
         24    2    1    2    0    0 -0.39367297303E+02 -0.10352767666E+02  0.88984919952E+02  0.12646990913E+03  0.80120896402E+02 0.  0.
        -13    1    5    5    0    0 -0.60775077061E+01  0.18928899652E+02  0.78409616910E+02  0.80890712482E+02  0.00000000000E+00 0.  1.
         14    1    5    5    0    0 -0.33289789597E+02 -0.29281667318E+02  0.10575303042E+02  0.45579196644E+02  0.00000000000E+00 0. -1.
         13    1    3    3    0    0 -0.47597135826E+01  0.33866220295E+02 -0.61341553462E+02  0.70230776242E+02  0.00000000000E+00 0. -1.
        -14    1    3    3    0    0 -0.20870390947E+02 -0.34507697310E+02 -0.21572178585E+03  0.21945897859E+03  0.00000000000E+00 0.  1.
          5    1    4    4  501    0 -0.25078908767E+02 -0.32133001696E+02 -0.25699349920E+02  0.48367452375E+02  0.41800000000E+01 0.  1.
         -5    1    4    4    0  501  0.90076310600E+02  0.43127246376E+02 -0.84574557624E+02  0.13093521035E+03  0.41800000000E+01 0.  1.
</event>
<event>
11    1  0.1078607E-008  0.1305964E+03  0.7561462E-02  0.1118538E+00
         22   -1    0    0    0    0  0.00000000000E+00  0.00000000000E+00  0.80120939242E+03  0.80120939242E+03  0.00000000000E+00 0. -1.
         22   -1    0    0    0    0 -0.00000000000E+00 -0.00000000000E+00 -0.32972690176E+03  0.32972690176E+03  0.00000000000E+00 0. -1.
        -24    2    1    2    0    0 -0.73334175293E+01 -0.37387001608E+01 -0.29408438312E+03  0.30497952144E+03  0.80368695485E+02 0.  0.
         25    2    1    2    0    0  0.32330677379E+02  0.30627030871E+02  0.13592501807E+03  0.19001718196E+03  0.12509049197E+03 0.  0.
         24    2    1    2    0    0 -0.24997259850E+02 -0.26888330710E+02  0.62964185571E+03  0.63593959078E+03  0.81378445111E+02 0.  0.
        -11    1    5    5    0    0 -0.49782298452E+02 -0.17314645769E+02  0.25685660579E+03  0.26220867670E+03  0.00000000000E+00 0.  1.
         12    1    5    5    0    0  0.24785038603E+02 -0.95736849414E+01  0.37278524992E+03  0.37373091408E+03  0.00000000000E+00 0. -1.
         13    1    3    3    0    0 -0.13065717533E+02 -0.40610923716E+02 -0.17820566813E+03  0.18324088041E+03  0.00000000000E+00 0. -1.
        -14    1    3    3    0    0  0.57323000036E+01  0.36872223555E+02 -0.11587871498E+03  0.12173864103E+03  0.00000000000E+00 0.  1.
          5    1    4    4  501    0  0.25827462892E+01  0.71483837495E+02  0.41412762321E+02  0.82759282769E+02  0.41800000000E+01 0. -1.
         -5    1    4    4    0  501  0.29747931090E+02 -0.40856806624E+02  0.94512255746E+02  0.10725789919E+03  0.41800000000E+01 0. -1.
</event>
<event>
11    1  0.1078607E-008  0.1410566E+03  0.7561462E-02  0.1106384E+00
         22   -1    0    0    0    0  0.00000000000E+00  0.00000000000E+00  0.14426355171E+04  0.14426355171E+04  0.00000000000E+00 0.  1.
         22   -1    0    0    0    0 -0.00000000000E+00 -0.00000000000E+00 -0.57213715295E+02  0.57213715295E+02  0.00000000000E+00 0.  1.
        -24    2    1    2    0    0  0.50206635064E+02 -0.40164683722E+02  0.74639806754E+01  0.10122363061E+03  0.77824188802E+02 0.  0.
         25    2    1    2    0    0 -0.82211043104E+02  0.22577446527E+02  0.81277965102E+03  0.82675576211E+03  0.12508370144E+03 0.  0.
         24    2    1    2    0    0  0.32004408040E+02  0.17587237195E+02  0.56517817010E+03  0.57186983967E+03  0.79215885537E+02 0.  0.
        -11    1    5    5    0    0  0.57499418572E+02  0.10648326890E+02  0.44469869434E+03  0.44852703235E+03  0.00000000000E+00 0.  1.
         12    1    5    5    0    0 -0.25495010531E+02  0.69389103051E+01  0.12047947576E+03  0.12334280732E+03  0.00000000000E+00 0. -1.
         11    1    3    3    0    0  0.10963349086E+02  0.12344478343E+02  0.28020451316E+02  0.32522712997E+02  0.00000000000E+00 0. -1.
        -12    1    3    3    0    0  0.39243285978E+02 -0.52509162065E+02 -0.20556470641E+02  0.68700917609E+02  0.00000000000E+00 0.  1.
          5    1    4    4  501    0 -0.84095663321E+02 -0.25552917156E+02  0.67558729198E+03  0.68129339763E+03  0.41800000000E+01 0. -1.
         -5    1    4    4    0  501  0.18846202170E+01  0.48130363682E+02  0.13719235904E+03  0.14546236448E+03  0.41800000000E+01 0. -1.
</event>
<event>
11    1  0.1078607E-008  0.1332908E+03  0.7561462E-02  0.1115291E+00
         22   -1    0    0    0    0  0.00000000000E+00  0.00000000000E+00  0.40262367036E+03  0.40262367036E+03  0.00000000000E+00 0. -1.
         22   -1    0    0    0    0 -0.00000000000E+00 -0.00000000000E+00 -0.47934178531E+03  0.47934178531E+03  0.00000000000E+00 0.  1.
         24    2    1    2    0    0 -0.45090827569E+02  0.92286240320E+01 -0.40254423654E+03  0.41309132578E+03  0.80524721848E+02 0.  0.
         25    2    1    2    0    0  0.51799116280E+02  0.29399068001E+02  0.82608596132E+01  0.13879524417E+03  0.12509366234E+03 0.  0.
        -24    2    1    2    0    0 -0.67082887108E+01 -0.38627692033E+02  0.31756526197E+03  0.33007888572E+03  0.81038728128E+02 0.  0.
        -13    1    3    3    0    0 -0.55104359413E+02  0.28468457070E+02 -0.36034944424E+03  0.36564828105E+03  0.00000000000E+00 0.  1.
         14    1    3    3    0    0  0.10013531844E+02 -0.19239833038E+02 -0.42194792298E+02  0.47443044721E+02  0.00000000000E+00 0. -1.
         11    1    5    5    0    0  0.44334472323E+01  0.11048515307E+02  0.21732896447E+03  0.21765478158E+03  0.00000000000E+00 0. -1.
        -12    1    5    5    0    0 -0.11141735943E+02 -0.49676207340E+02  0.10023629750E+03  0.11242410414E+03  0.00000000000E+00 0.  1.
          5    1    4    4  501    0  0.47439404956E+02  0.45422682229E+02  0.57044493326E+02  0.87093420086E+02  0.41800000000E+01 0.  1.
         -5    1    4    4    0  501  0.43597113239E+01 -0.16023614228E+02 -0.48783633713E+02  0.51701824088E+02  0.41800000000E+01 0.  1.
</event>
<event>
11    1  0.1078607E-008  0.1900677E+03  0.7561462E-02  0.1061778E+00
         22   -1    0    0    0    0  0.00000000000E+00  0.00000000000E+00  0.42436672658E+03  0.42436672658E+03  0.00000000000E+00 0. -1.
         22   -1    0    0    0    0 -0.00000000000E+00 -0.00000000000E+00 -0.36409196773E+04  0.36409196773E+04  0.00000000000E+00 0.  1.
        -24    2    1    2    0    0  0.75537886790E+02 -0.11769373492E+03 -0.30019712358E+04  0.30063260948E+04  0.81286528242E+02 0.  0.
         25    2    1    2    0    0 -0.64385654028E+02  0.16012979969E+03 -0.61353469972E+03  0.64950800905E+03  0.12509500734E+03 0.  0.
         24    2    1    2    0    0 -0.11152232762E+02 -0.42436064768E+02  0.39895298488E+03  0.40945230002E+03  0.81009320209E+02 0.  0.
        -11    1    5    5    0    0 -0.35416841560E+01  0.15631864071E+02  0.18326296831E+02  0.24346495775E+02  0.00000000000E+00 0.  1.
         12    1    5    5    0    0 -0.76105486057E+01 -0.58067928840E+02  0.38062668805E+03  0.38510580425E+03  0.00000000000E+00 0. -1.
         11    1    3    3    0    0 -0.13955802767E+02 -0.19459720319E+01 -0.17248633248E+03  0.17306093184E+03  0.00000000000E+00 0. -1.
        -12    1    3    3    0    0  0.89493689557E+02 -0.11574776289E+03 -0.28294849034E+04  0.28332651629E+04  0.00000000000E+00 0.  1.
          5    1    4    4  501    0  0.32829633256E+02  0.11409437756E+02 -0.11702628828E+03  0.12214984501E+03  0.41800000000E+01 0. -1.
         -5    1    4    4    0  501 -0.97215287284E+02  0.14872036193E+03 -0.49650841145E+03  0.52735816403E+03  0.41800000000E+01 0. -1.
</event>
<event>
11    1  0.1078607E-008  0.1697826E+03  0.7561462E-02  0.1078221E+00
         22   -1    0    0    0    0  0.00000000000E+00  0.00000000000E+00  0.27355004691E+03  0.27355004691E+03  0.00000000000E+00 0. -1.
         22   -1    0    0    0    0 -0.00000000000E+00 -0.00000000000E+00 -0.87679384917E+03  0.87679384917E+03  0.00000000000E+00 0.  1.
        -24    2    1    2    0    0 -0.11332207525E+03 -0.29845356286E+02 -0.68929063218E+03  0.70377431255E+03  0.80274961056E+02 0.  0.
         25    2    1    2    0    0  0.11014887206E+03 -0.30791723460E+02 -0.12669631645E+03  0.21161347090E+03  0.12508956878E+03 0.  0.
         24    2    1    2    0    0  0.31732031983E+01  0.60637079746E+02  0.21274314636E+03  0.23495611262E+03  0.79106282169E+02 0.  0.
        -13    1    5    5    0    0  0.54381930599E+01 -0.45855674227E+01 -0.43009680185E+01  0.83126228256E+01  0.00000000000E+00 0.  1.
         14    1    5    5    0    0 -0.22649898616E+01  0.65222647168E+02  0.21704411437E+03  0.22664348980E+03  0.00000000000E+00 0. -1.
         13    1    3    3    0    0 -0.87621535226E+01 -0.31765085107E+02 -0.25239496653E+03  0.25453686392E+03  0.00000000000E+00 0. -1.
        -14    1    3    3    0    0 -0.10455992173E+03  0.19197288219E+01 -0.43689566565E+03  0.44923744863E+03  0.00000000000E+00 0.  1.
          5    1    4    4  501    0  0.98713799772E+02  0.23217160794E+02 -0.40728523625E+02  0.10936057725E+03  0.41800000000E+01 0.  1.
         -5    1    4    4    0  501  0.11435072285E+02 -0.54008884255E+02 -0.85967792822E+02  0.10225289365E+03  0.41800000000E+01 0.  1.
</event>
<event>
11    1  0.1078607E-008  0.7665070E+03  0.7561462E-02  0.8939655E-01
         22   -1    0    0    0    0  0.00000000000E+00  0.00000000000E+00  0.44953083569E+03  0.44953083569E+03  0.00000000000E+00 0.  1.
         22   -1    0    0    0    0 -0.00000000000E+00 -0.00000000000E+00 -0.20566848104E+04  0.20566848104E+04  0.00000000000E+00 0.  1.
        -24    2    1    2    0    0 -0.14137746611E+03 -0.60931593342E+02 -0.13122922402E+03  0.21792694606E+03  0.81060456413E+02 0.  0.
         25    2    1    2    0    0  0.28019741521E+03 -0.70012217885E+03 -0.12720793802E+04  0.14840871996E+04  0.12508880739E+03 0.  0.
         24    2    1    2    0    0 -0.13881994910E+03  0.76105377219E+03 -0.20384537050E+03  0.80420150042E+03  0.81934704336E+02 0.  0.
        -11    1    5    5    0    0 -0.40747317620E+02  0.37233133761E+03 -0.13054596742E+03  0.39665251603E+03  0.00000000000E+00 0.  1.
         12    1    5    5    0    0 -0.98072631482E+02  0.38872243458E+03 -0.73299403083E+02  0.40754898439E+03  0.00000000000E+00 0. -1.
         11    1    3    3    0    0 -0.85818422685E+01 -0.60337985674E+01  0.11379762574E+02  0.15477523642E+02  0.00000000000E+00 0. -1.
        -12    1    3    3    0    0 -0.13279562384E+03 -0.54897794774E+02 -0.14260898659E+03  0.20244942242E+03  0.00000000000E+00 0.  1.
          5    1    4    4  501    0  0.22789661378E+03 -0.54468492791E+03 -0.88740377266E+03  0.10658899875E+04  0.41800000000E+01 0.  1.
         -5    1    4    4    0  501  0.52300801432E+02 -0.15543725094E+03 -0.38467560754E+03  0.41819721215E+03  0.41800000000E+01 0.  1.
</event>
<event>
11    1  0.1078607E-008  0.1333506E+03  0.7561462E-02  0.1115219E+00
         22   -1    0    0    0    0  0.00000000000E+00  0.00000000000E+00  0.38213507753E+03  0.38213507753E+03  0.00000000000E+00 0.  1.
         22   -1    0    0    0    0 -0.00000000000E+00 -0.00000000000E+00 -0.99571799035E+03  0.99571799035E+03  0.00000000000E+00 0.  1.
        -24    2    1    2    0    0 -0.41111127747E+02  0.20536105186E+02 -0.94540320925E+03  0.95014252802E+03  0.82895953167E+02 0.  0.
         25    2    1    2    0    0  0.49406155255E+02 -0.31201532472E+02  0.71246273611E+02  0.15536417369E+03  0.12508993227E+03 0.  0.
         24    2    1    2    0    0 -0.82950275080E+01  0.10665427286E+02  0.26057402282E+03  0.27234636617E+03  0.78045903034E+02 0.  0.
        -13    1    5    5    0    0 -0.15242271862E+02 -0.44311653423E+01  0.25396727253E+03  0.25446284128E+03  0.00000000000E+00 0.  1.
         14    1    5    5    0    0  0.69472443545E+01  0.15096592628E+02  0.66067502860E+01  0.17883524889E+02  0.00000000000E+00 0. -1.
         13    1    3    3    0    0 -0.54817270619E+02 -0.12989361576E+02 -0.47060940911E+03  0.47396927391E+03  0.00000000000E+00 0. -1.
        -14    1    3    3    0    0  0.13706142872E+02  0.33525466762E+02 -0.47479380014E+03  0.47617325410E+03  0.00000000000E+00 0.  1.
          5    1    4    4  501    0  0.56810064695E+02 -0.73725551945E+02  0.37569633737E+02  0.10045790282E+03  0.41800000000E+01 0. -1.
         -5    1    4    4    0  501 -0.74039094407E+01  0.42524019473E+02  0.33676639875E+02  0.54906270866E+02  0.41800000000E+01 0. -1.
</event>
<event>
11    1  0.1078607E-008  0.1401272E+03  0.7561462E-02  0.1107416E+00
         22   -1    0    0    0    0  0.00000000000E+00  0.00000000000E+00  0.52590393288E+03  0.52590393288E+03  0.00000000000E+00 0. -1.
         22   -1    0    0    0    0 -0.00000000000E+00 -0.00000000000E+00 -0.98051888615E+02  0.98051888615E+02  0.00000000000E+00 0. -1.
         24    2    1    2    0    0  0.65500568624E+02  0.19686698761E+02 -0.10188557874E+02  0.10776362991E+03  0.82651694607E+02 0.  0.
         25    2    1    2    0    0 -0.72472351178E+01 -0.61912354808E+02  0.13656582779E+03  0.19540786024E+03  0.12509334286E+03 0.  0.
        -24    2    1    2    0    0 -0.58253333506E+02  0.42225656047E+02  0.30147477435E+03  0.32078433135E+03  0.82698795493E+02 0.  0.
        -11    1    3    3    0    0  0.14784152988E+02 -0.25036189633E+02  0.18336408356E+02  0.34374494067E+02  0.00000000000E+00 0.  1.
         12    1    3    3    0    0  0.50716415635E+02  0.44722888394E+02 -0.28524966230E+02  0.73389135842E+02  0.00000000000E+00 0. -1.
         13    1    5    5    0    0 -0.33206827398E+02  0.65604250353E+02  0.23104029483E+03  0.24245871584E+03  0.00000000000E+00 0. -1.
        -14    1    5    5    0    0 -0.25046506108E+02 -0.23378594306E+02  0.70434479519E+02  0.78325615510E+02  0.00000000000E+00 0.  1.
          5    1    4    4  501    0  0.27920485345E+02 -0.85142489363E+02  0.60030639212E+02  0.10793492040E+03  0.41800000000E+01 0.  1.
         -5    1    4    4    0  501 -0.35167720463E+02  0.23230134555E+02  0.76535188580E+02  0.87472939844E+02  0.41800000000E+01 0.  1.
</event>
<event>
11    1  0.1078607E-008  0.1804495E+03  0.7561462E-02  0.1069280E+00
         22   -1    0    0    0    0  0.00000000000E+00  0.00000000000E+00  0.13125287848E+04  0.13125287848E+04  0.00000000000E+00 0. -1.
         22   -1    0    0    0    0 -0.00000000000E+00 -0.00000000000E+00 -0.48032431210E+02  0.48032431210E+02  0.00000000000E+00 0.  1.
        -24    2    1    2    0    0 -0.21863974553E+02  0.13582579564E+03  0.23346330078E+03  0.28195722483E+03  0.77897905507E+02 0.  0.
         25    2    1    2    0    0  0.10468213673E+03 -0.88874069288E+02  0.51887313117E+03  0.55111966502E+03  0.12508640605E+03 0.  0.
         24    2    1    2    0    0 -0.82818162173E+02 -0.46951726349E+02  0.51215992162E+03  0.52748432613E+03  0.82877116332E+02 0.  0.
        -11    1    5    5    0    0 -0.65253505510E+02 -0.57627953991E+02  0.25395508687E+03  0.26846263652E+03  0.00000000000E+00 0.  1.
         12    1    5    5    0    0 -0.17564656662E+02  0.10676227642E+02  0.25820483475E+03  0.25902168961E+03  0.00000000000E+00 0. -1.
         11    1    3    3    0    0 -0.29309204271E+02  0.16794303564E+02  0.85375803025E+02  0.91815607766E+02  0.00000000000E+00 0. -1.
        -12    1    3    3    0    0  0.74452297188E+01  0.11903149207E+03  0.14808749775E+03  0.19014161707E+03  0.00000000000E+00 0.  1.
          5    1    4    4  501    0  0.94845294385E+02 -0.83671381731E+02  0.23423186508E+03  0.26623029318E+03  0.41800000000E+01 0.  1.
         -5    1    4    4    0  501  0.98368423399E+01 -0.52026875564E+01  0.28464126609E+03  0.28488937184E+03  0.41800000000E+01 0.  1.
</event>
<event>
11    1  0.1078607E-008  0.1255941E+03  0.7561462E-02  0.1124804E+00
         22   -1    0    0    0    0  0.00000000000E+00  0.00000000000E+00  0.41606117489E+03  0.41606117489E+03  0.00000000000E+00 0.  1.
         22   -1    0    0    0    0 -0.00000000000E+00 -0.00000000000E+00 -0.12378807625E+03  0.12378807625E+03  0.00000000000E+00 0. -1.
        -24    2    1    2    0    0 -0.24729228159E+02  0.79937132105E+01 -0.59448383612E+02  0.99247884012E+02  0.75103914615E+02 0.  0.
         25    2    1    2    0    0  0.23768178220E+02  0.40907288242E+01  0.66178675696E+02  0.14355504858E+03  0.12508706767E+03 0.  0.
         24    2    1    2    0    0  0.96104993898E+00 -0.12084442035E+02  0.28554280656E+03  0.29704631854E+03  0.80962112266E+02 0.  0.
        -13    1    5    5    0    0 -0.18848231169E+02  0.17865601090E+02  0.22619395182E+03  0.22767990549E+03  0.00000000000E+00 0.  1.
         14    1    5    5    0    0  0.19809281108E+02 -0.29950043125E+02  0.59348854737E+02  0.69366413053E+02  0.00000000000E+00 0. -1.
         11    1    3    3    0    0 -0.33903013296E+02  0.20796480694E+02 -0.69845102387E+02  0.80375657056E+02  0.00000000000E+00 0. -1.
        -12    1    3    3    0    0  0.91737851363E+01 -0.12802767483E+02  0.10396718775E+02  0.18872226955E+02  0.00000000000E+00 0.  1.
          5    1    4    4  501    0 -0.16597741262E+02  0.57646210728E+02  0.29001468925E+02  0.66761727255E+02  0.41800000000E+01 0. -1.
         -5    1    4    4    0  501  0.40365919482E+02 -0.53555481904E+02  0.37177206771E+02  0.76793321329E+02  0.41800000000E+01 0. -1.
</event>
<event>
11    1  0.1078607E-008  0.1628220E+03  0.7561462E-02  0.1084453E+00
         22   -1    0    0    0    0  0.00000000000E+00  0.00000000000E+00  0.16180490299E+04  0.16180490299E+04  0.00000000000E+00 0. -1.
         22   -1    0    0    0    0 -0.00000000000E+00 -0.00000000000E+00 -0.22714404126E+03  0.22714404126E+03  0.00000000000E+00 0.  1.
        -24    2    1    2    0    0 -0.19196300944E+01 -0.46083259953E+02 -0.19384804208E+03  0.21428837831E+03  0.78835866410E+02 0.  0.
         25    2    1    2    0    0 -0.98365485226E+02  0.68534275844E+02  0.36334621910E+03  0.40254309116E+03  0.12509096554E+03 0.  0.
         24    2    1    2    0    0  0.10028511532E+03 -0.22451015890E+02  0.12214068116E+04  0.12283616016E+04  0.80476534176E+02 0.  0.
        -13    1    5    5    0    0 -0.63832083422E+01 -0.21535023515E+02  0.15249460792E+03  0.15413989759E+03  0.00000000000E+00 0.  1.
         14    1    5    5    0    0  0.10666832366E+03 -0.91599237555E+00  0.10689122037E+04  0.10742217041E+04  0.00000000000E+00 0. -1.
         11    1    3    3    0    0  0.36651522414E+02 -0.35079555783E+02 -0.97092199455E+02  0.10954818357E+03  0.00000000000E+00 0. -1.
        -12    1    3    3    0    0 -0.38571152508E+02 -0.11003704170E+02 -0.96755842628E+02  0.10474019474E+03  0.00000000000E+00 0.  1.
          5    1    4    4  501    0 -0.10100163687E+03 -0.21123232760E+01  0.23774024160E+03  0.25834799677E+03  0.41800000000E+01 0. -1.
         -5    1    4    4    0  501  0.26361516428E+01  0.70646599120E+02  0.12560597751E+03  0.14419509440E+03  0.41800000000E+01 0. -1.
</event>
<event>
11    1  0.1078607E-008  0.1372018E+03  0.7561462E-02  0.1110724E+00
         22   -1    0    0    0    0  0.00000000000E+00  0.00000000000E+00  0.26301526807E+03  0.26301526807E+03  0.00000000000E+00 0.  1.
         22   -1    0    0    0    0 -0.00000000000E+00 -0.00000000000E+00 -0.19128448592E+04  0.19128448592E+04  0.00000000000E+00 0.  1.
        -24    2    1    2    0    0  0.30418374137E+02 -0.46226603164E+02 -0.17867651738E+04  0.17894201805E+04  0.80203613582E+02 0.  0.
         25    2    1    2    0    0 -0.44676403391E+02  0.89586298752E+02 -0.58613861441E+02  0.17060300491E+03  0.12509242417E+03 0.  0.
         24    2    1    2    0    0  0.14258029254E+02 -0.43359695588E+02  0.19554944415E+03  0.21583694187E+03  0.79136879952E+02 0.  0.
        -13    1    5    5    0    0  0.43114672528E+01 -0.17804370498E+02  0.18584803017E+03  0.18674869391E+03  0.00000000000E+00 0.  1.
         14    1    5    5    0    0  0.99465620013E+01 -0.25555325089E+02  0.97014139767E+01  0.29088247957E+02  0.00000000000E+00 0. -1.
         13    1    3    3    0    0 -0.16147763817E+02 -0.30763766420E+02 -0.32900276717E+03  0.33083225418E+03  0.00000000000E+00 0. -1.
        -14    1    3    3    0    0  0.46566137954E+02 -0.15462836744E+02 -0.14577624066E+04  0.14585879263E+04  0.00000000000E+00 0.  1.
          5    1    4    4  501    0  0.19968067706E+02  0.84324133511E+02 -0.60189024181E+02  0.10559107089E+03  0.41800000000E+01 0.  1.
         -5    1    4    4    0  501 -0.64644471097E+02  0.52621652403E+01  0.15751627399E+01  0.65011934013E+02  0.41800000000E+01 0.  1.
</event>
<event>
11    1  0.1078607E-008  0.1553549E+03  0.7561462E-02  0.1091529E+00
         22   -1    0    0    0    0  0.00000000000E+00  0.00000000000E+00  0.84842996499E+03  0.84842996499E+03  0.00000000000E+00 0.  1.
         22   -1    0    0    0    0 -0.00000000000E+00 -0.00000000000E+00 -0.17620798968E+03  0.17620798968E+03  0.00000000000E+00 0. -1.
         24    2    1    2    0    0  0.10087731797E+03 -0.18861503962E+02 -0.11694055610E+03  0.17651567453E+03  0.83370858706E+02 0.  0.
         25    2    1    2    0    0 -0.33066520913E+02 -0.30994567199E+02  0.15815075595E+03  0.20667315285E+03  0.12509225596E+03 0.  0.
        -24    2    1    2    0    0 -0.67810797054E+02  0.49856071162E+02  0.63101177547E+03  0.64144912729E+03  0.78722233774E+02 0.  0.
        -13    1    3    3    0    0  0.99344481382E+01 -0.57863585645E+01  0.13012436350E+02  0.17363718064E+02  0.00000000000E+00 0.  1.
         14    1    3    3    0    0  0.90942869828E+02 -0.13075145398E+02 -0.12995299245E+03  0.15915195646E+03  0.00000000000E+00 0. -1.
         11    1    5    5    0    0 -0.28188941204E+02  0.15273925512E+02  0.60071491157E+02  0.68091800216E+02  0.00000000000E+00 0. -1.
        -12    1    5    5    0    0 -0.39621855850E+02  0.34582145650E+02  0.57094028431E+03  0.57335732707E+03  0.00000000000E+00 0.  1.
          5    1    4    4  501    0  0.20463933880E+02 -0.58344576735E+02  0.12082804341E+03  0.13579304363E+03  0.41800000000E+01 0.  1.
         -5    1    4    4    0  501 -0.53530454793E+02  0.27350009536E+02  0.37322712536E+02  0.70880109220E+02  0.41800000000E+01 0.  1.
</event>
<event>
11    1  0.1078607E-008  0.1467485E+03  0.7561462E-02  0.1100248E+00
         22   -1    0    0    0    0  0.00000000000E+00  0.00000000000E+00  0.89614185561E+03  0.89614185561E+03  0.00000000000E+00 0. -1.
         22   -1    0    0    0    0 -0.00000000000E+00 -0.00000000000E+00 -0.39939092250E+03  0.39939092250E+03  0.00000000000E+00 0. -1.
         24    2    1    2    0    0  0.49376586885E+02 -0.44962894000E+02 -0.32387993504E+03  0.34030659255E+03  0.80315972526E+02 0.  0.
         25    2    1    2    0    0 -0.36183789161E+02  0.11839479568E+03  0.58744757599E+02  0.18553729516E+03  0.12508615874E+03 0.  0.
        -24    2    1    2    0    0 -0.13192797724E+02 -0.73431901680E+02  0.76188611056E+03  0.76968889040E+03  0.79901492106E+02 0.  0.
        -13    1    3    3    0    0  0.46198022725E+02  0.21619828463E+01 -0.84664167252E+02  0.96472548893E+02  0.00000000000E+00 0.  1.
         14    1    3    3    0    0  0.31785641602E+01 -0.47124876847E+02 -0.23921576779E+03  0.24383404366E+03  0.00000000000E+00 0. -1.
         13    1    5    5    0    0  0.28859094591E+02 -0.56893347432E+02  0.41582393844E+03  0.42068901591E+03  0.00000000000E+00 0. -1.
        -14    1    5    5    0    0 -0.42051892315E+02 -0.16538554248E+02  0.34606217212E+03  0.34899987449E+03  0.00000000000E+00 0.  1.
          5    1    4    4  501    0  0.53951883669E+00 -0.15368800089E+01 -0.30955172446E+02  0.31278557862E+02  0.41800000000E+01 0. -1.
         -5    1    4    4    0  501 -0.36723307998E+02  0.11993167569E+03  0.89699930045E+02  0.15425873730E+03  0.41800000000E+01 0. -1.
</event>
<event>
11    1  0.1078607E-008  0.1383014E+03  0.7561462E-02  0.1109470E+00
         22   -1    0    0    0    0  0.00000000000E+00  0.00000000000E+00  0.12068929710E+04  0.12068929710E+04  0.00000000000E+00 0.  1.
         22   -1    0    0    0    0 -0.00000000000E+00 -0.00000000000E+00 -0.53493108136E+03  0.53493108136E+03  0.00000000000E+00 0.  1.
         24    2    1    2    0    0  0.49735535858E+02  0.30862732134E+02 -0.44608229270E+03  0.45670150197E+03  0.78490243218E+02 0.  0.
         25    2    1    2    0    0 -0.36532058754E+02 -0.61931896704E+02 -0.18292067266E+02  0.14543912766E+03  0.12509112273E+03 0.  0.
        -24    2    1    2    0    0 -0.13203477105E+02  0.31069164570E+02  0.11363362496E+04  0.11396834228E+04  0.80489794995E+02 0.  0.
        -11    1    3    3    0    0  0.40816109999E+02  0.25425408145E+02 -0.10531522693E+03  0.11577436348E+03  0.00000000000E+00 0.  1.
         12    1    3    3    0    0  0.89194258594E+01  0.54373239887E+01 -0.34076706576E+03  0.34092713849E+03  0.00000000000E+00 0. -1.
         13    1    5    5    0    0 -0.22403188953E+02  0.53403635273E+02  0.59586136912E+03  0.59866904241E+03  0.00000000000E+00 0. -1.
        -14    1    5    5    0    0  0.91997118489E+01 -0.22334470703E+02  0.54047488051E+03  0.54101438035E+03  0.00000000000E+00 0.  1.
          5    1    4    4  501    0  0.26394852509E+02 -0.60459881458E+02 -0.41696435115E+02  0.78154658250E+02  0.41800000000E+01 0.  1.
         -5    1    4    4    0  501 -0.62926911263E+02 -0.14720152458E+01  0.23404367850E+02  0.67284469415E+02  0.41800000000E+01 0.  1.
</event>
<event>
11    1  0.1078607E-008  0.1251791E+03  0.7561462E-02  0.1125338E+00
         22   -1    0    0    0    0  0.00000000000E+00  0.00000000000E+00  0.40774136959E+03  0.40774136959E+03  0.00000000000E+00 0.  1.
         22   -1    0    0    0    0 -0.00000000000E+00 -0.00000000000E+00 -0.30630270712E+03  0.30630270712E+03  0.00000000000E+00 0. -1.
        -24    2    1    2    0    0 -0.15597974175E+01 -0.13617177571E+00 -0.23000990303E+03  0.25040818000E+03  0.98981056816E+02 0.  0.
         25    2    1    2    0    0 -0.27623713853E+02  0.34269102147E+02  0.14445441246E+02  0.13339314422E+03  0.12509044417E+03 0.  0.
         24    2    1    2    0    0  0.29183511270E+02 -0.34132930371E+02  0.31700312426E+03  0.33024275249E+03  0.80947887638E+02 0.  0.
        -11    1    5    5    0    0 -0.16299921673E+02 -0.84034905486E+01  0.21359515200E+03  0.21438095778E+03  0.00000000000E+00 0.  1.
         12    1    5    5    0    0  0.45483432943E+02 -0.25729439822E+02  0.10340797226E+03  0.11586179470E+03  0.00000000000E+00 0. -1.
         11    1    3    3    0    0  0.27030573837E+02  0.37180747016E+02 -0.15684423937E+03  0.16344165716E+03  0.00000000000E+00 0. -1.
        -12    1    3    3    0    0 -0.28590371254E+02 -0.37316918792E+02 -0.73165663658E+02  0.86966522841E+02  0.00000000000E+00 0.  1.
          5    1    4    4  501    0 -0.75180176256E+02  0.41478971788E+01  0.15261441000E+02  0.76939248334E+02  0.41800000000E+01 0.  1.
         -5    1    4    4    0  501  0.47556462403E+02  0.30121204968E+02 -0.81599975401E+00  0.56453895885E+02  0.41800000000E+01 0.  1.
</event>
<event>
11    1  0.1078607E-008  0.1670500E+03  0.7561462E-02  0.1080628E+00
         22   -1    0    0    0    0  0.00000000000E+00  0.00000000000E+00  0.16661944708E+04  0.16661944708E+04  0.00000000000E+00 0. -1.
         22   -1    0    0    0    0 -0.00000000000E+00 -0.00000000000E+00 -0.92064041128E+03  0.92064041128E+03  0.00000000000E+00 0.  1.
         24    2    1    2    0    0  0.10878461509E+03  0.17324637153E+02 -0.86662322847E+03  0.87727279449E+03  0.80234034515E+02 0.  0.
         25    2    1    2    0    0 -0.14146213403E+03  0.49177383546E+02  0.15760652480E+03  0.25082980140E+03  0.12508326104E+03 0.  0.
        -24    2    1    2    0    0  0.32677518942E+02 -0.66502020699E+02  0.14545707632E+04  0.14587322862E+04  0.81445924488E+02 0.  0.
        -11    1    3    3    0    0  0.12810409073E+02  0.21606049061E+02 -0.40398424869E+03  0.40476437729E+03  0.00000000000E+00 0.  1.
         12    1    3    3    0    0  0.95974206017E+02 -0.42814119080E+01 -0.46263897979E+03  0.47250841720E+03  0.00000000000E+00 0. -1.
         13    1    5    5    0    0  0.27224539280E+02 -0.75557239073E+02  0.14261487812E+04  0.14284083513E+04  0.00000000000E+00 0. -1.
        -14    1    5    5    0    0  0.54529796616E+01  0.90552183738E+01  0.28421981984E+02  0.30323934885E+02  0.00000000000E+00 0.  1.
          5    1    4    4  501    0 -0.14153130600E+03  0.79593202149E+02  0.11825097965E+03  0.20091529308E+03  0.41800000000E+01 0.  1.
         -5    1    4    4    0  501  0.69171968152E-01 -0.30415818603E+02  0.39355545157E+02  0.49914508318E+02  0.41800000000E+01 0.  1.
</event>
<event>
11    1  0.1078607E-008  0.1640382E+03  0.7561462E-02  0.1083340E+00
         22   -1    0    0    0    0  0.00000000000E+00  0.00000000000E+00  0.16678569717E+03  0.16678569717E+03  0.00000000000E+00 0. -1.
         22   -1    0    0    0    0 -0.00000000000E+00 -0.00000000000E+00 -0.69152919102E+03  0.69152919102E+03  0.00000000000E+00 0. -1.
        -24    2    1    2    0    0  0.16804870321E+02 -0.90857300735E+02 -0.37907159321E+03  0.40022932592E+03  0.89167190056E+02 0.  0.
         25    2    1    2    0    0 -0.47671842183E+02  0.14398889854E+03 -0.24651065377E+03  0.31530988596E+03  0.12508962516E+03 0.  0.
         24    2    1    2    0    0  0.30866971861E+02 -0.53131597802E+02  0.10083875314E+03  0.14277567631E+03  0.80253990399E+02 0.  0.
        -11    1    5    5    0    0 -0.94581565092E+01 -0.18172795213E+01  0.69882331247E+02  0.70542890853E+02  0.00000000000E+00 0.  1.
         12    1    5    5    0    0  0.40325128371E+02 -0.51314318281E+02  0.30956421889E+02  0.72232785457E+02  0.00000000000E+00 0. -1.
         11    1    3    3    0    0  0.34872009097E+02 -0.81546999861E+02 -0.36471867571E+03  0.37534741589E+03  0.00000000000E+00 0. -1.
        -12    1    3    3    0    0 -0.18067138775E+02 -0.93103008734E+01 -0.14352917505E+02  0.24881910031E+02  0.00000000000E+00 0.  1.
          5    1    4    4  501    0 -0.59374689709E+02  0.33607952836E+02 -0.35914480297E+02  0.77215092870E+02  0.41800000000E+01 0.  1.
         -5    1    4    4    0  501  0.11702847527E+02  0.11038094570E+03 -0.21059617347E+03  0.23809479309E+03  0.41800000000E+01 0.  1.
</event>
<event>
11    1  0.1078607E-008  0.1558616E+03  0.7561462E-02  0.1091035E+00
         22   -1    0    0    0    0  0.00000000000E+00  0.00000000000E+00  0.24954481384E+04  0.24954481384E+04  0.00000000000E+00 0. -1.
         22   -1    0    0    0    0 -0.00000000000E+00 -0.00000000000E+00 -0.48550458263E+03  0.48550458263E+03  0.00000000000E+00 0.  1.
         24    2    1    2    0    0  0.12404363996E+02 -0.40224113527E+02 -0.39679189653E+03  0.40696812548E+03  0.80046226959E+02 0.  0.
         25    2    1    2    0    0 -0.10182530706E+03  0.64122635200E+02  0.97189646321E+01  0.17384537259E+03  0.12509056636E+03 0.  0.
        -24    2    1    2    0    0  0.89420943068E+02 -0.23898521673E+02  0.23970164877E+04  0.24001392230E+04  0.80081228100E+02 0.  0.
        -13    1    3    3    0    0  0.38257930381E+01 -0.64437953899E+02 -0.29564979234E+03  0.30261474899E+03  0.00000000000E+00 0.  1.
         14    1    3    3    0    0  0.85785709582E+01  0.24213840372E+02 -0.10114210419E+03  0.10435337649E+03  0.00000000000E+00 0. -1.
         13    1    5    5    0    0  0.85253216502E+02 -0.31575638192E+02  0.23700528140E+04  0.23717958329E+04  0.00000000000E+00 0. -1.
        -14    1    5    5    0    0  0.41677265665E+01  0.76771165187E+01  0.26963673741E+02  0.28343390136E+02  0.00000000000E+00 0.  1.
          5    1    4    4  501    0  0.23577176860E+02  0.33278593136E+02 -0.12238017150E+02  0.42785388786E+02  0.41800000000E+01 0. -1.
         -5    1    4    4    0  501 -0.12540248392E+03  0.30844042064E+02  0.21956981782E+02  0.13105998380E+03  0.41800000000E+01 0. -1.
</event>
<event>
11    1  0.1078607E-008  0.1573955E+03  0.7561462E-02  0.1089553E+00
         22   -1    0    0    0    0  0.00000000000E+00  0.00000000000E+00  0.80805118133E+03  0.80805118133E+03  0.00000000000E+00 0. -1.
         22   -1    0    0    0    0 -0.00000000000E+00 -0.00000000000E+00 -0.34936967910E+03  0.34936967910E+03  0.00000000000E+00 0.  1.
        -24    2    1    2    0    0 -0.22504406356E+02  0.18346948787E+02 -0.27304977071E+03  0.28483272121E+03  0.75699689230E+02 0.  0.
         25    2    1    2    0    0  0.86949000079E+02  0.51947248557E+02  0.34900582708E+02  0.16469739499E+03  0.12509410855E+03 0.  0.
         24    2    1    2    0    0 -0.64444593723E+02 -0.70294197344E+02  0.69683069023E+03  0.70789074424E+03  0.80261541799E+02 0.  0.
        -13    1    5    5    0    0 -0.41628190818E+02 -0.14311652009E+02  0.11855155348E+03  0.12646027237E+03  0.00000000000E+00 0.  1.
         14    1    5    5    0    0 -0.22816402905E+02 -0.55982545335E+02  0.57827913675E+03  0.58143047187E+03  0.00000000000E+00 0. -1.
         11    1    3    3    0    0  0.11794252760E+02  0.39145778938E+02 -0.13145945843E+03  0.13767020599E+03  0.00000000000E+00 0. -1.
        -12    1    3    3    0    0 -0.34298659116E+02 -0.20798830151E+02 -0.14159031229E+03  0.14716251522E+03  0.00000000000E+00 0.  1.
          5    1    4    4  501    0  0.10043996040E+03 -0.35858276718E+01  0.66489495684E+01  0.10081034042E+03  0.41800000000E+01 0.  1.
         -5    1    4    4    0  501 -0.13490960322E+02  0.55533076229E+02  0.28251633140E+02  0.63887054564E+02  0.41800000000E+01 0.  1.
</event>
<event>
11    1  0.1078607E-008  0.1762033E+03  0.7561462E-02  0.1072756E+00
         22   -1    0    0    0    0  0.00000000000E+00  0.00000000000E+00  0.11647029801E+04  0.11647029801E+04  0.00000000000E+00 0.  1.
         22   -1    0    0    0    0 -0.00000000000E+00 -0.00000000000E+00 -0.49898409629E+03  0.49898409629E+03  0.00000000000E+00 0. -1.
        -24    2    1    2    0    0 -0.85126574762E+01  0.11457479885E+01 -0.44124455813E+03  0.45021489753E+03  0.89010762259E+02 0.  0.
         25    2    1    2    0    0 -0.11334527449E+03  0.26631116331E+02  0.10518515254E+03  0.20066778726E+03  0.12508907595E+03 0.  0.
         24    2    1    2    0    0  0.12185793197E+03 -0.27776864320E+02  0.10017782894E+04  0.10128043916E+04  0.81191654375E+02 0.  0.
        -13    1    5    5    0    0  0.92039692667E+02 -0.44403464554E+02  0.89213592230E+03  0.89796964122E+03  0.00000000000E+00 0.  1.
         14    1    5    5    0    0  0.29818239301E+02  0.16626600234E+02  0.10964236711E+03  0.11483475039E+03  0.00000000000E+00 0. -1.
         11    1    3    3    0    0 -0.16726246225E+02 -0.38616361153E+02 -0.30972377510E+03  0.31256968427E+03  0.00000000000E+00 0. -1.
        -12    1    3    3    0    0  0.82135887492E+01  0.39762109141E+02 -0.13152078303E+03  0.13764521326E+03  0.00000000000E+00 0.  1.
          5    1    4    4  501    0 -0.27229061191E+02 -0.59382020665E+01 -0.27328063192E+02  0.39255311169E+02  0.41800000000E+01 0.  1.
         -5    1    4    4    0  501 -0.86116213302E+02  0.32569318398E+02  0.13251321573E+03  0.16141247609E+03  0.41800000000E+01 0.  1.
</event>
<event>
11    1  0.1078607E-008  0.1913053E+03  0.7561462E-02  0.1060848E+00
         22   -1    0    0    0    0  0.00000000000E+00  0.00000000000E+00  0.22768481400E+03  0.22768481400E+03  0.00000000000E+00 0.  1.
         22   -1    0    0    0    0 -0.00000000000E+00 -0.00000000000E+00 -0.72540462503E+03  0.72540462503E+03  0.00000000000E+00 0. -1.
         24    2    1    2    0    0 -0.14291725781E+03 -0.35100814090E+02 -0.37078549568E+03  0.40695065039E+03  0.80433440243E+02 0.  0.
         25    2    1    2    0    0  0.14696336791E+03 -0.33419457866E+02 -0.29057538395E+03  0.35042438606E+03  0.12509238554E+03 0.  0.
        -24    2    1    2    0    0 -0.40461100941E+01  0.68520271956E+02  0.16364106860E+03  0.19571440259E+03  0.82548951379E+02 0.  0.
        -13    1    3    3    0    0 -0.61906999461E+02 -0.38819652589E+02 -0.25725364333E+03  0.26743013857E+03  0.00000000000E+00 0.  1.
         14    1    3    3    0    0 -0.81010258354E+02  0.37188384988E+01 -0.11353185235E+03  0.13952051181E+03  0.00000000000E+00 0. -1.
         13    1    5    5    0    0  0.32730800405E+02  0.32025109480E+02  0.36957675381E+02  0.58845413601E+02  0.00000000000E+00 0. -1.
        -14    1    5    5    0    0 -0.36776910499E+02  0.36495162476E+02  0.12668339322E+03  0.13686898899E+03  0.00000000000E+00 0.  1.
          5    1    4    4  501    0  0.68943722658E+02 -0.14775369015E+02 -0.28243763366E+02  0.76070565875E+02  0.41800000000E+01 0. -1.
         -5    1    4    4    0  501  0.78019645251E+02 -0.18644088852E+02 -0.26233162058E+03  0.27435382018E+03  0.41800000000E+01 0. -1.
</event>
<event>
11    1  0.1078607E-008  0.1827706E+03  0.7561462E-02  0.1067424E+00
         22   -1    0    0    0    0  0.00000000000E+00  0.00000000000E+00  0.11327742175E+04  0.11327742175E+04  0.00000000000E+00 0. -1.
         22   -1    0    0    0    0 -0.00000000000E+00 -0.00000000000E+00 -0.16272167823E+04  0.16272167823E+04  0.00000000000E+00 0.  1.
        -24    2    1    2    0    0 -0.13294631894E+03  0.91742866029E+01 -0.15401001221E+04  0.15479691664E+04  0.80878074716E+02 0.  0.
         25    2    1    2    0    0  0.12907413329E+03 -0.59292496700E+02  0.29682183324E+02  0.19158226654E+03  0.12508797223E+03 0.  0.
         24    2    1    2    0    0  0.38721856548E+01  0.50118210097E+02  0.10159753739E+04  0.10204395669E+04  0.81019259881E+02 0.  0.
        -11    1    5    5    0    0  0.61553683926E+01 -0.19179872858E+02  0.11107312329E+03  0.11288487409E+03  0.00000000000E+00 0.  1.
         12    1    5    5    0    0 -0.22831827379E+01  0.69298082955E+02  0.90490225063E+03  0.90755469280E+03  0.00000000000E+00 0. -1.
         11    1    3    3    0    0 -0.37941878526E+02  0.28621520756E+02 -0.26827157216E+03  0.27244892003E+03  0.00000000000E+00 0. -1.
        -12    1    3    3    0    0 -0.95004440418E+02 -0.19447234153E+02 -0.12718285499E+04  0.12755202464E+04  0.00000000000E+00 0.  1.
          5    1    4    4  501    0  0.87726514637E+02 -0.86096687662E+02  0.56478699515E+02  0.13533623645E+03  0.41800000000E+01 0.  1.
         -5    1    4    4    0  501  0.41347618653E+02  0.26804190962E+02 -0.26796516192E+02  0.56246030095E+02  0.41800000000E+01 0.  1.
</event>
<event>
11    1  0.1078607E-008  0.2239493E+03  0.7561462E-02  0.1038771E+00
         22   -1    0    0    0    0  0.00000000000E+00  0.00000000000E+00  0.95209634886E+03  0.95209634886E+03  0.00000000000E+00 0.  1.
         22   -1    0    0    0    0 -0.00000000000E+00 -0.00000000000E+00 -0.27985550871E+04  0.27985550871E+04  0.00000000000E+00 0.  1.
        -24    2    1    2    0    0 -0.18552266051E+03  0.10140082851E+02 -0.27439354558E+04  0.27513202075E+04  0.77843561940E+02 0.  0.
         25    2    1    2    0    0  0.18396218626E+03  0.15990540959E+02  0.20877849091E+03  0.30550550115E+03  0.12508944637E+03 0.  0.
         24    2    1    2    0    0  0.15604742514E+01 -0.26130623810E+02  0.68869822658E+03  0.69382572730E+03  0.80022796635E+02 0.  0.
        -13    1    5    5    0    0 -0.35021789138E+02 -0.16404175887E+01  0.42828432814E+03  0.42971697944E+03  0.00000000000E+00 0.  1.
         14    1    5    5    0    0  0.36582263390E+02 -0.24490206221E+02  0.26041389844E+03  0.26410874786E+03  0.00000000000E+00 0. -1.
         11    1    3    3    0    0  0.36145435273E+00 -0.10244132821E+02 -0.32735424417E+03  0.32751469292E+03  0.00000000000E+00 0. -1.
        -12    1    3    3    0    0 -0.18588411486E+03  0.20384215672E+02 -0.24165812116E+04  0.24238055146E+04  0.00000000000E+00 0.  1.
          5    1    4    4  501    0  0.79324315167E+02 -0.82909565459E+01  0.11296982782E+02  0.80660902283E+02  0.41800000000E+01 0.  1.
         -5    1    4    4    0  501  0.10463787109E+03  0.24281497505E+02  0.19748150813E+03  0.22484459887E+03  0.41800000000E+01 0.  1.
</event>
<event>
11    1  0.1078607E-008  0.1929640E+03  0.7561462E-02  0.1059614E+00
         22   -1    0    0    0    0  0.00000000000E+00  0.00000000000E+00  0.31310676525E+04  0.31310676525E+04  0.00000000000E+00 0.  1.
         22   -1    0    0    0    0 -0.00000000000E+00 -0.00000000000E+00 -0.10874152346E+04  0.10874152346E+04  0.00000000000E+00 0. -1.
        -24    2    1    2    0    0 -0.45694816424E+02  0.88691143466E+01 -0.96131277835E+03  0.96582964515E+03  0.80857703409E+02 0.  0.
         25    2    1    2    0    0 -0.23966215469E+01  0.13037857470E+03 -0.54317902188E+02  0.18872010776E+03  0.12514203146E+03 0.  0.
         24    2    1    2    0    0  0.48091437971E+02 -0.13924768905E+03  0.30592830984E+04  0.30639331342E+04  0.82282861888E+02 0.  0.
        -13    1    5    5    0    0  0.62104368174E+02 -0.63428176927E+02  0.13530950746E+04  0.13560038226E+04  0.00000000000E+00 0.  1.
         14    1    5    5    0    0 -0.14012930202E+02 -0.75819512119E+02  0.17061880238E+04  0.17079293115E+04  0.00000000000E+00 0. -1.
         11    1    3    3    0    0  0.40806959655E+01  0.35871436799E+02 -0.32365957444E+03  0.32566690373E+03  0.00000000000E+00 0. -1.
        -12    1    3    3    0    0 -0.49775512390E+02 -0.27002322452E+02 -0.63765320391E+03  0.64016274142E+03  0.00000000000E+00 0.  1.
          5    1    4    4  501    0  0.41701711621E+02  0.93787225548E+01  0.10890729319E+02  0.44306586124E+02  0.41800000000E+01 0. -1.
         -5    1    4    4    0  501 -0.44098333168E+02  0.12099985214E+03 -0.65208631507E+02  0.14441352163E+03  0.41800000000E+01 0. -1.
</event>
<event>
11    1  0.1078607E-008  0.1854357E+03  0.7561462E-02  0.1065329E+00
         22   -1    0    0    0    0  0.00000000000E+00  0.00000000000E+00  0.69322363152E+03  0.69322363152E+03  0.00000000000E+00 0.  1.
         22   -1    0    0    0    0 -0.00000000000E+00 -0.00000000000E+00 -0.43717386512E+03  0.43717386512E+03  0.00000000000E+00 0. -1.
        -24    2    1    2    0    0 -0.12447712119E+03 -0.30488980026E+02 -0.28977181860E+03  0.32730942447E+03  0.82095194057E+02 0.  0.
         25    2    1    2    0    0  0.17378125784E+03  0.59329452497E+02 -0.25133158457E+02  0.22360529226E+03  0.12509093319E+03 0.  0.
         24    2    1    2    0    0 -0.49304136651E+02 -0.28840472471E+02  0.57095474346E+03  0.57948277991E+03  0.80921581725E+02 0.  0.
        -11    1    5    5    0    0 -0.41872928727E+02 -0.52533385445E+02  0.49583817125E+03  0.50036845506E+03  0.00000000000E+00 0.  1.
         12    1    5    5    0    0 -0.74312079234E+01  0.23692912975E+02  0.75116572209E+02  0.79114324853E+02  0.00000000000E+00 0. -1.
         13    1    3    3    0    0 -0.12120395891E+03 -0.11046179823E+02 -0.27999415338E+03  0.30530172563E+03  0.00000000000E+00 0. -1.
        -14    1    3    3    0    0 -0.32731622794E+01 -0.19442800203E+02 -0.97776652205E+01  0.22007698840E+02  0.00000000000E+00 0.  1.
          5    1    4    4  501    0  0.50301989949E+02 -0.35738989617E+02 -0.27521740452E+02  0.67694048256E+02  0.41800000000E+01 0.  1.
         -5    1    4    4    0  501  0.12347926789E+03  0.95068442115E+02  0.23885819949E+01  0.15591124401E+03  0.41800000000E+01 0.  1.
</event>
<event>
11    1  0.1078607E-008  0.1390438E+03  0.7561462E-02  0.1108631E+00
         22   -1    0    0    0    0  0.00000000000E+00  0.00000000000E+00  0.45981573744E+03  0.45981573744E+03  0.00000000000E+00 0. -1.
         22   -1    0    0    0    0 -0.00000000000E+00 -0.00000000000E+00 -0.59057287855E+03  0.59057287855E+03  0.00000000000E+00 0. -1.
        -24    2    1    2    0    0  0.54810455706E+02 -0.23736869580E+02 -0.30357836879E+03  0.32024034922E+03  0.82622213966E+02 0.  0.
         25    2    1    2    0    0 -0.30999349457E+02 -0.33187886436E+02 -0.25590025044E+03  0.28843544669E+03  0.12509066014E+03 0.  0.
         24    2    1    2    0    0 -0.23811106249E+02  0.56924756016E+02  0.42872147812E+03  0.44171282009E+03  0.86606656783E+02 0.  0.
        -11    1    5    5    0    0  0.14239222125E+02  0.38723858315E+02  0.75989392935E+02  0.86467800296E+02  0.00000000000E+00 0.  1.
         12    1    5    5    0    0 -0.38050328374E+02  0.18200897701E+02  0.35273208519E+03  0.35524501979E+03  0.00000000000E+00 0. -1.
         13    1    3    3    0    0  0.24619768330E+02  0.15309085419E+02 -0.22887949815E+03  0.23070831316E+03  0.00000000000E+00 0. -1.
        -14    1    3    3    0    0  0.30190687376E+02 -0.39045955000E+02 -0.74698870639E+02  0.89532036059E+02  0.00000000000E+00 0.  1.
          5    1    4    4  501    0  0.69174079673E+01 -0.63196123586E+02 -0.63287800111E+02  0.89802108061E+02  0.41800000000E+01 0. -1.
         -5    1    4    4    0  501 -0.37916757425E+02  0.30008237150E+02 -0.19261245033E+03  0.19863333862E+03  0.41800000000E+01 0. -1.
</event>
<event>
11    1  0.1078607E-008  0.1861118E+03  0.7561462E-02  0.1064804E+00
         22   -1    0    0    0    0  0.00000000000E+00  0.00000000000E+00  0.14123136400E+04  0.14123136400E+04  0.00000000000E+00 0. -1.
         22   -1    0    0    0    0 -0.00000000000E+00 -0.00000000000E+00 -0.30778621203E+03  0.30778621203E+03  0.00000000000E+00 0. -1.
        -24    2    1    2    0    0  0.10385328774E+03 -0.11006666034E+03 -0.24586355690E+03  0.29953667176E+03  0.79832036319E+02 0.  0.
         25    2    1    2    0    0 -0.76954928300E+02 -0.75958116827E+01  0.14531643625E+03  0.20674764393E+03  0.12509182340E+03 0.  0.
         24    2    1    2    0    0 -0.26898359440E+02  0.11766247202E+03  0.12050745486E+04  0.12138155363E+04  0.81089515239E+02 0.  0.
        -11    1    5    5    0    0 -0.61286891396E+01  0.10552478197E+03  0.67781092496E+03  0.68600341868E+03  0.00000000000E+00 0.  1.
         12    1    5    5    0    0 -0.20769670301E+02  0.12137690047E+02  0.52726362365E+03  0.52781211766E+03  0.00000000000E+00 0. -1.
         11    1    3    3    0    0  0.10338355803E+03 -0.11717552172E+03 -0.20348105684E+03  0.25655955147E+03  0.00000000000E+00 0. -1.
        -12    1    3    3    0    0  0.46972970716E+00  0.71088613797E+01 -0.42382500064E+02  0.42977120282E+02  0.00000000000E+00 0.  1.
          5    1    4    4  501    0  0.18799449004E+02  0.31828582640E+02  0.14676228342E+02  0.39991774580E+02  0.41800000000E+01 0.  1.
         -5    1    4    4    0  501 -0.95754377303E+02 -0.39424394323E+02  0.13064020791E+03  0.16675586935E+03  0.41800000000E+01 0.  1.
</event>
<event>
11    1  0.1078607E-008  0.1775510E+03  0.7561462E-02  0.1071641E+00
         22   -1    0    0    0    0  0.00000000000E+00  0.00000000000E+00  0.44883210685E+03  0.44883210685E+03  0.00000000000E+00 0. -1.
         22   -1    0    0    0    0 -0.00000000000E+00 -0.00000000000E+00 -0.16635841843E+04  0.16635841843E+04  0.00000000000E+00 0.  1.
         24    2    1    2    0    0 -0.10135251204E+03 -0.72303313992E+02 -0.15660521318E+04  0.15728681100E+04  0.76777021568E+02 0.  0.
         25    2    1    2    0    0  0.17651412568E+03  0.13042488393E+03  0.13585696229E+03  0.28683063161E+03  0.12508721005E+03 0.  0.
        -24    2    1    2    0    0 -0.75161613643E+02 -0.58121569935E+02  0.21544309204E+03  0.25271754955E+03  0.91777169722E+02 0.  0.
        -11    1    3    3    0    0 -0.22020385920E+02 -0.22387221295E+02 -0.86600315989E+03  0.86657230398E+03  0.00000000000E+00 0.  1.
         12    1    3    3    0    0 -0.79332126115E+02 -0.49916092697E+02 -0.70004897187E+03  0.70629580600E+03  0.00000000000E+00 0. -1.
         13    1    5    5    0    0 -0.94851793070E+02 -0.60069413059E+02  0.18087088680E+03  0.21288371175E+03  0.00000000000E+00 0. -1.
        -14    1    5    5    0    0  0.19690179427E+02  0.19478431237E+01  0.34572205240E+02  0.39833837800E+02  0.00000000000E+00 0.  1.
          5    1    4    4  501    0  0.17210237752E+02  0.11776428268E+02 -0.23824594865E+02  0.31936816790E+02  0.41800000000E+01 0.  1.
         -5    1    4    4    0  501  0.15930388793E+03  0.11864845566E+03  0.15968155716E+03  0.25489381482E+03  0.41800000000E+01 0.  1.
</event>
<event>
11    1  0.1078607E-008  0.1419129E+03  0.7561462E-02  0.1105441E+00
         22   -1    0    0    0    0  0.00000000000E+00  0.00000000000E+00  0.16839636866E+04  0.16839636866E+04  0.00000000000E+00 0. -1.
         22   -1    0    0    0    0 -0.00000000000E+00 -0.00000000000E+00 -0.79638849691E+03  0.79638849691E+03  0.00000000000E+00 0.  1.
        -24    2    1    2    0    0  0.61615941980E+02 -0.26716384064E+02 -0.77245276862E+03  0.77947185338E+03  0.79892433861E+02 0.  0.
         25    2    1    2    0    0 -0.48234296734E+02  0.32014326663E+02  0.22746794474E+03  0.26597223301E+03  0.12509235930E+03 0.  0.
         24    2    1    2    0    0 -0.13381645246E+02 -0.52979425986E+01  0.14325600135E+04  0.14349080971E+04  0.80783154794E+02 0.  0.
        -11    1    5    5    0    0 -0.36262038936E+02 -0.15958683308E+01  0.31136208272E+03  0.31347061875E+03  0.00000000000E+00 0.  1.
         12    1    5    5    0    0  0.22880393690E+02 -0.37020742678E+01  0.11211979308E+04  0.11214374783E+04  0.00000000000E+00 0. -1.
         13    1    3    3    0    0  0.25348707373E+02  0.40860242123E+01 -0.57913484970E+02  0.63350014213E+02  0.00000000000E+00 0. -1.
        -14    1    3    3    0    0  0.36267234607E+02 -0.30802408277E+02 -0.71453928365E+03  0.71612183917E+03  0.00000000000E+00 0.  1.
          5    1    4    4  501    0 -0.43826158922E+02  0.63676911349E+02  0.21951527579E+03  0.23276578347E+03  0.41800000000E+01 0.  1.
         -5    1    4    4    0  501 -0.44081378118E+01 -0.31662584686E+02  0.79526689438E+01  0.33206449543E+02  0.41800000000E+01 0.  1.
</event>
<event>
11    1  0.1078607E-008  0.1302900E+03  0.7561462E-02  0.1118913E+00
         22   -1    0    0    0    0  0.00000000000E+00  0.00000000000E+00  0.10274356947E+04  0.10274356947E+04  0.00000000000E+00 0.  1.
         22   -1    0    0    0    0 -0.00000000000E+00 -0.00000000000E+00 -0.25822573057E+03  0.25822573057E+03  0.00000000000E+00 0. -1.
         24    2    1    2    0    0 -0.23027288614E-01 -0.31172515941E+02 -0.15758507935E+03  0.18032009907E+03  0.81917974914E+02 0.  0.
         25    2    1    2    0    0 -0.48278600925E+01  0.62356597235E+02 -0.31313464400E+02  0.14331636066E+03  0.12508953884E+03 0.  0.
        -24    2    1    2    0    0  0.48508873811E+01 -0.31184081293E+02  0.95810850789E+03  0.96202496554E+03  0.80772169693E+02 0.  0.
        -11    1    3    3    0    0 -0.31268845622E+02  0.11913000403E+01 -0.24212723200E+02  0.39565336686E+02  0.00000000000E+00 0.  1.
         12    1    3    3    0    0  0.31245818333E+02 -0.32363815982E+02 -0.13337235615E+03  0.14075476239E+03  0.00000000000E+00 0. -1.
         13    1    5    5    0    0  0.39013044717E+02 -0.68024638353E+01  0.30356398097E+03  0.30613621431E+03  0.00000000000E+00 0. -1.
        -14    1    5    5    0    0 -0.34162157336E+02 -0.24381617458E+02  0.65454452692E+03  0.65588875123E+03  0.00000000000E+00 0.  1.
          5    1    4    4  501    0 -0.25226421700E+02  0.90952787220E+02 -0.45917876490E+02  0.10504620715E+03  0.41800000000E+01 0. -1.
         -5    1    4    4    0  501  0.20398561607E+02 -0.28596189985E+02  0.14604412090E+02  0.38270153512E+02  0.41800000000E+01 0. -1.
</event>
<event>
11    1  0.1078607E-008  0.1887897E+03  0.7561462E-02  0.1062747E+00
         22   -1    0    0    0    0  0.00000000000E+00  0.00000000000E+00  0.48531900344E+03  0.48531900344E+03  0.00000000000E+00 0.  1.
         22   -1    0    0    0    0 -0.00000000000E+00 -0.00000000000E+00 -0.46487989537E+03  0.46487989537E+03  0.00000000000E+00 0. -1.
        -24    2    1    2    0    0  0.33068583668E+02 -0.61662573964E+02 -0.38618962025E+03  0.40090165732E+03  0.81755194336E+02 0.  0.
         25    2    1    2    0    0 -0.16274007795E+03  0.37789630224E+02  0.19032436451E+03  0.28245996010E+03  0.12509147139E+03 0.  0.
         24    2    1    2    0    0  0.12967149428E+03  0.23872943740E+02  0.21630436381E+03  0.26683728138E+03  0.83844755706E+02 0.  0.
        -11    1    5    5    0    0  0.12713281674E+03  0.38721061603E+02  0.15722784340E+03  0.20587051378E+03  0.00000000000E+00 0.  1.
         12    1    5    5    0    0  0.25386775413E+01 -0.14848117863E+02  0.59076520418E+02  0.60966767607E+02  0.00000000000E+00 0. -1.
         11    1    3    3    0    0  0.57117440895E+02 -0.22933758243E+02 -0.20307615356E+03  0.21219868865E+03  0.00000000000E+00 0. -1.
        -12    1    3    3    0    0 -0.24048857227E+02 -0.38728815721E+02 -0.18311346669E+03  0.18870296867E+03  0.00000000000E+00 0.  1.
          5    1    4    4  501    0 -0.13551831224E+03  0.27271008030E+02  0.20672801920E+03  0.24872247015E+03  0.41800000000E+01 0. -1.
         -5    1    4    4    0  501 -0.27221765707E+02  0.10518622194E+02 -0.16403654699E+02  0.33737489956E+02  0.41800000000E+01 0. -1.
</event>
<event>
11    1  0.1078607E-008  0.1482363E+03  0.7561462E-02  0.1098695E+00
         22   -1    0    0    0    0  0.00000000000E+00  0.00000000000E+00  0.42540098522E+03  0.42540098522E+03  0.00000000000E+00 0. -1.
         22   -1    0    0    0    0 -0.00000000000E+00 -0.00000000000E+00 -0.80989627182E+03  0.80989627182E+03  0.00000000000E+00 0. -1.
         24    2    1    2    0    0  0.63804520391E+02 -0.50042659260E+01 -0.63667214156E+03  0.64377926264E+03  0.70740820361E+02 0.  0.
         25    2    1    2    0    0 -0.55383927640E+02 -0.74616611082E+02 -0.12371213872E+03  0.19896073420E+03  0.12508262228E+03 0.  0.
        -24    2    1    2    0    0 -0.84205927504E+01  0.79620877008E+02  0.37588899368E+03  0.39255726020E+03  0.79989227617E+02 0.  0.
        -13    1    3    3    0    0  0.45406747540E+02  0.28051772273E+02 -0.27481303851E+03  0.27994799658E+03  0.00000000000E+00 0.  1.
         14    1    3    3    0    0  0.18397772851E+02 -0.33056038199E+02 -0.36185910305E+03  0.36383126606E+03  0.00000000000E+00 0. -1.
         13    1    5    5    0    0 -0.19792166235E+02  0.55633978148E+02  0.35176667567E+03  0.35668846839E+03  0.00000000000E+00 0. -1.
        -14    1    5    5    0    0  0.11371573484E+02  0.23986898860E+02  0.24122318007E+02  0.35868791818E+02  0.00000000000E+00 0.  1.
          5    1    4    4  501    0  0.11744891368E+02  0.13289923739E+02 -0.76476560158E+02  0.78617435724E+02  0.41800000000E+01 0.  1.
         -5    1    4    4    0  501 -0.67128819009E+02 -0.87906534821E+02 -0.47235578558E+02  0.12034329847E+03  0.41800000000E+01 0.  1.
</event>
<event>
11    1  0.1078607E-008  0.1385117E+03  0.7561462E-02  0.1109232E+00
         22   -1    0    0    0    0  0.00000000000E+00  0.00000000000E+00  0.19679721615E+03  0.19679721615E+03  0.00000000000E+00 0. -1.
         22   -1    0    0    0    0 -0.00000000000E+00 -0.00000000000E+00 -0.29747237848E+03  0.29747237848E+03  0.00000000000E+00 0. -1.
        -24    2    1    2    0    0 -0.32858108661E+02 -0.40486677512E+02 -0.15207460059E+03  0.17958924848E+03  0.80042411667E+02 0.  0.
         25    2    1    2    0    0  0.41599424715E+02  0.76535309411E+02 -0.67671892800E+02  0.16676370442E+03  0.12506990971E+03 0.  0.
         24    2    1    2    0    0 -0.87413160547E+01 -0.36048631899E+02  0.11907133105E+03  0.14791664172E+03  0.79532613136E+02 0.  0.
        -11    1    5    5    0    0  0.17104779438E+02 -0.46799780301E+02  0.39562022374E+02  0.63623474678E+02  0.00000000000E+00 0.  1.
         12    1    5    5    0    0 -0.25846095492E+02  0.10751148402E+02  0.79509308678E+02  0.84293167046E+02  0.00000000000E+00 0. -1.
         13    1    3    3    0    0 -0.39858846478E+02 -0.37014968445E+01 -0.13021750635E+03  0.13623152235E+03  0.00000000000E+00 0. -1.
        -14    1    3    3    0    0  0.70007378176E+01 -0.36785180668E+02 -0.21857094234E+02  0.43357726129E+02  0.00000000000E+00 0.  1.
          5    1    4    4  501    0  0.74178770934E+02  0.62599296922E+01 -0.28084325240E+02  0.79673574674E+02  0.41800000000E+01 0. -1.
         -5    1    4    4    0  501 -0.32579346219E+02  0.70275379719E+02 -0.39587567560E+02  0.87090129751E+02  0.41800000000E+01 0. -1.
</event>
<event>
11    1  0.1078607E-008  0.2358716E+03  0.7561462E-02  0.1031707E+00
         22   -1    0    0    0    0  0.00000000000E+00  0.00000000000E+00  0.15566096050E+04  0.15566096050E+04  0.00000000000E+00 0. -1.
         22   -1    0    0    0    0 -0.00000000000E+00 -0.00000000000E+00 -0.32518815972E+03  0.32518815972E+03  0.00000000000E+00 0.  1.
        -24    2    1    2    0    0 -0.77906062030E+01 -0.19610422246E+03 -0.23173340107E+03  0.31392813594E+03  0.79579807446E+02 0.  0.
         25    2    1    2    0    0 -0.61937880298E+02  0.23553564639E+03  0.32882031552E+03  0.42788261653E+03  0.12508953549E+03 0.  0.
         24    2    1    2    0    0  0.69728486501E+02 -0.39431423935E+02  0.11343345309E+04  0.11399870123E+04  0.80241269187E+02 0.  0.
        -11    1    5    5    0    0  0.22483772009E+02  0.24638021581E+02  0.29179409073E+03  0.29369430280E+03  0.00000000000E+00 0.  1.
         12    1    5    5    0    0  0.47244714492E+02 -0.64069445515E+02  0.84254044013E+03  0.84629270950E+03  0.00000000000E+00 0. -1.
         11    1    3    3    0    0  0.25615077004E+02 -0.27902119475E+02 -0.61940562035E+02  0.72603675295E+02  0.00000000000E+00 0. -1.
        -12    1    3    3    0    0 -0.33405683207E+02 -0.16820210298E+03 -0.16979283903E+03  0.24132446064E+03  0.00000000000E+00 0.  1.
          5    1    4    4  501    0 -0.52965975950E+02  0.70298303138E+02  0.19858863475E+03  0.21726059073E+03  0.41800000000E+01 0.  1.
         -5    1    4    4    0  501 -0.89719043486E+01  0.16523734326E+03  0.13023168077E+03  0.21062202580E+03  0.41800000000E+01 0.  1.
</event>
<event>
11    1  0.1078607E-008  0.1475901E+03  0.7561462E-02  0.1099367E+00
         22   -1    0    0    0    0  0.00000000000E+00  0.00000000000E+00  0.13407792074E+04  0.13407792074E+04  0.00000000000E+00 0. -1.
         22   -1    0    0    0    0 -0.00000000000E+00 -0.00000000000E+00 -0.34279487154E+03  0.34279487154E+03  0.00000000000E+00 0. -1.
        -24    2    1    2    0    0  0.10018916809E+02 -0.78724856145E+02 -0.30659191483E+03  0.32765758394E+03  0.84041111397E+02 0.  0.
         25    2    1    2    0    0  0.85872891106E+01  0.60145576314E+02  0.17655425706E+03  0.22474492785E+03  0.12509054731E+03 0.  0.
         24    2    1    2    0    0 -0.18606205920E+02  0.18579279831E+02  0.11280219937E+04  0.11311715672E+04  0.80150581158E+02 0.  0.
        -11    1    5    5    0    0  0.46180674638E+01 -0.26977079138E+02  0.21756856341E+03  0.21928330792E+03  0.00000000000E+00 0.  1.
         12    1    5    5    0    0 -0.23224273384E+02  0.45556358969E+02  0.91045343024E+03  0.91188825924E+03  0.00000000000E+00 0. -1.
         11    1    3    3    0    0  0.41213036218E+02 -0.13634621396E+02 -0.11556764088E+03  0.12345159729E+03  0.00000000000E+00 0. -1.
        -12    1    3    3    0    0 -0.31194119409E+02 -0.65090234748E+02 -0.19102427395E+03  0.20420598665E+03  0.00000000000E+00 0.  1.
          5    1    4    4  501    0  0.36720021907E+02  0.87082022042E+02  0.15028323690E+03  0.17757860869E+03  0.41800000000E+01 0.  1.
         -5    1    4    4    0  501 -0.28132732796E+02 -0.26936445729E+02  0.26271020159E+02  0.47166319162E+02  0.41800000000E+01 0.  1.
</event>
<event>
11    1  0.1078607E-008  0.1679658E+03  0.7561462E-02  0.1079816E+00
         22   -1    0    0    0    0  0.00000000000E+00  0.00000000000E+00  0.50016837139E+03  0.50016837139E+03  0.00000000000E+00 0.  1.
         22   -1    0    0    0    0 -0.00000000000E+00 -0.00000000000E+00 -0.59820119005E+03  0.59820119005E+03  0.00000000000E+00 0.  1.
         24    2    1    2    0    0 -0.88437495510E+02  0.63402088759E+02 -0.51913077176E+03  0.53953155391E+03  0.98775118327E+02 0.  0.
         25    2    1    2    0    0  0.14391576395E+03 -0.10068783650E+03  0.13783151577E+03  0.25591343479E+03  0.12507746334E+03 0.  0.
        -24    2    1    2    0    0 -0.55478268443E+02  0.37285747736E+02  0.28326643733E+03  0.30292457274E+03  0.83996172536E+02 0.  0.
        -13    1    3    3    0    0 -0.75162410559E+02  0.32968143241E+02 -0.48507092377E+03  0.49196553488E+03  0.00000000000E+00 0.  1.
         14    1    3    3    0    0 -0.13275084951E+02  0.30433945517E+02 -0.34059847993E+02  0.47566019021E+02  0.00000000000E+00 0. -1.
         11    1    5    5    0    0  0.18308796108E+02  0.63637455665E+00  0.20253244702E+02  0.27309538781E+02  0.00000000000E+00 0. -1.
        -12    1    5    5    0    0 -0.73787064552E+02  0.36649373179E+02  0.26301319262E+03  0.27561503396E+03  0.00000000000E+00 0.  1.
          5    1    4    4  501    0  0.70366097882E+02 -0.62489163032E+02  0.14468444241E+03  0.17264803359E+03  0.41800000000E+01 0. -1.
         -5    1    4    4    0  501  0.73549666072E+02 -0.38198673463E+02 -0.68529266380E+01  0.83265401200E+02  0.41800000000E+01 0. -1.
</event>
<event>
11    1  0.1078607E-008  0.5512026E+03  0.7561462E-02  0.9285865E-01
         22   -1    0    0    0    0  0.00000000000E+00  0.00000000000E+00  0.75000978127E+03  0.75000978127E+03  0.00000000000E+00 0. -1.
         22   -1    0    0    0    0 -0.00000000000E+00 -0.00000000000E+00 -0.53843374139E+03  0.53843374139E+03  0.00000000000E+00 0. -1.
         24    2    1    2    0    0  0.42761165945E+02 -0.65097961869E+02  0.32646237968E+01  0.11186756982E+03  0.80233617991E+02 0.  0.
         25    2    1    2    0    0  0.49932472813E+03  0.14151824045E+03 -0.10055195509E+03  0.54324090390E+03  0.12508951795E+03 0.  0.
        -24    2    1    2    0    0 -0.54208589407E+03 -0.76420278580E+02  0.30886337116E+03  0.63333504894E+03  0.77585608489E+02 0.  0.
        -11    1    3    3    0    0 -0.53225249555E+01  0.14386776752E+02 -0.95818294404E+01  0.18086461032E+02  0.00000000000E+00 0.  1.
         12    1    3    3    0    0  0.48083690901E+02 -0.79484738621E+02  0.12846453237E+02  0.93781108786E+02  0.00000000000E+00 0. -1.
         11    1    5    5    0    0 -0.18282404926E+03 -0.52930733609E+02  0.78310658152E+02  0.20581266902E+03  0.00000000000E+00 0. -1.
        -12    1    5    5    0    0 -0.35926184482E+03 -0.23489544971E+02  0.23055271301E+03  0.42752237993E+03  0.00000000000E+00 0.  1.
          5    1    4    4  501    0  0.32041834167E+03  0.12216221768E+03 -0.13274570980E+02  0.34319849613E+03  0.41800000000E+01 0.  1.
         -5    1    4    4    0  501  0.17890638645E+03  0.19356022767E+02 -0.87277384106E+02  0.20004240777E+03  0.41800000000E+01 0.  1.
</event>
<event>
11    1  0.1078607E-008  0.3471562E+03  0.7561462E-02  0.9819988E-01
         22   -1    0    0    0    0  0.00000000000E+00  0.00000000000E+00  0.15654924635E+04  0.15654924635E+04  0.00000000000E+00 0.  1.
         22   -1    0    0    0    0 -0.00000000000E+00 -0.00000000000E+00 -0.48153484599E+03  0.48153484599E+03  0.00000000000E+00 0. -1.
        -24    2    1    2    0    0  0.13138516212E+03 -0.27348262114E+03 -0.24686542291E+03  0.39909653421E+03  0.79250878242E+02 0.  0.
         25    2    1    2    0    0 -0.17618946817E+03  0.35861602297E+03  0.12667508193E+03  0.43742619837E+03  0.12508765732E+03 0.  0.
         24    2    1    2    0    0  0.44804306046E+02 -0.85133401835E+02  0.12041479585E+04  0.12105045769E+04  0.78063453811E+02 0.  0.
        -11    1    5    5    0    0  0.51404309179E+02 -0.80995749635E+02  0.11932983954E+04  0.11971481842E+04  0.00000000000E+00 0.  1.
         12    1    5    5    0    0 -0.66000031326E+01 -0.41376521997E+01  0.10849563126E+02  0.13356392742E+02  0.00000000000E+00 0. -1.
         11    1    3    3    0    0  0.67747165804E+01 -0.84292947372E+02 -0.90322657925E+02  0.12373108056E+03  0.00000000000E+00 0. -1.
        -12    1    3    3    0    0  0.12461044554E+03 -0.18918967377E+03 -0.15654276499E+03  0.27536545366E+03  0.00000000000E+00 0.  1.
          5    1    4    4  501    0  0.11503202221E+02  0.75754520939E+02  0.42218835307E+02  0.87584094210E+02  0.41800000000E+01 0.  1.
         -5    1    4    4    0  501 -0.18769267039E+03  0.28286150203E+03  0.84456246627E+02  0.34984210416E+03  0.41800000000E+01 0.  1.
</event>
<event>
11    1  0.1078607E-008  0.1767986E+03  0.7561462E-02  0.1072262E+00
         22   -1    0    0    0    0  0.00000000000E+00  0.00000000000E+00  0.19540763982E+04  0.19540763982E+04  0.00000000000E+00 0. -1.
         22   -1    0    0    0    0 -0.00000000000E+00 -0.00000000000E+00 -0.84056895603E+03  0.84056895603E+03  0.00000000000E+00 0. -1.
         24    2    1    2    0    0  0.41132111178E+02  0.11827941985E+03 -0.81746167427E+03  0.83088048506E+03  0.80230417084E+02 0.  0.
         25    2    1    2    0    0 -0.13891803091E+02 -0.10731849874E+03  0.43327800085E+03  0.46377471531E+03  0.12508764197E+03 0.  0.
        -24    2    1    2    0    0 -0.27240308087E+02 -0.10960921110E+02  0.14976911156E+04  0.14999901539E+04  0.77650549312E+02 0.  0.
        -13    1    3    3    0    0  0.37126515940E+01 -0.76048558690E+01 -0.11439647964E+02  0.14229657768E+02  0.00000000000E+00 0.  1.
         14    1    3    3    0    0  0.37419459584E+02  0.12588427572E+03 -0.80602202630E+03  0.81665082729E+03  0.00000000000E+00 0. -1.
         11    1    5    5    0    0 -0.23803242417E+01  0.22692067337E+01  0.13260567235E+04  0.13260608014E+04  0.00000000000E+00 0. -1.
        -12    1    5    5    0    0 -0.24859983845E+02 -0.13230127844E+02  0.17163439215E+03  0.17392935246E+03  0.00000000000E+00 0.  1.
          5    1    4    4  501    0 -0.25353377127E+02 -0.36903025538E+02  0.35478074475E+03  0.35761917772E+03  0.41800000000E+01 0. -1.
         -5    1    4    4    0  501  0.11461574036E+02 -0.70415473202E+02  0.78497256097E+02  0.10615553759E+03  0.41800000000E+01 0. -1.
</event>
<event>
11    1  0.1078607E-008  0.1550528E+03  0.7561462E-02  0.1091825E+00
         22   -1    0    0    0    0  0.00000000000E+00  0.00000000000E+00  0.27291375515E+04  0.27291375515E+04  0.00000000000E+00 0. -1.
         22   -1    0    0    0    0 -0.00000000000E+00 -0.00000000000E+00 -0.25376954986E+02  0.25376954986E+02  0.00000000000E+00 0.  1.
        -24    2    1    2    0    0 -0.24905607049E+02  0.94633124079E+02  0.23622451067E+03  0.26838047448E+03  0.81549630316E+02 0.  0.
         25    2    1    2    0    0 -0.63984194783E+02 -0.79376266603E+02  0.93607892677E+03  0.94988719652E+03  0.12508940835E+03 0.  0.
         24    2    1    2    0    0  0.88889801832E+02 -0.15256857476E+02  0.15314571590E+04  0.15362468355E+04  0.80988523304E+02 0.  0.
        -13    1    5    5    0    0  0.12364121021E+01 -0.31227370972E+02  0.48355911844E+03  0.48456795028E+03  0.00000000000E+00 0.  1.
         14    1    5    5    0    0  0.87653389730E+02  0.15970513496E+02  0.10478980406E+04  0.10516788852E+04  0.00000000000E+00 0. -1.
         11    1    3    3    0    0 -0.13571132198E+02  0.10783445221E+02 -0.13320586816E+00  0.17334245405E+02  0.00000000000E+00 0. -1.
        -12    1    3    3    0    0 -0.11334474851E+02  0.83849678858E+02  0.23635771654E+03  0.25104622908E+03  0.00000000000E+00 0.  1.
          5    1    4    4  501    0 -0.44826775756E+02  0.11184476858E+02  0.12149404769E+03  0.13004925363E+03  0.41800000000E+01 0.  1.
         -5    1    4    4    0  501 -0.19157419027E+02 -0.90560743460E+02  0.81458487908E+03  0.81983794288E+03  0.41800000000E+01 0.  1.
</event>
<event>
11    1  0.1078607E-008  0.1975978E+03  0.7561462E-02  0.1056235E+00
         22   -1    0    0    0    0  0.00000000000E+00  0.00000000000E+00  0.34094347947E+03  0.34094347947E+03  0.00000000000E+00 0. -1.
         22   -1    0    0    0    0 -0.00000000000E+00 -0.00000000000E+00 -0.53969600394E+03  0.53969600394E+03  0.00000000000E+00 0. -1.
        -24    2    1    2    0    0 -0.24352852151E+02  0.16001207295E+03 -0.37845095037E+03  0.41927905059E+03  0.79830292039E+02 0.  0.
         25    2    1    2    0    0  0.78186809057E+02 -0.11035542434E+03 -0.58982469946E+02  0.19343773268E+03  0.12509087844E+03 0.  0.
         24    2    1    2    0    0 -0.53833956905E+02 -0.49656648606E+02  0.23868089584E+03  0.26792270015E+03  0.97211756212E+02 0.  0.
        -13    1    5    5    0    0 -0.18739062230E+02 -0.58732782045E+02  0.61530828445E+02  0.87101865589E+02  0.00000000000E+00 0.  1.
         14    1    5    5    0    0 -0.35094894676E+02  0.90761334386E+01  0.17715006740E+03  0.18082083456E+03  0.00000000000E+00 0. -1.
         13    1    3    3    0    0 -0.40783638718E+02  0.15605881848E+03 -0.31883665140E+03  0.35731564518E+03  0.00000000000E+00 0. -1.
        -14    1    3    3    0    0  0.16430786566E+02  0.39532544669E+01 -0.59614298971E+02  0.61963405409E+02  0.00000000000E+00 0.  1.
          5    1    4    4  501    0  0.35914316914E+02 -0.96733992628E+02  0.17649107996E+02  0.10476768062E+03  0.41800000000E+01 0.  1.
         -5    1    4    4    0  501  0.42272492143E+02 -0.13621431713E+02 -0.76631577942E+02  0.88670052057E+02  0.41800000000E+01 0.  1.
</event>
<event>
11    1  0.1078607E-008  0.1366461E+03  0.7561462E-02  0.1111362E+00
         22   -1    0    0    0    0  0.00000000000E+00  0.00000000000E+00  0.18229627309E+04  0.18229627309E+04  0.00000000000E+00 0. -1.
         22   -1    0    0    0    0 -0.00000000000E+00 -0.00000000000E+00 -0.53908413858E+03  0.53908413858E+03  0.00000000000E+00 0.  1.
        -24    2    1    2    0    0 -0.25272915291E+02 -0.48605975498E+02 -0.52601423179E+03  0.53633281101E+03  0.89222480467E+02 0.  0.
         25    2    1    2    0    0  0.49889688347E+02  0.84503382844E+02  0.10375881928E+04  0.10496983519E+04  0.12509024509E+03 0.  0.
         24    2    1    2    0    0 -0.24616773056E+02 -0.35897407345E+02  0.77230463125E+03  0.77601570653E+03  0.62059036083E+02 0.  0.
        -11    1    5    5    0    0  0.16672905197E+01  0.11327259337E+02  0.36022984170E+03  0.36041174441E+03  0.00000000000E+00 0.  1.
         12    1    5    5    0    0 -0.26284063576E+02 -0.47224666682E+02  0.41207478955E+03  0.41560396211E+03  0.00000000000E+00 0. -1.
         11    1    3    3    0    0  0.20308936618E+02  0.15123074256E+02 -0.16338103370E+03  0.16533155311E+03  0.00000000000E+00 0. -1.
        -12    1    3    3    0    0 -0.45581851910E+02 -0.63729049755E+02 -0.36263319808E+03  0.37100125789E+03  0.00000000000E+00 0.  1.
          5    1    4    4  501    0  0.82088302374E+02  0.36343694071E+02  0.80356820674E+03  0.80857818965E+03  0.41800000000E+01 0. -1.
         -5    1    4    4    0  501 -0.32198614027E+02  0.48159688773E+02  0.23401998608E+03  0.24112016227E+03  0.41800000000E+01 0. -1.
</event>
<event>
11    1  0.1078607E-008  0.1480962E+03  0.7561462E-02  0.1098840E+00
         22   -1    0    0    0    0  0.00000000000E+00  0.00000000000E+00  0.10046616001E+03  0.10046616001E+03  0.00000000000E+00 0.  1.
         22   -1    0    0    0    0 -0.00000000000E+00 -0.00000000000E+00 -0.67117919934E+03  0.67117919934E+03  0.00000000000E+00 0.  1.
         24    2    1    2    0    0  0.44513928186E+02  0.70373520185E+02 -0.43605030421E+03  0.45101482071E+03  0.79627749909E+02 0.  0.
         25    2    1    2    0    0  0.32281224986E+02 -0.85372410301E+02 -0.14003386222E+03  0.20877682167E+03  0.12509097798E+03 0.  0.
        -24    2    1    2    0    0 -0.76795153172E+02  0.14998890116E+02  0.53711270991E+01  0.11185371696E+03  0.79749249128E+02 0.  0.
        -11    1    3    3    0    0  0.21481462254E+01  0.24047410987E+02 -0.30232282252E+03  0.30328531373E+03  0.00000000000E+00 0.  1.
         12    1    3    3    0    0  0.42365781961E+02  0.46326109198E+02 -0.13372748169E+03  0.14772950698E+03  0.00000000000E+00 0. -1.
         13    1    5    5    0    0 -0.52578458750E+02 -0.28277171419E+02  0.14485162641E+02  0.61432179554E+02  0.00000000000E+00 0. -1.
        -14    1    5    5    0    0 -0.24216694422E+02  0.43276061535E+02 -0.91140355416E+01  0.50421537408E+02  0.00000000000E+00 0.  1.
          5    1    4    4  501    0  0.36992181157E+02 -0.47326851481E+02  0.33407462142E+01  0.60306594359E+02  0.41800000000E+01 0. -1.
         -5    1    4    4    0  501 -0.47109561711E+01 -0.38045558820E+02 -0.14337460843E+03  0.14847022731E+03  0.41800000000E+01 0. -1.
</event>
<event>
11    1  0.1078607E-008  0.1550740E+03  0.7561462E-02  0.1091804E+00
         22   -1    0    0    0    0  0.00000000000E+00  0.00000000000E+00  0.73126091026E+03  0.73126091026E+03  0.00000000000E+00 0. -1.
         22   -1    0    0    0    0 -0.00000000000E+00 -0.00000000000E+00 -0.11158895620E+03  0.11158895620E+03  0.00000000000E+00 0. -1.
         24    2    1    2    0    0 -0.36364603471E+02 -0.29699812429E+02 -0.54231796525E+02  0.10831799434E+03  0.81161794577E+02 0.  0.
         25    2    1    2    0    0  0.11636521478E+03  0.98437655765E+01  0.32512911523E+03  0.36741701659E+03  0.12509420279E+03 0.  0.
        -24    2    1    2    0    0 -0.80000611313E+02  0.19856046853E+02  0.34877463535E+03  0.36711485553E+03  0.79594035482E+02 0.  0.
        -11    1    3    3    0    0 -0.61683664357E+02 -0.16728943195E+02 -0.45861788800E+02  0.78664068423E+02  0.00000000000E+00 0.  1.
         12    1    3    3    0    0  0.25319060886E+02 -0.12970869234E+02 -0.83700077245E+01  0.29653925914E+02  0.00000000000E+00 0. -1.
         13    1    5    5    0    0 -0.82139762039E+02  0.27888099580E+02  0.34813370355E+03  0.35877815172E+03  0.00000000000E+00 0. -1.
        -14    1    5    5    0    0  0.21391507264E+01 -0.80320527268E+01  0.64093179619E+00  0.83367038093E+01  0.00000000000E+00 0.  1.
          5    1    4    4  501    0  0.29894262110E+02 -0.46225327487E+02  0.53555376978E+02  0.76916179128E+02  0.41800000000E+01 0. -1.
         -5    1    4    4    0  501  0.86470952675E+02  0.56069093064E+02  0.27157373826E+03  0.29050083746E+03  0.41800000000E+01 0. -1.
</event>
<event>
11    1  0.1078607E-008  0.1411418E+03  0.7561462E-02  0.1106290E+00
         22   -1    0    0    0    0  0.00000000000E+00  0.00000000000E+00  0.10136990962E+04  0.10136990962E+04  0.00000000000E+00 0.  1.
         22   -1    0    0    0    0 -0.00000000000E+00 -0.00000000000E+00 -0.17424585644E+04  0.17424585644E+04  0.00000000000E+00 0. -1.
         24    2    1    2    0    0  0.44797554494E+02  0.46932800439E+02 -0.16653434222E+04  0.16686364334E+04  0.82275904061E+02 0.  0.
         25    2    1    2    0    0 -0.70565593533E+02 -0.56572526342E+02  0.74026481495E+01  0.15453770214E+03  0.12508856245E+03 0.  0.
        -24    2    1    2    0    0  0.25768039039E+02  0.96397259033E+01  0.92918130579E+03  0.93298352504E+03  0.79520078088E+02 0.  0.
        -11    1    3    3    0    0  0.17497260279E+02 -0.23463401951E+02 -0.45710558521E+03  0.45804170266E+03  0.00000000000E+00 0.  1.
         12    1    3    3    0    0  0.27300294215E+02  0.70396202389E+02 -0.12082378370E+04  0.12105947307E+04  0.00000000000E+00 0. -1.
         13    1    5    5    0    0 -0.76228422450E+01 -0.10180707573E+02  0.25764733353E+02  0.28732838623E+02  0.00000000000E+00 0. -1.
        -14    1    5    5    0    0  0.33390881284E+02  0.19820433476E+02  0.90341657243E+03  0.90425068642E+03  0.00000000000E+00 0.  1.
          5    1    4    4  501    0 -0.66755891951E+01 -0.62001267946E+02  0.47760068783E+02  0.78658866558E+02  0.41800000000E+01 0. -1.
         -5    1    4    4    0  501 -0.63890004338E+02  0.54287416042E+01 -0.40357420633E+02  0.75878835586E+02  0.41800000000E+01 0. -1.
</event>
<event>
11    1  0.1078607E-008  0.1420164E+03  0.7561462E-02  0.1105327E+00
         22   -1    0    0    0    0  0.00000000000E+00  0.00000000000E+00  0.39670591206E+03  0.39670591206E+03  0.00000000000E+00 0. -1.
         22   -1    0    0    0    0 -0.00000000000E+00 -0.00000000000E+00 -0.12881937413E+04  0.12881937413E+04  0.00000000000E+00 0. -1.
         24    2    1    2    0    0 -0.44457591033E+02  0.57865595354E+02 -0.96665584410E+03  0.97283788152E+03  0.81640175524E+02 0.  0.
         25    2    1    2    0    0  0.24810441463E+02 -0.33261133214E+02 -0.29976062684E+03  0.32745599826E+03  0.12509650838E+03 0.  0.
        -24    2    1    2    0    0  0.19647149570E+02 -0.24604462140E+02  0.37492864171E+03  0.38460577356E+03  0.79741611687E+02 0.  0.
        -13    1    3    3    0    0  0.13641620968E+02  0.80323027856E+01 -0.39889860870E+02  0.42916345498E+02  0.00000000000E+00 0.  1.
         14    1    3    3    0    0 -0.58099212002E+02  0.49833292569E+02 -0.92676598323E+03  0.92992153602E+03  0.00000000000E+00 0. -1.
         13    1    5    5    0    0  0.12978905627E+02  0.16331629179E+02  0.28283726118E+03  0.28360551901E+03  0.00000000000E+00 0. -1.
        -14    1    5    5    0    0  0.66682439434E+01 -0.40936091319E+02  0.92091380533E+02  0.10100025455E+03  0.00000000000E+00 0.  1.
          5    1    4    4  501    0  0.43157475644E+02 -0.13318584791E+02 -0.25912609993E+02  0.52238761101E+02  0.41800000000E+01 0.  1.
         -5    1    4    4    0  501 -0.18347034180E+02 -0.19942548423E+02 -0.27384801685E+03  0.27521723716E+03  0.41800000000E+01 0.  1.
</event>
<event>
11    1  0.1078607E-008  0.2999460E+03  0.7561462E-02  0.1000214E+00
         22   -1    0    0    0    0  0.00000000000E+00  0.00000000000E+00  0.16603822022E+04  0.16603822022E+04  0.00000000000E+00 0. -1.
         22   -1    0    0    0    0 -0.00000000000E+00 -0.00000000000E+00 -0.25604064779E+03  0.25604064779E+03  0.00000000000E+00 0.  1.
         24    2    1    2    0    0 -0.20116651796E+03 -0.18597062825E+03 -0.13535009605E+03  0.31581497298E+03  0.79789762109E+02 0.  0.
         25    2    1    2    0    0  0.19183922897E+03  0.17792239719E+03  0.70925909112E+03  0.76626043311E+03  0.12509166165E+03 0.  0.
        -24    2    1    2    0    0  0.93272889960E+01  0.80482310606E+01  0.83043255929E+03  0.83434744387E+03  0.79785018701E+02 0.  0.
        -13    1    3    3    0    0 -0.97645236066E+02 -0.10316447439E+03 -0.11270808025E+03  0.18133011955E+03  0.00000000000E+00 0.  1.
         14    1    3    3    0    0 -0.10352128190E+03 -0.82806153860E+02 -0.22642015798E+02  0.13448485343E+03  0.00000000000E+00 0. -1.
         13    1    5    5    0    0 -0.19164273278E+02 -0.17994680530E+02  0.60960708988E+03  0.61017364899E+03  0.00000000000E+00 0. -1.
        -14    1    5    5    0    0  0.28491562274E+02  0.26042911591E+02  0.22082546942E+03  0.22417379487E+03  0.00000000000E+00 0.  1.
          5    1    4    4  501    0  0.18229443396E+03  0.14460371026E+03  0.68577468039E+03  0.72418635608E+03  0.41800000000E+01 0. -1.
         -5    1    4    4    0  501  0.95447950115E+01  0.33318686924E+02  0.23484410737E+02  0.42074077029E+02  0.41800000000E+01 0. -1.
</event>
<event>
11    1  0.1078607E-008  0.1548444E+03  0.7561462E-02  0.1092029E+00
         22   -1    0    0    0    0  0.00000000000E+00  0.00000000000E+00  0.99997255025E+03  0.99997255025E+03  0.00000000000E+00 0.  1.
         22   -1    0    0    0    0 -0.00000000000E+00 -0.00000000000E+00 -0.99181549215E+03  0.99181549215E+03  0.00000000000E+00 0. -1.
        -24    2    1    2    0    0 -0.41431963590E+02  0.40152370639E+01 -0.87923880914E+03  0.88389224969E+03  0.80448094042E+02 0.  0.
         25    2    1    2    0    0  0.97876907422E+02  0.66662468592E+02 -0.36542538757E+02  0.17608408252E+03  0.12508586353E+03 0.  0.
         24    2    1    2    0    0 -0.56444943832E+02 -0.70677705656E+02  0.92393840600E+03  0.93181171018E+03  0.80184258982E+02 0.  0.
        -13    1    5    5    0    0 -0.66569462288E+02 -0.56595760552E+02  0.50418862528E+03  0.51170376516E+03  0.00000000000E+00 0.  1.
         14    1    5    5    0    0  0.10124518456E+02 -0.14081945104E+02  0.41974978072E+03  0.42010794502E+03  0.00000000000E+00 0. -1.
         13    1    3    3    0    0 -0.51862785139E+02 -0.21092071715E+02 -0.40205368279E+03  0.40593323073E+03  0.00000000000E+00 0. -1.
        -14    1    3    3    0    0  0.10430821549E+02  0.25107308779E+02 -0.47718512635E+03  0.47795901896E+03  0.00000000000E+00 0.  1.
          5    1    4    4  501    0 -0.25035675179E+02  0.24190412305E+02 -0.29432781307E+02  0.45779057380E+02  0.41800000000E+01 0. -1.
         -5    1    4    4    0  501  0.12291258260E+03  0.42472056287E+02 -0.71097574493E+01  0.13030502514E+03  0.41800000000E+01 0. -1.
</event>
<event>
11    1  0.1078607E-008  0.1433317E+03  0.7561462E-02  0.1103894E+00
         22   -1    0    0    0    0  0.00000000000E+00  0.00000000000E+00  0.15998194641E+04  0.15998194641E+04  0.00000000000E+00 0. -1.
         22   -1    0    0    0    0 -0.00000000000E+00 -0.00000000000E+00 -0.47000600829E+03  0.47000600829E+03  0.00000000000E+00 0. -1.
         24    2    1    2    0    0  0.64441760274E+02 -0.25636066973E+02 -0.44687550509E+03  0.46007182059E+03  0.84607414867E+02 0.  0.
         25    2    1    2    0    0 -0.10598072035E+03  0.82390886505E+02  0.60583033020E+03  0.63300628069E+03  0.12508553528E+03 0.  0.
        -24    2    1    2    0    0  0.41538960075E+02 -0.56754819532E+02  0.97085863074E+03  0.97674737115E+03  0.80761076190E+02 0.  0.
        -11    1    3    3    0    0  0.14289376303E+01 -0.30931778020E+02 -0.54916674345E+02  0.63044887781E+02  0.00000000000E+00 0.  1.
         12    1    3    3    0    0  0.63012822644E+02  0.52957110471E+01 -0.39195883075E+03  0.39702693281E+03  0.00000000000E+00 0. -1.
         13    1    5    5    0    0  0.40612438894E+02 -0.72496346698E+02  0.62118298992E+03  0.62671636123E+03  0.00000000000E+00 0. -1.
        -14    1    5    5    0    0  0.92652118087E+00  0.15741527167E+02  0.34967564083E+03  0.35003100992E+03  0.00000000000E+00 0.  1.
          5    1    4    4  501    0 -0.42801176089E+02 -0.13302074386E+02  0.58699943198E+02  0.73973249144E+02  0.41800000000E+01 0.  1.
         -5    1    4    4    0  501 -0.63179544261E+02  0.95692960891E+02  0.54713038700E+03  0.55903303155E+03  0.41800000000E+01 0.  1.
</event>
<event>
11    1  0.1078607E-008  0.1736473E+03  0.7561462E-02  0.1074901E+00
         22   -1    0    0    0    0  0.00000000000E+00  0.00000000000E+00  0.14748551942E+04  0.14748551942E+04  0.00000000000E+00 0. -1.
         22   -1    0    0    0    0 -0.00000000000E+00 -0.00000000000E+00 -0.91883307189E+02  0.91883307189E+02  0.00000000000E+00 0.  1.
        -24    2    1    2    0    0  0.35407502045E+02  0.21813236509E+02 -0.43005651219E+02  0.98802567045E+02  0.78631753954E+02 0.  0.
         25    2    1    2    0    0 -0.11323296343E+03  0.66988607801E+02  0.52140750192E+03  0.55210681832E+03  0.12508788188E+03 0.  0.
         24    2    1    2    0    0  0.77825461380E+02 -0.88801844311E+02  0.90457003632E+03  0.91582911603E+03  0.80953376586E+02 0.  0.
        -13    1    5    5    0    0  0.76166591015E+02 -0.52503122476E+02  0.42838863418E+03  0.43826333334E+03  0.00000000000E+00 0.  1.
         14    1    5    5    0    0  0.16588703647E+01 -0.36298721834E+02  0.47618140214E+03  0.47756578269E+03  0.00000000000E+00 0. -1.
         13    1    3    3    0    0  0.21023467356E+02 -0.17584472493E+02  0.11757712291E+02  0.29823541889E+02  0.00000000000E+00 0. -1.
        -14    1    3    3    0    0  0.14384034689E+02  0.39397709002E+02 -0.54763363509E+02  0.68979025156E+02  0.00000000000E+00 0.  1.
          5    1    4    4  501    0 -0.71239843216E+02  0.98939681054E+02  0.42455873127E+03  0.44173721198E+03  0.41800000000E+01 0. -1.
         -5    1    4    4    0  501 -0.41993120209E+02 -0.31951073252E+02  0.96848770647E+02  0.11036960634E+03  0.41800000000E+01 0. -1.
</event>
<event>
11    1  0.1078607E-008  0.1527160E+03  0.7561462E-02  0.1094135E+00
         22   -1    0    0    0    0  0.00000000000E+00  0.00000000000E+00  0.17331839695E+03  0.17331839695E+03  0.00000000000E+00 0.  1.
         22   -1    0    0    0    0 -0.00000000000E+00 -0.00000000000E+00 -0.81012963036E+03  0.81012963036E+03  0.00000000000E+00 0.  1.
         24    2    1    2    0    0 -0.36746747405E+02  0.26432060581E+02 -0.57353226826E+03  0.58089074726E+03  0.80285865788E+02 0.  0.
         25    2    1    2    0    0 -0.18046886860E+02 -0.94930983828E+02 -0.17834035936E+03  0.23830777511E+03  0.12509088730E+03 0.  0.
        -24    2    1    2    0    0  0.54793634265E+02  0.68498923246E+02  0.11506139421E+03  0.16424950495E+03  0.77745293075E+02 0.  0.
        -11    1    3    3    0    0 -0.11872435918E+02  0.20250637051E+02 -0.52891380637E+03  0.52943446961E+03  0.00000000000E+00 0.  1.
         12    1    3    3    0    0 -0.24874311487E+02  0.61814235305E+01 -0.44618461889E+02  0.51456277655E+02  0.00000000000E+00 0. -1.
         11    1    5    5    0    0  0.34955950381E+01 -0.17069472146E+02  0.15993069364E+02  0.23650884374E+02  0.00000000000E+00 0. -1.
        -12    1    5    5    0    0  0.51298039227E+02  0.85568395393E+02  0.99068324848E+02  0.14059862057E+03  0.00000000000E+00 0.  1.
          5    1    4    4  501    0  0.81399964487E+01 -0.98938621646E+02 -0.18560005833E+03  0.21052307343E+03  0.41800000000E+01 0.  1.
         -5    1    4    4    0  501 -0.26186883309E+02  0.40076378178E+01  0.72596989680E+01  0.27784701679E+02  0.41800000000E+01 0.  1.
</event>
<event>
11    1  0.1078607E-008  0.1281772E+03  0.7561462E-02  0.1121529E+00
         22   -1    0    0    0    0  0.00000000000E+00  0.00000000000E+00  0.90295628473E+03  0.90295628473E+03  0.00000000000E+00 0. -1.
         22   -1    0    0    0    0 -0.00000000000E+00 -0.00000000000E+00 -0.56827182620E+02  0.56827182620E+02  0.00000000000E+00 0.  1.
         24    2    1    2    0    0  0.79478077460E+01  0.31425295773E+02  0.13066822524E+02  0.87973800133E+02  0.80733702978E+02 0.  0.
         25    2    1    2    0    0 -0.18884219328E+02 -0.10436843470E+01  0.22515255305E+03  0.25826139016E+03  0.12509024935E+03 0.  0.
        -24    2    1    2    0    0  0.10936411582E+02 -0.30381611426E+02  0.60790972653E+03  0.61354827705E+03  0.76450018029E+02 0.  0.
        -13    1    3    3    0    0  0.37632711822E+02 -0.66586711607E+01  0.10432181256E+02  0.39615518505E+02  0.00000000000E+00 0.  1.
         14    1    3    3    0    0 -0.29684904076E+02  0.38083966933E+02  0.26346412680E+01  0.48358281627E+02  0.00000000000E+00 0. -1.
         11    1    5    5    0    0  0.61205058391E+01 -0.42188613384E+02  0.59013487503E+03  0.59167263789E+03  0.00000000000E+00 0. -1.
        -12    1    5    5    0    0  0.48159057424E+01  0.11807001959E+02  0.17774851496E+02  0.21875639169E+02  0.00000000000E+00 0.  1.
          5    1    4    4  501    0 -0.35244460134E+02  0.15498199817E+02  0.23074355768E+03  0.23397099816E+03  0.41800000000E+01 0.  1.
         -5    1    4    4    0  501  0.16360240807E+02 -0.16541884164E+02 -0.55910046252E+01  0.24290392003E+02  0.41800000000E+01 0.  1.
</event>
<event>
11    1  0.1078607E-008  0.1571404E+03  0.7561462E-02  0.1089798E+00
         22   -1    0    0    0    0  0.00000000000E+00  0.00000000000E+00  0.86200149967E+03  0.86200149967E+03  0.00000000000E+00 0.  1.
         22   -1    0    0    0    0 -0.00000000000E+00 -0.00000000000E+00 -0.19131608925E+03  0.19131608925E+03  0.00000000000E+00 0.  1.
         24    2    1    2    0    0 -0.14154217241E+02  0.39831712328E+02 -0.14016772618E+03  0.16673393649E+03  0.79789140504E+02 0.  0.
         25    2    1    2    0    0  0.58405105610E+02 -0.11632445341E+03  0.22500512830E+03  0.28847422165E+03  0.12509010341E+03 0.  0.
        -24    2    1    2    0    0 -0.44250888369E+02  0.76492741087E+02  0.58584800830E+03  0.59810943077E+03  0.81900682440E+02 0.  0.
        -11    1    3    3    0    0  0.11020331584E+02  0.33735112009E+02 -0.13593095929E+03  0.14048747697E+03  0.00000000000E+00 0.  1.
         12    1    3    3    0    0 -0.25174548825E+02  0.60966003187E+01 -0.42367668919E+01  0.26246459526E+02  0.00000000000E+00 0. -1.
         11    1    5    5    0    0  0.18278074572E+02 -0.19182099174E+01  0.13473825940E+03  0.13598590400E+03  0.00000000000E+00 0. -1.
        -12    1    5    5    0    0 -0.62528962942E+02  0.78410951004E+02  0.45110974890E+03  0.46212352677E+03  0.00000000000E+00 0.  1.
          5    1    4    4  501    0 -0.31147828624E+02 -0.30119223110E+02  0.18264235233E+02  0.47206032637E+02  0.41800000000E+01 0. -1.
         -5    1    4    4    0  501  0.89552934234E+02 -0.86205230305E+02  0.20674089307E+03  0.24126818901E+03  0.41800000000E+01 0. -1.
</event>
<event>
11    1  0.1078607E-008  0.1493245E+03  0.7561462E-02  0.1097571E+00
         22   -1    0    0    0    0  0.00000000000E+00  0.00000000000E+00  0.56928231404E+03  0.56928231404E+03  0.00000000000E+00 0. -1.
         22   -1    0    0    0    0 -0.00000000000E+00 -0.00000000000E+00 -0.28355358450E+03  0.28355358450E+03  0.00000000000E+00 0. -1.
         24    2    1    2    0    0 -0.20917842532E+02 -0.77345117979E+02 -0.20414359631E+03  0.23354472313E+03  0.80303837868E+02 0.  0.
         25    2    1    2    0    0  0.58759628403E+02  0.78558910499E+02  0.50736797349E+02  0.16686914926E+03  0.12508754542E+03 0.  0.
        -24    2    1    2    0    0 -0.37841785871E+02 -0.12137925205E+01  0.43913552850E+03  0.45242202615E+03  0.10204020433E+03 0.  0.
        -13    1    3    3    0    0  0.20139409317E+02 -0.66099346292E+02 -0.14555184743E+03  0.16112125769E+03  0.00000000000E+00 0.  1.
         14    1    3    3    0    0 -0.41057251849E+02 -0.11245771687E+02 -0.58591748876E+02  0.72423465442E+02  0.00000000000E+00 0. -1.
         11    1    5    5    0    0 -0.37838131067E+02 -0.38820933079E+02  0.36786565410E+03  0.37183857852E+03  0.00000000000E+00 0. -1.
        -12    1    5    5    0    0 -0.36548039792E-02  0.37607140558E+02  0.71269874402E+02  0.80583447628E+02  0.00000000000E+00 0.  1.
          5    1    4    4  501    0 -0.28912676249E+02  0.45658819832E+02  0.49073904778E+02  0.73119020825E+02  0.41800000000E+01 0.  1.
         -5    1    4    4    0  501  0.87672304652E+02  0.32900090668E+02  0.16628925715E+01  0.93750128431E+02  0.41800000000E+01 0.  1.
</event>
<event>
11    1  0.1078607E-008  0.3613338E+03  0.7561462E-02  0.9771281E-01
         22   -1    0    0    0    0  0.00000000000E+00  0.00000000000E+00  0.29997819561E+04  0.29997819561E+04  0.00000000000E+00 0. -1.
         22   -1    0    0    0    0 -0.00000000000E+00 -0.00000000000E+00 -0.28037324840E+03  0.28037324840E+03  0.00000000000E+00 0. -1.
         24    2    1    2    0    0  0.14083814974E+03  0.21000181831E+03  0.58554977171E-01  0.26550949751E+03  0.80988528350E+02 0.  0.
         25    2    1    2    0    0 -0.39121546594E+03 -0.40818335483E+03  0.48248454257E+03  0.75372567644E+03  0.12509144479E+03 0.  0.
        -24    2    1    2    0    0  0.25037731620E+03  0.19818153652E+03  0.22368656101E+04  0.22609200305E+04  0.78910739105E+02 0.  0.
        -11    1    3    3    0    0  0.24163428037E+02 -0.50970007913E+00  0.54123472698E+01  0.24767409062E+02  0.00000000000E+00 0.  1.
         12    1    3    3    0    0  0.11667472170E+03  0.21051151839E+03 -0.53537922926E+01  0.24074208845E+03  0.00000000000E+00 0. -1.
         11    1    5    5    0    0  0.96283139973E+02  0.12541531897E+03  0.10208480403E+04  0.10330199256E+04  0.00000000000E+00 0. -1.
        -12    1    5    5    0    0  0.15409417622E+03  0.72766217552E+02  0.12160175698E+04  0.12279001049E+04  0.00000000000E+00 0.  1.
          5    1    4    4  501    0 -0.59197486376E+02 -0.77350915555E+02  0.15058663696E+03  0.17939151084E+03  0.41800000000E+01 0. -1.
         -5    1    4    4    0  501 -0.33201797956E+03 -0.33083243928E+03  0.33189790561E+03  0.57433416560E+03  0.41800000000E+01 0. -1.
</event>
<event>
11    1  0.1078607E-008  0.1363968E+03  0.7561462E-02  0.1111650E+00
         22   -1    0    0    0    0  0.00000000000E+00  0.00000000000E+00  0.10570538416E+04  0.10570538416E+04  0.00000000000E+00 0.  1.
         22   -1    0    0    0    0 -0.00000000000E+00 -0.00000000000E+00 -0.39748457296E+03  0.39748457296E+03  0.00000000000E+00 0.  1.
         24    2    1    2    0    0  0.19850885660E+02 -0.50953907979E+02 -0.37747605180E+03  0.38986654078E+03  0.80730363136E+02 0.  0.
         25    2    1    2    0    0 -0.65050235860E+01  0.32260814236E+02  0.37403763408E+03  0.39577693184E+03  0.12510856325E+03 0.  0.
        -24    2    1    2    0    0 -0.13345862074E+02  0.18693093743E+02  0.66300768632E+03  0.66889494190E+03  0.85520216299E+02 0.  0.
        -13    1    3    3    0    0  0.26766505104E+02 -0.54650057287E+02 -0.37714009217E+03  0.38201796251E+03  0.00000000000E+00 0.  1.
         14    1    3    3    0    0 -0.69156194435E+01  0.36961493078E+01 -0.33595963585E+00  0.78485782706E+01  0.00000000000E+00 0. -1.
         13    1    5    5    0    0 -0.37628439694E+02  0.39063467503E+02  0.33536208589E+03  0.33971985903E+03  0.00000000000E+00 0. -1.
        -14    1    5    5    0    0  0.24282577620E+02 -0.20370373760E+02  0.32764560043E+03  0.32917508287E+03  0.00000000000E+00 0.  1.
          5    1    4    4  501    0  0.18894675883E+02  0.73664314114E+02  0.27555936987E+03  0.28589137566E+03  0.41800000000E+01 0.  1.
         -5    1    4    4    0  501 -0.25399699469E+02 -0.41403499878E+02  0.98478264211E+02  0.10988555618E+03  0.41800000000E+01 0.  1.
</event>
<event>
11    1  0.1078607E-008  0.1545888E+03  0.7561462E-02  0.1092280E+00
         22   -1    0    0    0    0  0.00000000000E+00  0.00000000000E+00  0.18017538317E+04  0.18017538317E+04  0.00000000000E+00 0. -1.
         22   -1    0    0    0    0 -0.00000000000E+00 -0.00000000000E+00 -0.50793194882E+03  0.50793194882E+03  0.00000000000E+00 0. -1.
         24    2    1    2    0    0 -0.50647862482E+01  0.56231272871E+02 -0.34977595255E+03  0.36371444816E+03  0.82203252446E+02 0.  0.
         25    2    1    2    0    0 -0.56264954300E+02  0.11589756481E+02 -0.11737324132E+03  0.18089918125E+03  0.12509184012E+03 0.  0.
        -24    2    1    2    0    0  0.61329740548E+02 -0.67821029351E+02  0.17609710768E+04  0.17650721511E+04  0.78099528599E+02 0.  0.
        -13    1    3    3    0    0  0.16095536638E+02  0.46623573313E+02 -0.87768379022E+02  0.10067826103E+03  0.00000000000E+00 0.  1.
         14    1    3    3    0    0 -0.21160322886E+02  0.96076995575E+01 -0.26200757353E+03  0.26303618713E+03  0.00000000000E+00 0. -1.
         11    1    5    5    0    0  0.14706286646E+02 -0.56882624395E+02  0.13571860606E+04  0.13584571804E+04  0.00000000000E+00 0. -1.
        -12    1    5    5    0    0  0.46623453902E+02 -0.10938404956E+02  0.40378501615E+03  0.40661497073E+03  0.00000000000E+00 0.  1.
          5    1    4    4  501    0 -0.39957973061E+02 -0.43110111097E+02 -0.10770467876E+02  0.59904896864E+02  0.41800000000E+01 0. -1.
         -5    1    4    4    0  501 -0.16306981238E+02  0.54699867578E+02 -0.10660277344E+03  0.12099428439E+03  0.41800000000E+01 0. -1.
</event>
<event>
11    1  0.1078607E-008  0.1621285E+03  0.7561462E-02  0.1085092E+00
         22   -1    0    0    0    0  0.00000000000E+00  0.00000000000E+00  0.45025019200E+04  0.45025019200E+04  0.00000000000E+00 0. -1.
         22   -1    0    0    0    0 -0.00000000000E+00 -0.00000000000E+00 -0.38185113827E+03  0.38185113827E+03  0.00000000000E+00 0.  1.
        -24    2    1    2    0    0 -0.16279410146E+02 -0.31952850136E+02 -0.26799093756E+03  0.28312286036E+03  0.83984567744E+02 0.  0.
         25    2    1    2    0    0 -0.71858048294E+02  0.85465803270E+02 -0.38501138574E+02  0.17204272503E+03  0.12509348077E+03 0.  0.
         24    2    1    2    0    0  0.88137458440E+02 -0.53512953134E+02  0.44271428579E+04  0.44291874729E+04  0.86463508417E+02 0.  0.
        -13    1    5    5    0    0 -0.68753643765E+01  0.13026436630E+02  0.24937634433E+03  0.24981096813E+03  0.00000000000E+00 0.  1.
         14    1    5    5    0    0  0.95012822816E+02 -0.66539389764E+02  0.41777665135E+04  0.41793765047E+04  0.00000000000E+00 0. -1.
         11    1    3    3    0    0 -0.43735240329E+02 -0.33162345952E+01 -0.19675930501E+03  0.20158867222E+03  0.00000000000E+00 0. -1.
        -12    1    3    3    0    0  0.27455830183E+02 -0.28636615541E+02 -0.71231632548E+02  0.81534188142E+02  0.00000000000E+00 0.  1.
          5    1    4    4  501    0 -0.10393812302E+03  0.63833521632E+02 -0.74815033222E+01  0.12227549711E+03  0.41800000000E+01 0. -1.
         -5    1    4    4    0  501  0.32080074730E+02  0.21632281638E+02 -0.31019635252E+02  0.49767227919E+02  0.41800000000E+01 0. -1.
</event>
<event>
11    1  0.1078607E-008  0.1582112E+03  0.7561462E-02  0.1088772E+00
         22   -1    0    0    0    0  0.00000000000E+00  0.00000000000E+00  0.99595292306E+03  0.99595292306E+03  0.00000000000E+00 0. -1.
         22   -1    0    0    0    0 -0.00000000000E+00 -0.00000000000E+00 -0.54756217814E+03  0.54756217814E+03  0.00000000000E+00 0. -1.
         24    2    1    2    0    0 -0.15944548582E+02  0.66362771216E+01 -0.32260825118E+03  0.33418245830E+03  0.85460885208E+02 0.  0.
         25    2    1    2    0    0  0.98014370897E+02  0.44496642712E+02 -0.18385619542E+03  0.24705812797E+03  0.12509136616E+03 0.  0.
        -24    2    1    2    0    0 -0.82069822315E+02 -0.51132919834E+02  0.95485519152E+03  0.96227451493E+03  0.69812420737E+02 0.  0.
        -11    1    3    3    0    0 -0.12997159616E+01  0.43129350533E+02 -0.11383533898E+03  0.12173871422E+03  0.00000000000E+00 0.  1.
         12    1    3    3    0    0 -0.14644832621E+02 -0.36493073411E+02 -0.20877291220E+03  0.21244374408E+03  0.00000000000E+00 0. -1.
         11    1    5    5    0    0 -0.21518691302E+02 -0.49058159654E+02  0.31149801870E+03  0.31607083503E+03  0.00000000000E+00 0. -1.
        -12    1    5    5    0    0 -0.60551131013E+02 -0.20747601800E+01  0.64335717282E+03  0.64620367990E+03  0.00000000000E+00 0.  1.
          5    1    4    4  501    0  0.10089651065E+02  0.19656187529E+02 -0.14657512240E+03  0.14828993787E+03  0.41800000000E+01 0. -1.
         -5    1    4    4    0  501  0.87924719832E+02  0.24840455184E+02 -0.37281073024E+02  0.98768190107E+02  0.41800000000E+01 0. -1.
</event>
<event>
11    1  0.1078607E-008  0.1593135E+03  0.7561462E-02  0.1087725E+00
         22   -1    0    0    0    0  0.00000000000E+00  0.00000000000E+00  0.90471375963E+02  0.90471375963E+02  0.00000000000E+00 0.  1.
         22   -1    0    0    0    0 -0.00000000000E+00 -0.00000000000E+00 -0.32018492547E+04  0.32018492547E+04  0.00000000000E+00 0.  1.
        -24    2    1    2    0    0  0.79149468658E+02  0.55589344535E+02 -0.27433120462E+04  0.27462948309E+04  0.83782464267E+02 0.  0.
         25    2    1    2    0    0 -0.96966507832E+02 -0.73409044596E+02 -0.41338323234E+03  0.44869275970E+03  0.12509238329E+03 0.  0.
         24    2    1    2    0    0  0.17817039174E+02  0.17819700062E+02  0.45317399850E+02  0.97333040104E+02  0.82371508251E+02 0.  0.
        -11    1    5    5    0    0  0.29919775613E+02  0.91018460399E+01  0.65297041713E+02  0.72399863470E+02  0.00000000000E+00 0.  1.
         12    1    5    5    0    0 -0.12102736439E+02  0.87178540220E+01 -0.19979641863E+02  0.24933176634E+02  0.00000000000E+00 0. -1.
         13    1    3    3    0    0  0.30731928463E+02 -0.20688250537E+02 -0.68528815523E+03  0.68628879550E+03  0.00000000000E+00 0. -1.
        -14    1    3    3    0    0  0.48417540194E+02  0.76277595071E+02 -0.20580238910E+04  0.20600060353E+04  0.00000000000E+00 0.  1.
          5    1    4    4  501    0 -0.75284884601E+02  0.10714864000E+01 -0.31191581331E+03  0.32090171225E+03  0.41800000000E+01 0. -1.
         -5    1    4    4    0  501 -0.21681623231E+02 -0.74480530996E+02 -0.10146741903E+03  0.12779104745E+03  0.41800000000E+01 0. -1.
</event>
<event>
11    1  0.1078607E-008  0.9215250E+03  0.7561462E-02  0.8757460E-01
         22   -1    0    0    0    0  0.00000000000E+00  0.00000000000E+00  0.11809063644E+04  0.11809063644E+04  0.00000000000E+00 0. -1.
         22   -1    0    0    0    0 -0.00000000000E+00 -0.00000000000E+00 -0.14595771381E+04  0.14595771381E+04  0.00000000000E+00 0. -1.
         24    2    1    2    0    0  0.22220730274E+03  0.22750257938E+03 -0.59486359627E+03  0.67939771593E+03  0.81148316241E+02 0.  0.
         25    2    1    2    0    0 -0.93215891319E+03  0.31158585062E+03 -0.54427927719E+02  0.99227811406E+03  0.12508986603E+03 0.  0.
        -24    2    1    2    0    0  0.70995161045E+03 -0.53908843000E+03  0.37062075035E+03  0.96880767254E+03  0.81123000671E+02 0.  0.
        -13    1    3    3    0    0  0.10332199360E+03  0.14258714446E+03 -0.25961093319E+03  0.31369469992E+03  0.00000000000E+00 0.  1.
         14    1    3    3    0    0  0.11888530914E+03  0.84915434923E+02 -0.33525266308E+03  0.36570301601E+03  0.00000000000E+00 0. -1.
         11    1    5    5    0    0  0.30312817851E+03 -0.18802528882E+03  0.12497113148E+03  0.37796558778E+03  0.00000000000E+00 0. -1.
        -12    1    5    5    0    0  0.40682343195E+03 -0.35106314118E+03  0.24564961887E+03  0.59084208476E+03  0.00000000000E+00 0.  1.
          5    1    4    4  501    0 -0.34337402640E+03  0.17411275574E+03  0.19252970128E+01  0.38502227583E+03  0.41800000000E+01 0.  1.
         -5    1    4    4    0  501 -0.58878488679E+03  0.13747309488E+03 -0.56353224731E+02  0.60725583823E+03  0.41800000000E+01 0.  1.
</event>
<event>
11    1  0.1078607E-008  0.1283549E+03  0.7561462E-02  0.1121307E+00
         22   -1    0    0    0    0  0.00000000000E+00  0.00000000000E+00  0.19261715035E+04  0.19261715035E+04  0.00000000000E+00 0.  1.
         22   -1    0    0    0    0 -0.00000000000E+00 -0.00000000000E+00 -0.63460247286E+03  0.63460247286E+03  0.00000000000E+00 0.  1.
        -24    2    1    2    0    0 -0.10553379556E+02  0.68589264718E+01 -0.60704165664E+03  0.61243957491E+03  0.80151365126E+02 0.  0.
         25    2    1    2    0    0 -0.11469403478E+02  0.12400893058E+02  0.14324799947E+03  0.19092940286E+03  0.12509483667E+03 0.  0.
         24    2    1    2    0    0  0.22022783034E+02 -0.19259819529E+02  0.17553626878E+04  0.17574049986E+04  0.79487229571E+02 0.  0.
        -13    1    5    5    0    0  0.19654626716E+02 -0.47384212905E+02  0.13932403883E+04  0.13941844740E+04  0.00000000000E+00 0.  1.
         14    1    5    5    0    0  0.23681563182E+01  0.28124393376E+02  0.36212229956E+03  0.36322052462E+03  0.00000000000E+00 0. -1.
         11    1    3    3    0    0  0.18030906873E+02  0.10949198867E+02 -0.45459115846E+02  0.50115165089E+02  0.00000000000E+00 0. -1.
        -12    1    3    3    0    0 -0.28584286429E+02 -0.40902723950E+01 -0.56158254079E+03  0.56232440982E+03  0.00000000000E+00 0.  1.
          5    1    4    4  501    0 -0.59494556275E+01  0.52569155321E+02  0.14037023994E+03  0.15006728082E+03  0.41800000000E+01 0.  1.
         -5    1    4    4    0  501 -0.55199478505E+01 -0.40168262264E+02  0.28777595290E+01  0.40862122038E+02  0.41800000000E+01 0.  1.
</event>
<event>
11    1  0.1078607E-008  0.1875780E+03  0.7561462E-02  0.1063673E+00
         22   -1    0    0    0    0  0.00000000000E+00  0.00000000000E+00  0.57791149075E+03  0.57791149075E+03  0.00000000000E+00 0.  1.
         22   -1    0    0    0    0 -0.00000000000E+00 -0.00000000000E+00 -0.68432007328E+03  0.68432007328E+03  0.00000000000E+00 0.  1.
         24    2    1    2    0    0  0.63930261615E+01 -0.35752858063E+02 -0.37719728187E+03  0.38716817793E+03  0.79386843416E+02 0.  0.
         25    2    1    2    0    0  0.12261960953E+03 -0.20066855296E+02 -0.26332632591E+03  0.31690187461E+03  0.12509115433E+03 0.  0.
        -24    2    1    2    0    0 -0.12901263569E+03  0.55819713358E+02  0.53411502525E+03  0.55816151149E+03  0.80655515277E+02 0.  0.
        -11    1    3    3    0    0 -0.78203690558E+01 -0.37867486008E+02 -0.36817691236E+03  0.37020176048E+03  0.00000000000E+00 0.  1.
         12    1    3    3    0    0  0.14213395217E+02  0.21146279451E+01 -0.90203695132E+01  0.16966417450E+02  0.00000000000E+00 0. -1.
         11    1    5    5    0    0 -0.69395542984E+02  0.47685967447E+02  0.17692544561E+03  0.19593954726E+03  0.00000000000E+00 0. -1.
        -12    1    5    5    0    0 -0.59617092706E+02  0.81337459115E+01  0.35718957964E+03  0.36222196423E+03  0.00000000000E+00 0.  1.
          5    1    4    4  501    0  0.13272628370E+03  0.53288607988E+01 -0.25577087282E+03  0.28823753213E+03  0.41800000000E+01 0. -1.
         -5    1    4    4    0  501 -0.10106674167E+02 -0.25395716094E+02 -0.75554530847E+01  0.28664342483E+02  0.41800000000E+01 0. -1.
</event>
<event>
11    1  0.1078607E-008  0.2303796E+03  0.7561462E-02  0.1034903E+00
         22   -1    0    0    0    0  0.00000000000E+00  0.00000000000E+00  0.69784376479E+03  0.69784376479E+03  0.00000000000E+00 0. -1.
         22   -1    0    0    0    0 -0.00000000000E+00 -0.00000000000E+00 -0.39535750879E+03  0.39535750879E+03  0.00000000000E+00 0.  1.
         24    2    1    2    0    0  0.13509474018E+03  0.11296021901E+03 -0.19189329786E+03  0.27236963018E+03  0.79696786481E+02 0.  0.
         25    2    1    2    0    0 -0.19902234682E+03 -0.14438397206E+03 -0.37304355409E+02  0.27837901869E+03  0.12508651882E+03 0.  0.
        -24    2    1    2    0    0  0.63927606639E+02  0.31423753051E+02  0.53168390928E+03  0.54245262471E+03  0.80578406079E+02 0.  0.
        -13    1    3    3    0    0  0.11521259108E+03  0.80087874395E+02 -0.18678158930E+03  0.23361372150E+03  0.00000000000E+00 0.  1.
         14    1    3    3    0    0  0.19882149099E+02  0.32872344615E+02 -0.51117085582E+01  0.38755908680E+02  0.00000000000E+00 0. -1.
         13    1    5    5    0    0  0.44102671621E+02 -0.20938418686E+02  0.30927135015E+03  0.31310099177E+03  0.00000000000E+00 0. -1.
        -14    1    5    5    0    0  0.19824935019E+02  0.52362171738E+02  0.22241255913E+03  0.22935163294E+03  0.00000000000E+00 0.  1.
          5    1    4    4  501    0 -0.94838662821E+02 -0.14107838696E+03 -0.89736411881E+01  0.17028059746E+03  0.41800000000E+01 0.  1.
         -5    1    4    4    0  501 -0.10418368400E+03 -0.33055850983E+01 -0.28330714221E+02  0.10809842123E+03  0.41800000000E+01 0.  1.
</event>
<event>
11    1  0.1078607E-008  0.1987771E+03  0.7561462E-02  0.1055392E+00
         22   -1    0    0    0    0  0.00000000000E+00  0.00000000000E+00  0.51915016427E+03  0.51915016427E+03  0.00000000000E+00 0.  1.
         22   -1    0    0    0    0 -0.00000000000E+00 -0.00000000000E+00 -0.33759392449E+03  0.33759392449E+03  0.00000000000E+00 0. -1.
        -24    2    1    2    0    0  0.66516607629E+01 -0.14875749437E+03 -0.16087008904E+03  0.23437576803E+03  0.82944429422E+02 0.  0.
         25    2    1    2    0    0 -0.59754290349E+02  0.16218558238E+03 -0.48879022955E+02  0.21888499372E+03  0.12508694274E+03 0.  0.
         24    2    1    2    0    0  0.53102629586E+02 -0.13428088014E+02  0.39130535177E+03  0.40348332701E+03  0.81723399559E+02 0.  0.
        -11    1    5    5    0    0  0.36869712760E+02 -0.34452305151E+02  0.35461645271E+03  0.35818872900E+03  0.00000000000E+00 0.  1.
         12    1    5    5    0    0  0.16232916826E+02  0.21024217136E+02  0.36688899061E+02  0.45294598013E+02  0.00000000000E+00 0. -1.
         13    1    3    3    0    0  0.33947547132E+02 -0.13609415344E+03 -0.12942290574E+03  0.19085162584E+03  0.00000000000E+00 0. -1.
        -14    1    3    3    0    0 -0.27295886369E+02 -0.12663340934E+02 -0.31447183300E+02  0.43524142195E+02  0.00000000000E+00 0.  1.
          5    1    4    4  501    0  0.21816366282E+02  0.45356227655E+02  0.27138272660E+02  0.57333231793E+02  0.41800000000E+01 0.  1.
         -5    1    4    4    0  501 -0.81570656630E+02  0.11682935473E+03 -0.76017295615E+02  0.16155176193E+03  0.41800000000E+01 0.  1.
</event>
<event>
11    1  0.1078607E-008  0.2060931E+03  0.7561462E-02  0.1050297E+00
         22   -1    0    0    0    0  0.00000000000E+00  0.00000000000E+00  0.13006684155E+03  0.13006684155E+03  0.00000000000E+00 0.  1.
         22   -1    0    0    0    0 -0.00000000000E+00 -0.00000000000E+00 -0.68175232290E+03  0.68175232290E+03  0.00000000000E+00 0. -1.
         24    2    1    2    0    0  0.15236958518E+03 -0.29265060888E+02 -0.18161553907E+03  0.25196984690E+03  0.80197664784E+02 0.  0.
         25    2    1    2    0    0 -0.33860680020E+02 -0.13811345314E+03 -0.23239421339E+03  0.29979335810E+03  0.12508843094E+03 0.  0.
        -24    2    1    2    0    0 -0.11850890516E+03  0.16737851402E+03 -0.13767572890E+03  0.26005595945E+03  0.81329995454E+02 0.  0.
        -11    1    3    3    0    0  0.26456688212E+02  0.57562954854E+00  0.28794810767E+01  0.26619149344E+02  0.00000000000E+00 0.  1.
         12    1    3    3    0    0  0.12591289697E+03 -0.29840690437E+02 -0.18449502015E+03  0.22535069755E+03  0.00000000000E+00 0. -1.
         11    1    5    5    0    0 -0.12142299035E+03  0.15111430197E+03 -0.14489957272E+03  0.24202264568E+03  0.00000000000E+00 0. -1.
        -12    1    5    5    0    0  0.29140851869E+01  0.16264212053E+02  0.72238438249E+01  0.18033313777E+02  0.00000000000E+00 0.  1.
          5    1    4    4  501    0 -0.78122179155E+02 -0.11502699240E+03 -0.17660734314E+03  0.22481527952E+03  0.41800000000E+01 0. -1.
         -5    1    4    4    0  501  0.44261499135E+02 -0.23086460739E+02 -0.55786870253E+02  0.74978078581E+02  0.41800000000E+01 0. -1.
</event>
<event>
11    1  0.1078607E-008  0.1297985E+03  0.7561462E-02  0.1119517E+00
         22   -1    0    0    0    0  0.00000000000E+00  0.00000000000E+00  0.53964762783E+03  0.53964762783E+03  0.00000000000E+00 0. -1.
         22   -1    0    0    0    0 -0.00000000000E+00 -0.00000000000E+00 -0.96336127640E+03  0.96336127640E+03  0.00000000000E+00 0. -1.
         24    2    1    2    0    0 -0.24342425346E+02  0.20597322118E+02 -0.92692363075E+03  0.93115176666E+03  0.82700616398E+02 0.  0.
         25    2    1    2    0    0 -0.13846355473E+02 -0.19760983774E+02  0.10978730303E+03  0.16817917347E+03  0.12509502166E+03 0.  0.
        -24    2    1    2    0    0  0.38188780819E+02 -0.83633834381E+00  0.39342267916E+03  0.40367796409E+03  0.81947616072E+02 0.  0.
        -11    1    3    3    0    0  0.30048843001E+02  0.96031371621E+01 -0.25578031429E+03  0.25771830045E+03  0.00000000000E+00 0.  1.
         12    1    3    3    0    0 -0.54391268347E+02  0.10994184955E+02 -0.67114331646E+03  0.67343346621E+03  0.00000000000E+00 0. -1.
         13    1    5    5    0    0 -0.10547510477E+02 -0.25019247703E+02  0.22628452232E+03  0.22790765186E+03  0.00000000000E+00 0. -1.
        -14    1    5    5    0    0  0.48736291296E+02  0.24182909359E+02  0.16713815683E+03  0.17577031224E+03  0.00000000000E+00 0.  1.
          5    1    4    4  501    0  0.45874647100E+01  0.89562347722E+01  0.12855131108E+03  0.12901228994E+03  0.41800000000E+01 0. -1.
         -5    1    4    4    0  501 -0.18433820183E+02 -0.28717218546E+02 -0.18764008054E+02  0.39166883535E+02  0.41800000000E+01 0. -1.
</event>
<event>
11    1  0.1078607E-008  0.1297453E+03  0.7561462E-02  0.1119582E+00
         22   -1    0    0    0    0  0.00000000000E+00  0.00000000000E+00  0.10559262139E+04  0.10559262139E+04  0.00000000000E+00 0. -1.
         22   -1    0    0    0    0 -0.00000000000E+00 -0.00000000000E+00 -0.11442815569E+04  0.11442815569E+04  0.00000000000E+00 0. -1.
         24    2    1    2    0    0  0.29825734280E+02  0.29352528734E+02 -0.10745521067E+04  0.10783262124E+04  0.79837616900E+02 0.  0.
         25    2    1    2    0    0 -0.15442282561E+01 -0.75132156982E+01 -0.59986953138E+01  0.12546894250E+03  0.12509051976E+03 0.  0.
        -24    2    1    2    0    0 -0.28281506024E+02 -0.21839313035E+02  0.99219545904E+03  0.99641261583E+03  0.84317690152E+02 0.  0.
        -13    1    3    3    0    0  0.74295728251E+01  0.19702279612E+02 -0.61954575709E+02  0.65435065718E+02  0.00000000000E+00 0.  1.
         14    1    3    3    0    0  0.22396161455E+02  0.96502491214E+01 -0.10125975310E+04  0.10128911467E+04  0.00000000000E+00 0. -1.
         11    1    5    5    0    0 -0.48270052630E+02  0.13515422636E+02  0.48035458769E+03  0.48296293289E+03  0.00000000000E+00 0. -1.
        -12    1    5    5    0    0  0.19988546607E+02 -0.35354735671E+02  0.51184087134E+03  0.51344968294E+03  0.00000000000E+00 0.  1.
          5    1    4    4  501    0 -0.19399209529E+02 -0.39678753673E+02  0.44509385767E+02  0.62843381869E+02  0.41800000000E+01 0. -1.
         -5    1    4    4    0  501  0.17854981273E+02  0.32165537974E+02 -0.50508081080E+02  0.62625560627E+02  0.41800000000E+01 0. -1.
</event>
<event>
11    1  0.1078607E-008  0.1896147E+03  0.7561462E-02  0.1062121E+00
         22   -1    0    0    0    0  0.00000000000E+00  0.00000000000E+00  0.63459647355E+03  0.63459647355E+03  0.00000000000E+00 0. -1.
         22   -1    0    0    0    0 -0.00000000000E+00 -0.00000000000E+00 -0.27890918647E+04  0.27890918647E+04  0.00000000000E+00 0.  1.
        -24    2    1    2    0    0  0.73893839445E+02  0.12393321241E+03 -0.25070687186E+04  0.25125041624E+04  0.80398169247E+02 0.  0.
         25    2    1    2    0    0  0.63048145453E+01 -0.14257214983E+03 -0.24097780702E+03  0.30673045520E+03  0.12508677019E+03 0.  0.
         24    2    1    2    0    0 -0.80198653990E+02  0.18638937417E+02  0.59355113446E+03  0.60445372066E+03  0.79259807663E+02 0.  0.
        -13    1    5    5    0    0 -0.32571618638E+02  0.17948286006E+02  0.74945662534E+02  0.83665426814E+02  0.00000000000E+00 0.  1.
         14    1    5    5    0    0 -0.47627035353E+02  0.69065141168E+00  0.51860547193E+03  0.52078829385E+03  0.00000000000E+00 0. -1.
         11    1    3    3    0    0  0.87424148638E+02  0.78421628963E+02 -0.18467464526E+04  0.18504770719E+04  0.00000000000E+00 0. -1.
        -12    1    3    3    0    0 -0.13530309193E+02  0.45511583451E+02 -0.66032226604E+03  0.66202709047E+03  0.00000000000E+00 0.  1.
          5    1    4    4  501    0 -0.11454239804E+02 -0.19211865741E+02  0.11232134452E+02  0.25375749035E+02  0.41800000000E+01 0.  1.
         -5    1    4    4    0  501  0.17759054349E+02 -0.12336028409E+03 -0.25220994147E+03  0.28135470616E+03  0.41800000000E+01 0.  1.
</event>
<event>
11    1  0.1078607E-008  0.1337234E+03  0.7561462E-02  0.1114777E+00
         22   -1    0    0    0    0  0.00000000000E+00  0.00000000000E+00  0.47370754681E+03  0.47370754681E+03  0.00000000000E+00 0.  1.
         22   -1    0    0    0    0 -0.00000000000E+00 -0.00000000000E+00 -0.30600612079E+03  0.30600612079E+03  0.00000000000E+00 0.  1.
        -24    2    1    2    0    0  0.28167315497E+02 -0.25905684740E+02 -0.20751013001E+03  0.22602182208E+03  0.80999431057E+02 0.  0.
         25    2    1    2    0    0  0.13747568858E+02 -0.39593286626E+00 -0.36858313716E+02  0.13112917266E+03  0.12508865744E+03 0.  0.
         24    2    1    2    0    0 -0.41914884355E+02  0.26301617606E+02  0.41206986975E+03  0.42256267286E+03  0.79429228365E+02 0.  0.
        -11    1    5    5    0    0 -0.30311167714E+02 -0.10796586579E+02  0.33200899714E+03  0.33356454750E+03  0.00000000000E+00 0.  1.
         12    1    5    5    0    0 -0.11603716641E+02  0.37098204185E+02  0.80060872616E+02  0.88998125360E+02  0.00000000000E+00 0. -1.
         13    1    3    3    0    0  0.44690541600E+01 -0.35536417470E+02 -0.30122638859E+02  0.46799388709E+02  0.00000000000E+00 0. -1.
        -14    1    3    3    0    0  0.23698261337E+02  0.96307327304E+01 -0.17738749116E+03  0.17922243337E+03  0.00000000000E+00 0.  1.
          5    1    4    4  501    0 -0.41882796596E+02  0.39070071991E+02 -0.19125172672E+02  0.60530024003E+02  0.41800000000E+01 0.  1.
         -5    1    4    4    0  501  0.55630365453E+02 -0.39466004857E+02 -0.17733141043E+02  0.70599148657E+02  0.41800000000E+01 0.  1.
</event>
<event>
11    1  0.1078607E-008  0.1272423E+03  0.7561462E-02  0.1122704E+00
         22   -1    0    0    0    0  0.00000000000E+00  0.00000000000E+00  0.17338520728E+04  0.17338520728E+04  0.00000000000E+00 0.  1.
         22   -1    0    0    0    0 -0.00000000000E+00 -0.00000000000E+00 -0.12186936562E+03  0.12186936562E+03  0.00000000000E+00 0.  1.
        -24    2    1    2    0    0 -0.68427310257E+01  0.22362554607E+02 -0.94711783385E+02  0.12574319832E+03  0.79335510309E+02 0.  0.
         25    2    1    2    0    0  0.29548594190E+02 -0.12772630832E+02  0.38076064871E+03  0.40207245087E+03  0.12508926664E+03 0.  0.
         24    2    1    2    0    0 -0.22705863164E+02 -0.95899237746E+01  0.13259338418E+04  0.13279057892E+04  0.68012566751E+02 0.  0.
        -11    1    5    5    0    0  0.68892746546E+01 -0.33420924610E+02  0.67927305229E+03  0.68012961991E+03  0.00000000000E+00 0.  1.
         12    1    5    5    0    0 -0.29595137819E+02  0.23831000835E+02  0.64666078955E+03  0.64777616931E+03  0.00000000000E+00 0. -1.
         13    1    3    3    0    0 -0.44396107955E+01 -0.11888734253E+01  0.13869466237E+02  0.14611148406E+02  0.00000000000E+00 0. -1.
        -14    1    3    3    0    0 -0.24031202302E+01  0.23551428032E+02 -0.10858124962E+03  0.11113204992E+03  0.00000000000E+00 0.  1.
          5    1    4    4  501    0  0.25816477751E+02  0.43090897895E+02  0.29692901013E+03  0.30117706663E+03  0.41800000000E+01 0.  1.
         -5    1    4    4    0  501  0.37321164385E+01 -0.55863528727E+02  0.83831638576E+02  0.10089538424E+03  0.41800000000E+01 0.  1.
</event>
<event>
11    1  0.1078607E-008  0.1628763E+03  0.7561462E-02  0.1084403E+00
         22   -1    0    0    0    0  0.00000000000E+00  0.00000000000E+00  0.30469472174E+03  0.30469472174E+03  0.00000000000E+00 0.  1.
         22   -1    0    0    0    0 -0.00000000000E+00 -0.00000000000E+00 -0.68625699327E+03  0.68625699327E+03  0.00000000000E+00 0.  1.
         24    2    1    2    0    0 -0.13512111928E+02  0.41289601990E+02 -0.52730762723E+03  0.53531827315E+03  0.81393558944E+02 0.  0.
         25    2    1    2    0    0  0.11487650846E+03 -0.19412158225E+02 -0.84668489577E+02  0.19076286699E+03  0.12509306222E+03 0.  0.
        -24    2    1    2    0    0 -0.10136439653E+03 -0.21877443765E+02  0.23041384527E+03  0.26487057487E+03  0.79451355620E+02 0.  0.
        -13    1    3    3    0    0 -0.86043320243E+01  0.22201560047E+02 -0.50496118829E+03  0.50552225023E+03  0.00000000000E+00 0.  1.
         14    1    3    3    0    0 -0.49077799039E+01  0.19088041943E+02 -0.22346438935E+02  0.29796022920E+02  0.00000000000E+00 0. -1.
         13    1    5    5    0    0 -0.65520698634E+02  0.14465604987E+02  0.71921856731E+02  0.98361421059E+02  0.00000000000E+00 0. -1.
        -14    1    5    5    0    0 -0.35843697895E+02 -0.36343048751E+02  0.15849198854E+03  0.16650915381E+03  0.00000000000E+00 0.  1.
          5    1    4    4  501    0  0.55627123733E+02 -0.58931083666E+02 -0.87537466630E+02  0.11936301764E+03  0.41800000000E+01 0.  1.
         -5    1    4    4    0  501  0.59249384723E+02  0.39518925441E+02  0.28689770529E+01  0.71399849352E+02  0.41800000000E+01 0.  1.
</event>
<event>
11    1  0.1078607E-008  0.1710830E+03  0.7561462E-02  0.1077093E+00
         22   -1    0    0    0    0  0.00000000000E+00  0.00000000000E+00  0.41907025370E+03  0.41907025370E+03  0.00000000000E+00 0. -1.
         22   -1    0    0    0    0 -0.00000000000E+00 -0.00000000000E+00 -0.57013927156E+03  0.57013927156E+03  0.00000000000E+00 0. -1.
         24    2    1    2    0    0 -0.89513409778E+02 -0.92570714269E+02 -0.48142322210E+03  0.50455510828E+03  0.78902159976E+02 0.  0.
         25    2    1    2    0    0  0.44984349467E+00  0.56423934965E+02  0.63771849163E+01  0.13737597753E+03  0.12509047893E+03 0.  0.
        -24    2    1    2    0    0  0.89063566283E+02  0.36146779304E+02  0.32397701932E+03  0.34727843944E+03  0.80014354714E+02 0.  0.
        -11    1    3    3    0    0 -0.92784540904E+01  0.12932802959E+02 -0.28592101716E+02  0.32723926770E+02  0.00000000000E+00 0.  1.
         12    1    3    3    0    0 -0.80234955687E+02 -0.10550351723E+03 -0.45283112038E+03  0.47183118151E+03  0.00000000000E+00 0. -1.
         11    1    5    5    0    0  0.92778450697E+02  0.69901424569E+01  0.27319271698E+03  0.28860173877E+03  0.00000000000E+00 0. -1.
        -12    1    5    5    0    0 -0.37148844142E+01  0.29156636847E+02  0.50784302334E+02  0.58676700674E+02  0.00000000000E+00 0.  1.
          5    1    4    4  501    0  0.57382260206E+02  0.53826843148E+02  0.12984252514E+02  0.79850585740E+02  0.41800000000E+01 0. -1.
         -5    1    4    4    0  501 -0.56932416711E+02  0.25970918167E+01 -0.66070675974E+01  0.57525391791E+02  0.41800000000E+01 0. -1.
</event>
<event>
11    1  0.1078607E-008  0.2307943E+03  0.7561462E-02  0.1034659E+00
         22   -1    0    0    0    0  0.00000000000E+00  0.00000000000E+00  0.13358237826E+04  0.13358237826E+04  0.00000000000E+00 0. -1.
         22   -1    0    0    0    0 -0.00000000000E+00 -0.00000000000E+00 -0.15890739543E+04  0.15890739543E+04  0.00000000000E+00 0.  1.
        -24    2    1    2    0    0  0.11447919501E+03  0.16115395305E+03 -0.14936863376E+04  0.15090175307E+04  0.83420322452E+02 0.  0.
         25    2    1    2    0    0 -0.75530092257E+02 -0.12154530023E+03  0.19499647458E+02  0.19106452497E+03  0.12508941444E+03 0.  0.
         24    2    1    2    0    0 -0.38949102751E+02 -0.39608652810E+02  0.12209365185E+04  0.12248156812E+04  0.80009954735E+02 0.  0.
        -13    1    5    5    0    0  0.60634971386E+01 -0.50656934737E+02  0.62299252647E+03  0.62507805838E+03  0.00000000000E+00 0.  1.
         14    1    5    5    0    0 -0.45012599889E+02  0.11048281926E+02  0.59794399200E+03  0.59973762284E+03  0.00000000000E+00 0. -1.
         11    1    3    3    0    0  0.17015825068E+02  0.68784237004E+02 -0.74699554487E+03  0.75034868802E+03  0.00000000000E+00 0. -1.
        -12    1    3    3    0    0  0.97463369939E+02  0.92369716041E+02 -0.74669079269E+03  0.75866884265E+03  0.00000000000E+00 0.  1.
          5    1    4    4  501    0  0.21818139209E+02 -0.60768238841E+02  0.37561044076E+02  0.74813865576E+02  0.41800000000E+01 0.  1.
         -5    1    4    4    0  501 -0.97348231466E+02 -0.60777061394E+02 -0.18061396618E+02  0.11625065939E+03  0.41800000000E+01 0.  1.
</event>
<event>
11    1  0.1078607E-008  0.1327083E+03  0.7561462E-02  0.1115985E+00
         22   -1    0    0    0    0  0.00000000000E+00  0.00000000000E+00  0.14288214874E+04  0.14288214874E+04  0.00000000000E+00 0.  1.
         22   -1    0    0    0    0 -0.00000000000E+00 -0.00000000000E+00 -0.47756831316E+03  0.47756831316E+03  0.00000000000E+00 0.  1.
        -24    2    1    2    0    0  0.38017255129E+02  0.24735488463E+02 -0.42899414387E+03  0.43874883191E+03  0.80046273769E+02 0.  0.
         25    2    1    2    0    0  0.63090940662E+00 -0.40988295109E+02  0.60704639077E+02  0.14495819075E+03  0.12508950986E+03 0.  0.
         24    2    1    2    0    0 -0.38648164536E+02  0.16252806646E+02  0.13195426791E+04  0.13226827779E+04  0.80864175045E+02 0.  0.
        -11    1    5    5    0    0 -0.57648298138E+02  0.25352915799E+02  0.11662667612E+04  0.11679658620E+04  0.00000000000E+00 0.  1.
         12    1    5    5    0    0  0.19000133602E+02 -0.91001091524E+01  0.15327591788E+03  0.15471691590E+03  0.00000000000E+00 0. -1.
         11    1    3    3    0    0 -0.19139327819E+02  0.17216170030E+02 -0.60158950441E+02  0.65435538494E+02  0.00000000000E+00 0. -1.
        -12    1    3    3    0    0  0.57156582948E+02  0.75193184329E+01 -0.36883519343E+03  0.37331329341E+03  0.00000000000E+00 0.  1.
          5    1    4    4  501    0  0.37870114229E+02 -0.57798268735E+02  0.74437487074E+02  0.10165233545E+03  0.41800000000E+01 0.  1.
         -5    1    4    4    0  501 -0.37239204822E+02  0.16809973626E+02 -0.13732847998E+02  0.43305855299E+02  0.41800000000E+01 0.  1.
</event>
<event>
11    1  0.1078607E-008  0.1412203E+03  0.7561462E-02  0.1106203E+00
         22   -1    0    0    0    0  0.00000000000E+00  0.00000000000E+00  0.41923004496E+03  0.41923004496E+03  0.00000000000E+00 0.  1.
         22   -1    0    0    0    0 -0.00000000000E+00 -0.00000000000E+00 -0.16914256908E+03  0.16914256908E+03  0.00000000000E+00 0.  1.
        -24    2    1    2    0    0  0.57186397955E+02  0.28493191486E+02 -0.89341317945E+02  0.13543138318E+03  0.79231574421E+02 0.  0.
         25    2    1    2    0    0 -0.58860677326E+02 -0.44891647164E+02  0.53440247276E+02  0.15486705918E+03  0.12509239253E+03 0.  0.
         24    2    1    2    0    0  0.16742793709E+01  0.16398455678E+02  0.28598854655E+03  0.29807417168E+03  0.82383557266E+02 0.  0.
        -13    1    5    5    0    0 -0.17470066984E+02  0.28417330324E+02  0.26543368238E+03  0.26752156482E+03  0.00000000000E+00 0.  1.
         14    1    5    5    0    0  0.19144346355E+02 -0.12018874646E+02  0.20554864172E+02  0.30552606865E+02  0.00000000000E+00 0. -1.
         13    1    3    3    0    0 -0.74058256919E+01  0.19885991675E+02  0.40005201193E+01  0.21594051966E+02  0.00000000000E+00 0. -1.
        -14    1    3    3    0    0  0.64592223647E+02  0.86071998106E+01 -0.93341838065E+02  0.11383733121E+03  0.00000000000E+00 0.  1.
          5    1    4    4  501    0 -0.21257464889E+02  0.43811921818E+02  0.16192640217E+02  0.51488234618E+02  0.41800000000E+01 0.  1.
         -5    1    4    4    0  501 -0.37603212437E+02 -0.88703568981E+02  0.37247607059E+02  0.10337882456E+03  0.41800000000E+01 0.  1.
</event>
<event>
11    1  0.1078607E-008  0.1450629E+03  0.7561462E-02  0.1102033E+00
         22   -1    0    0    0    0  0.00000000000E+00  0.00000000000E+00  0.22523611665E+03  0.22523611665E+03  0.00000000000E+00 0.  1.
         22   -1    0    0    0    0 -0.00000000000E+00 -0.00000000000E+00 -0.48484075873E+03  0.48484075873E+03  0.00000000000E+00 0.  1.
        -24    2    1    2    0    0 -0.56925336696E+02  0.59506973284E+02 -0.33472442177E+03  0.35395936761E+03  0.80406601505E+02 0.  0.
         25    2    1    2    0    0  0.34429171750E+02 -0.25352477568E+02 -0.95540700818E+02  0.16310731176E+03  0.12509138120E+03 0.  0.
         24    2    1    2    0    0  0.22496164947E+02 -0.34154495716E+02  0.17066048051E+03  0.19301019601E+03  0.80345062938E+02 0.  0.
        -11    1    5    5    0    0  0.38283742388E+02 -0.40577171592E+01  0.14607693102E+03  0.15106481978E+03  0.00000000000E+00 0.  1.
         12    1    5    5    0    0 -0.15787577441E+02 -0.30096778556E+02  0.24583549495E+02  0.41945376226E+02  0.00000000000E+00 0. -1.
         13    1    3    3    0    0 -0.68052865126E+02  0.16104545134E+02 -0.19021048860E+03  0.20265877430E+03  0.00000000000E+00 0. -1.
        -14    1    3    3    0    0  0.11127528430E+02  0.43402428150E+02 -0.14451393317E+03  0.15130059331E+03  0.00000000000E+00 0.  1.
          5    1    4    4  501    0  0.68112372431E+02  0.17430000262E+02 -0.79452709489E+02  0.10617582414E+03  0.41800000000E+01 0. -1.
         -5    1    4    4    0  501 -0.33683200681E+02 -0.42782477830E+02 -0.16087991329E+02  0.56931487619E+02  0.41800000000E+01 0. -1.
</event>
<event>
11    1  0.1078607E-008  0.1480689E+03  0.7561462E-02  0.1098868E+00
         22   -1    0    0    0    0  0.00000000000E+00  0.00000000000E+00  0.19258447058E+03  0.19258447058E+03  0.00000000000E+00 0.  1.
         22   -1    0    0    0    0 -0.00000000000E+00 -0.00000000000E+00 -0.29636348723E+04  0.29636348723E+04  0.00000000000E+00 0.  1.
        -24    2    1    2    0    0 -0.19859583358E+02 -0.38767849902E+02 -0.28022552419E+04  0.28035812424E+04  0.74404251765E+02 0.  0.
         25    2    1    2    0    0 -0.13952965522E+02 -0.39437910499E+02 -0.10724472286E+03  0.16999671132E+03  0.12508963686E+03 0.  0.
         24    2    1    2    0    0  0.33812548880E+02  0.78205760401E+02  0.13844956302E+03  0.18264138918E+03  0.83247619306E+02 0.  0.
        -13    1    5    5    0    0  0.86457530980E+00  0.57549922824E+02  0.13094544514E+03  0.14303653628E+03  0.00000000000E+00 0.  1.
         14    1    5    5    0    0  0.32947973571E+02  0.20655837577E+02  0.75041178810E+01  0.39604852905E+02  0.00000000000E+00 0. -1.
         11    1    3    3    0    0 -0.38366499264E+02  0.50057803633E+01 -0.12563192222E+04  0.12569148874E+04  0.00000000000E+00 0. -1.
        -12    1    3    3    0    0  0.18506915906E+02 -0.43773630265E+02 -0.15459360197E+04  0.15466663550E+04  0.00000000000E+00 0.  1.
          5    1    4    4  501    0 -0.34997999552E+02 -0.77190751829E+02 -0.51233334161E+02  0.99124159870E+02  0.41800000000E+01 0.  1.
         -5    1    4    4    0  501  0.21045034030E+02  0.37752841330E+02 -0.56011388699E+02  0.70872551455E+02  0.41800000000E+01 0.  1.
</event>
<event>
11    1  0.1078607E-008  0.2394279E+03  0.7561462E-02  0.1029687E+00
         22   -1    0    0    0    0  0.00000000000E+00  0.00000000000E+00  0.83502157973E+03  0.83502157973E+03  0.00000000000E+00 0. -1.
         22   -1    0    0    0    0 -0.00000000000E+00 -0.00000000000E+00 -0.11139908840E+04  0.11139908840E+04  0.00000000000E+00 0. -1.
         24    2    1    2    0    0 -0.68707736110E+01  0.39402030918E+01 -0.90804210959E+03  0.91166421041E+03  0.80798682127E+02 0.  0.
         25    2    1    2    0    0  0.19054323686E+03  0.84373882015E+02 -0.10974549797E+03  0.26667869125E+03  0.12509105868E+03 0.  0.
        -24    2    1    2    0    0 -0.18367246325E+03 -0.88314085107E+02  0.73881830326E+03  0.77066956208E+03  0.80895842294E+02 0.  0.
        -13    1    3    3    0    0  0.36942246886E+02  0.42699087612E+01 -0.44757791198E+03  0.44912019440E+03  0.00000000000E+00 0.  1.
         14    1    3    3    0    0 -0.43813020497E+02 -0.32970566943E+00 -0.46046419761E+03  0.46254401601E+03  0.00000000000E+00 0. -1.
         13    1    5    5    0    0 -0.16787789398E+03 -0.67441102010E+02  0.52592147776E+03  0.55616965963E+03  0.00000000000E+00 0. -1.
        -14    1    5    5    0    0 -0.15794569272E+02 -0.20872983097E+02  0.21289682551E+03  0.21449990245E+03  0.00000000000E+00 0.  1.
          5    1    4    4  501    0  0.44111776847E+02  0.56498612498E+02  0.13695560836E+02  0.73095710253E+02  0.41800000000E+01 0. -1.
         -5    1    4    4    0  501  0.14643146001E+03  0.27875269518E+02 -0.12344105881E+03  0.19358298100E+03  0.41800000000E+01 0. -1.
</event>
<event>
11    1  0.1078607E-008  0.1260630E+03  0.7561462E-02  0.1124203E+00
         22   -1    0    0    0    0  0.00000000000E+00  0.00000000000E+00  0.52021530167E+03  0.52021530167E+03  0.00000000000E+00 0. -1.
         22   -1    0    0    0    0 -0.00000000000E+00 -0.00000000000E+00 -0.23921226629E+03  0.23921226629E+03  0.00000000000E+00 0. -1.
         24    2    1    2    0    0 -0.35733480107E+01 -0.12132222298E+02 -0.20319171708E+03  0.21521418459E+03  0.69787618686E+02 0.  0.
         25    2    1    2    0    0  0.62156443271E+01 -0.47257690752E+01  0.12960263828E+03  0.18031958265E+03  0.12512929677E+03 0.  0.
        -24    2    1    2    0    0 -0.26422963164E+01  0.16857991373E+02  0.35459211419E+03  0.36389380072E+03  0.79949716417E+02 0.  0.
        -11    1    3    3    0    0  0.32166080861E+02  0.25801321581E+01 -0.91085190100E+02  0.96632425693E+02  0.00000000000E+00 0.  1.
         12    1    3    3    0    0 -0.35739428872E+02 -0.14712354456E+02 -0.11210652699E+03  0.11858175889E+03  0.00000000000E+00 0. -1.
         11    1    5    5    0    0 -0.40704782715E+02  0.94696224223E+01  0.21460312589E+03  0.21863452318E+03  0.00000000000E+00 0. -1.
        -12    1    5    5    0    0  0.38062486398E+02  0.73883689506E+01  0.13998898830E+03  0.14525927754E+03  0.00000000000E+00 0.  1.
          5    1    4    4  501    0  0.54655086318E+02 -0.36773298178E+02  0.80860994379E+02  0.10438116081E+03  0.41800000000E+01 0. -1.
         -5    1    4    4    0  501 -0.48439441991E+02  0.32047529103E+02  0.48741643903E+02  0.75938421845E+02  0.41800000000E+01 0. -1.
</event>
<event>
11    1  0.1078607E-008  0.1295924E+03  0.7561462E-02  0.1119771E+00
         22   -1    0    0    0    0  0.00000000000E+00  0.00000000000E+00  0.55762656035E+02  0.55762656035E+02  0.00000000000E+00 0. -1.
         22   -1    0    0    0    0 -0.00000000000E+00 -0.00000000000E+00 -0.38668100604E+04  0.38668100604E+04  0.00000000000E+00 0. -1.
         24    2    1    2    0    0  0.15730360305E+02 -0.23067881747E+01 -0.30721311365E+04  0.30733114506E+04  0.83670707383E+02 0.  0.
         25    2    1    2    0    0 -0.46272066146E+02  0.14548484136E+02 -0.74860935517E+03  0.76054520670E+03  0.12514104961E+03 0.  0.
        -24    2    1    2    0    0  0.30541705841E+02 -0.12241695961E+02  0.96930872778E+01  0.88716059118E+02  0.81816430433E+02 0.  0.
        -11    1    3    3    0    0 -0.28028107864E+02 -0.20482668823E+02 -0.17201174349E+04  0.17204676994E+04  0.00000000000E+00 0.  1.
         12    1    3    3    0    0  0.43758468170E+02  0.18175880649E+02 -0.13520137015E+04  0.13528437512E+04  0.00000000000E+00 0. -1.
         11    1    5    5    0    0  0.55000311379E+02 -0.24241760546E+02  0.98292313919E+00  0.60113753368E+02  0.00000000000E+00 0. -1.
        -12    1    5    5    0    0 -0.24458605537E+02  0.12000064585E+02  0.87101641386E+01  0.28602305750E+02  0.00000000000E+00 0.  1.
          5    1    4    4  501    0 -0.33755533303E+02 -0.29054304086E+02 -0.65411453513E+03  0.65564234617E+03  0.41800000000E+01 0. -1.
         -5    1    4    4    0  501 -0.12516532844E+02  0.43602788222E+02 -0.94494820032E+02  0.10490286053E+03  0.41800000000E+01 0. -1.
</event>
<event>
11    1  0.1078607E-008  0.1528702E+03  0.7561462E-02  0.1093982E+00
         22   -1    0    0    0    0  0.00000000000E+00  0.00000000000E+00  0.15489673499E+04  0.15489673499E+04  0.00000000000E+00 0. -1.
         22   -1    0    0    0    0 -0.00000000000E+00 -0.00000000000E+00 -0.38659123902E+03  0.38659123902E+03  0.00000000000E+00 0. -1.
         24    2    1    2    0    0  0.63411341836E+01  0.28928408090E+02 -0.28614457503E+03  0.29857003353E+03  0.79926743519E+02 0.  0.
         25    2    1    2    0    0 -0.63588160816E+02 -0.94719628330E+02 -0.13800171642E+02  0.16986221160E+03  0.12508982375E+03 0.  0.
        -24    2    1    2    0    0  0.57247026633E+02  0.65791220240E+02  0.14623208575E+04  0.14671263438E+04  0.80446948110E+02 0.  0.
        -11    1    3    3    0    0  0.31564717860E+02 -0.13616199067E+02 -0.14469903208E+03  0.14872640040E+03  0.00000000000E+00 0.  1.
         12    1    3    3    0    0 -0.25223583676E+02  0.42544607157E+02 -0.14144554295E+03  0.14984363314E+03  0.00000000000E+00 0. -1.
         13    1    5    5    0    0  0.40056359526E+02  0.27371431008E+02  0.12343129230E+04  0.12352660034E+04  0.00000000000E+00 0. -1.
        -14    1    5    5    0    0  0.17190667107E+02  0.38419789233E+02  0.22800793454E+03  0.23186034041E+03  0.00000000000E+00 0.  1.
          5    1    4    4  501    0 -0.58324905777E+00  0.11821971877E+02 -0.41157457782E+02  0.43029152090E+02  0.41800000000E+01 0. -1.
         -5    1    4    4    0  501 -0.63004911758E+02 -0.10654160021E+03  0.27357286140E+02  0.12683305951E+03  0.41800000000E+01 0. -1.
</event>
<event>
11    1  0.1078607E-008  0.1365345E+03  0.7561462E-02  0.1111491E+00
         22   -1    0    0    0    0  0.00000000000E+00  0.00000000000E+00  0.21534422235E+03  0.21534422235E+03  0.00000000000E+00 0. -1.
         22   -1    0    0    0    0 -0.00000000000E+00 -0.00000000000E+00 -0.92055471852E+03  0.92055471852E+03  0.00000000000E+00 0.  1.
        -24    2    1    2    0    0 -0.62292770772E+01 -0.54300813234E+02 -0.85031250293E+03  0.85553623931E+03  0.76964419860E+02 0.  0.
         25    2    1    2    0    0  0.46208791103E+02  0.52051863792E+02  0.58194803949E+02  0.15452688290E+03  0.12508906201E+03 0.  0.
         24    2    1    2    0    0 -0.39979514025E+02  0.22489494425E+01  0.86907202807E+02  0.12583581867E+03  0.81721307161E+02 0.  0.
        -13    1    5    5    0    0 -0.29459582331E+02  0.29678648516E+02  0.92787141523E+01  0.42834375274E+02  0.00000000000E+00 0.  1.
         14    1    5    5    0    0 -0.10519931695E+02 -0.27429699073E+02  0.77628488655E+02  0.83001443391E+02  0.00000000000E+00 0. -1.
         11    1    3    3    0    0  0.11259649467E+02  0.17324165090E+02 -0.19035793194E+03  0.19147597409E+03  0.00000000000E+00 0. -1.
        -12    1    3    3    0    0 -0.17488926544E+02 -0.71624978324E+02 -0.65995457099E+03  0.66406026522E+03  0.00000000000E+00 0.  1.
          5    1    4    4  501    0  0.73464951139E+02  0.42687793729E+02  0.81056994557E+02  0.11750342780E+03  0.41800000000E+01 0. -1.
         -5    1    4    4    0  501 -0.27256160036E+02  0.93640700627E+01 -0.22862190608E+02  0.37023455099E+02  0.41800000000E+01 0. -1.
</event>
<event>
11    1  0.1078607E-008  0.1416897E+03  0.7561462E-02  0.1105686E+00
         22   -1    0    0    0    0  0.00000000000E+00  0.00000000000E+00  0.75487124711E+03  0.75487124711E+03  0.00000000000E+00 0. -1.
         22   -1    0    0    0    0 -0.00000000000E+00 -0.00000000000E+00 -0.38029175947E+03  0.38029175947E+03  0.00000000000E+00 0. -1.
        -24    2    1    2    0    0  0.22074477499E+02  0.24712310122E+02 -0.33715932999E+03  0.34849738029E+03  0.81706973037E+02 0.  0.
         25    2    1    2    0    0 -0.85740769563E+02 -0.17572715463E+02  0.14492164714E+03  0.21050036225E+03  0.12509132185E+03 0.  0.
         24    2    1    2    0    0  0.63666292064E+02 -0.71395946584E+01  0.56681717050E+03  0.57616526404E+03  0.81119271208E+02 0.  0.
        -13    1    5    5    0    0  0.19081866695E+01 -0.34671816784E+02  0.23249043163E+03  0.23506930224E+03  0.00000000000E+00 0.  1.
         14    1    5    5    0    0  0.61758105395E+02  0.27532222126E+02  0.33432673887E+03  0.34109596181E+03  0.00000000000E+00 0. -1.
         13    1    3    3    0    0  0.11307631503E+02  0.29868179722E+02 -0.33481121334E+03  0.33633096686E+03  0.00000000000E+00 0. -1.
        -14    1    3    3    0    0  0.10766845996E+02 -0.51558696000E+01 -0.23481166508E+01  0.12166413434E+02  0.00000000000E+00 0.  1.
          5    1    4    4  501    0  0.23195654877E+02  0.67683697604E+01 -0.34700247803E+01  0.24766160509E+02  0.41800000000E+01 0. -1.
         -5    1    4    4    0  501 -0.10893642444E+03 -0.24341085224E+02  0.14839167192E+03  0.18573420174E+03  0.41800000000E+01 0. -1.
</event>
<event>
11    1  0.1078607E-008  0.1384579E+03  0.7561462E-02  0.1109293E+00
         22   -1    0    0    0    0  0.00000000000E+00  0.00000000000E+00  0.29471853327E+03  0.29471853327E+03  0.00000000000E+00 0. -1.
         22   -1    0    0    0    0 -0.00000000000E+00 -0.00000000000E+00 -0.33625495670E+03  0.33625495670E+03  0.00000000000E+00 0.  1.
        -24    2    1    2    0    0  0.47759806407E+02 -0.47093209395E+02 -0.26619151146E+03  0.28605098943E+03  0.80426850637E+02 0.  0.
         25    2    1    2    0    0 -0.49381981405E+02 -0.22845252126E+02  0.60174087130E+02  0.14909369889E+03  0.12509006617E+03 0.  0.
         24    2    1    2    0    0  0.16221749979E+01  0.69938461521E+02  0.16448100090E+03  0.19582880165E+03  0.80005625107E+02 0.  0.
        -11    1    5    5    0    0  0.38514732842E+02  0.37896874609E+02  0.61643550365E+02  0.81972465210E+02  0.00000000000E+00 0.  1.
         12    1    5    5    0    0 -0.36892557844E+02  0.32041586912E+02  0.10283745053E+03  0.11385633644E+03  0.00000000000E+00 0. -1.
         11    1    3    3    0    0 -0.21282341378E+02 -0.70318375218E+01 -0.35949780890E+02  0.42364744063E+02  0.00000000000E+00 0. -1.
        -12    1    3    3    0    0  0.69042147785E+02 -0.40061371873E+02 -0.23024173057E+03  0.24368624537E+03  0.00000000000E+00 0.  1.
          5    1    4    4  501    0 -0.10429633362E+02  0.51313442434E+02  0.24113161660E+02  0.57799339025E+02  0.41800000000E+01 0. -1.
         -5    1    4    4    0  501 -0.38952348043E+02 -0.74158694560E+02  0.36060925470E+02  0.91294359862E+02  0.41800000000E+01 0. -1.
</event>
<event>
11    1  0.1078607E-008  0.1790808E+03  0.7561462E-02  0.1070389E+00
         22   -1    0    0    0    0  0.00000000000E+00  0.00000000000E+00  0.15743385347E+03  0.15743385347E+03  0.00000000000E+00 0. -1.
         22   -1    0    0    0    0 -0.00000000000E+00 -0.00000000000E+00 -0.25424713758E+04  0.25424713758E+04  0.00000000000E+00 0.  1.
        -24    2    1    2    0    0 -0.61007855969E+02  0.12026777302E+02 -0.13866206311E+04  0.13904302140E+04  0.81931700700E+02 0.  0.
         25    2    1    2    0    0 -0.56771078781E+02 -0.66734836096E+02 -0.11090667430E+04  0.11195332052E+04  0.12509621683E+03 0.  0.
         24    2    1    2    0    0  0.11777893475E+03  0.54708058793E+02  0.11064985172E+03  0.18994181006E+03  0.83484443787E+02 0.  0.
        -11    1    5    5    0    0  0.93431181633E+02 -0.10683991202E+01  0.70125243490E+02  0.11682498428E+03  0.00000000000E+00 0.  1.
         12    1    5    5    0    0  0.24347753117E+02  0.55776457914E+02  0.40524608235E+02  0.73116825778E+02  0.00000000000E+00 0. -1.
         11    1    3    3    0    0  0.75170878194E+01  0.13438323689E+02 -0.56968472239E+02  0.59012727289E+02  0.00000000000E+00 0. -1.
        -12    1    3    3    0    0 -0.68524943789E+02 -0.14115463867E+01 -0.13296521588E+04  0.13314174867E+04  0.00000000000E+00 0.  1.
          5    1    4    4  501    0 -0.91003602297E+00  0.77681860780E+01 -0.69695224682E+03  0.69700866539E+03  0.41800000000E+01 0.  1.
         -5    1    4    4    0  501 -0.55861042758E+02 -0.74503022174E+02 -0.41211449614E+03  0.42252453981E+03  0.41800000000E+01 0.  1.
</event>
<event>
11    1  0.1078607E-008  0.2039438E+03  0.7561462E-02  0.1051769E+00
         22   -1    0    0    0    0  0.00000000000E+00  0.00000000000E+00  0.14165197473E+04  0.14165197473E+04  0.00000000000E+00 0. -1.
         22   -1    0    0    0    0 -0.00000000000E+00 -0.00000000000E+00 -0.19495138291E+03  0.19495138291E+03  0.00000000000E+00 0. -1.
        -24    2    1    2    0    0  0.62312350534E+02  0.14970191003E+03 -0.10852203823E+03  0.21074789648E+03  0.79650186402E+02 0.  0.
         25    2    1    2    0    0 -0.50015876753E+02 -0.14684699092E+03  0.26051694911E+03  0.32800011230E+03  0.12509742691E+03 0.  0.
         24    2    1    2    0    0 -0.12296473781E+02 -0.28549191041E+01  0.10695734535E+04  0.10727231214E+04  0.81167536488E+02 0.  0.
        -13    1    5    5    0    0 -0.46163775825E+02  0.21113042467E+01  0.50373142089E+03  0.50584671215E+03  0.00000000000E+00 0.  1.
         14    1    5    5    0    0  0.33867302044E+02 -0.49662233509E+01  0.56584203259E+03  0.56687640926E+03  0.00000000000E+00 0. -1.
         13    1    3    3    0    0  0.21689139730E+02  0.94343664832E+02 -0.10377934329E+03  0.14192004077E+03  0.00000000000E+00 0. -1.
        -14    1    3    3    0    0  0.40623210804E+02  0.55358245196E+02 -0.47426949395E+01  0.68827855716E+02  0.00000000000E+00 0.  1.
          5    1    4    4  501    0  0.25323751656E+02 -0.17102641392E+02  0.11457275816E+03  0.11865151517E+03  0.41800000000E+01 0. -1.
         -5    1    4    4    0  501 -0.75339628409E+02 -0.12974434953E+03  0.14594419095E+03  0.20934859712E+03  0.41800000000E+01 0. -1.
</event>
<event>
11    1  0.1078607E-008  0.1700671E+03  0.7561462E-02  0.1077973E+00
         22   -1    0    0    0    0  0.00000000000E+00  0.00000000000E+00  0.54128294654E+03  0.54128294654E+03  0.00000000000E+00 0. -1.
         22   -1    0    0    0    0 -0.00000000000E+00 -0.00000000000E+00 -0.14908284100E+03  0.14908284100E+03  0.00000000000E+00 0.  1.
        -24    2    1    2    0    0 -0.96707187297E+02 -0.48055851462E+02 -0.31292661205E+02  0.13760814291E+03  0.79341826394E+02 0.  0.
         25    2    1    2    0    0  0.12688748205E+03  0.46951223145E+02  0.84470102957E+02  0.20269719301E+03  0.12508438474E+03 0.  0.
         24    2    1    2    0    0 -0.30180294751E+02  0.11046283174E+01  0.33902266378E+03  0.35006045161E+03  0.81816152625E+02 0.  0.
        -13    1    5    5    0    0 -0.35628646646E+02  0.33158220805E+02  0.26158009578E+03  0.26606956718E+03  0.00000000000E+00 0.  1.
         14    1    5    5    0    0  0.54483518943E+01 -0.32053592488E+02  0.77442568001E+02  0.83990884436E+02  0.00000000000E+00 0. -1.
         11    1    3    3    0    0 -0.16027666497E+02 -0.29592781193E+02  0.21036040926E+02  0.39687955477E+02  0.00000000000E+00 0. -1.
        -12    1    3    3    0    0 -0.80679520800E+02 -0.18463070269E+02 -0.52328702132E+02  0.97920187434E+02  0.00000000000E+00 0.  1.
          5    1    4    4  501    0  0.90519521487E+02 -0.64009003739E+00  0.10550335718E+03  0.13907776336E+03  0.41800000000E+01 0. -1.
         -5    1    4    4    0  501  0.36367960562E+02  0.47591313182E+02 -0.21033254223E+02  0.63619429651E+02  0.41800000000E+01 0. -1.
</event>
<event>
11    1  0.1078607E-008  0.1676070E+03  0.7561462E-02  0.1080133E+00
         22   -1    0    0    0    0  0.00000000000E+00  0.00000000000E+00  0.27385657802E+03  0.27385657802E+03  0.00000000000E+00 0.  1.
         22   -1    0    0    0    0 -0.00000000000E+00 -0.00000000000E+00 -0.25051974086E+04  0.25051974086E+04  0.00000000000E+00 0. -1.
        -24    2    1    2    0    0  0.35683356918E+02  0.13320462612E+02 -0.24074271902E+04  0.24090503956E+04  0.79795962243E+02 0.  0.
         25    2    1    2    0    0 -0.13100414492E+03 -0.45214270970E+02  0.57731916219E+02  0.19541519392E+03  0.12509079734E+03 0.  0.
         24    2    1    2    0    0  0.95320788000E+02  0.31893808358E+02  0.11835444340E+03  0.17458839714E+03  0.79812696390E+02 0.  0.
        -13    1    5    5    0    0  0.69764103088E+02  0.13690909698E+00  0.11392018908E+03  0.13358464846E+03  0.00000000000E+00 0.  1.
         14    1    5    5    0    0  0.25556684912E+02  0.31756899261E+02  0.44342543251E+01  0.41003748680E+02  0.00000000000E+00 0. -1.
         13    1    3    3    0    0  0.16356286077E+02  0.37029217790E+02 -0.20240888598E+04  0.20244936165E+04  0.00000000000E+00 0. -1.
        -14    1    3    3    0    0  0.19327070841E+02 -0.23708755179E+02 -0.38333833045E+03  0.38455677907E+03  0.00000000000E+00 0.  1.
          5    1    4    4  501    0 -0.67820175166E+02 -0.86071578277E+02  0.21292171099E+02  0.11170819888E+03  0.41800000000E+01 0.  1.
         -5    1    4    4    0  501 -0.63183969752E+02  0.40857307307E+02  0.36439745119E+02  0.83706995038E+02  0.41800000000E+01 0.  1.
</event>
<event>
11    1  0.1078607E-008  0.1322790E+03  0.7561462E-02  0.1116500E+00
         22   -1    0    0    0    0  0.00000000000E+00  0.00000000000E+00  0.32058006439E+03  0.32058006439E+03  0.00000000000E+00 0. -1.
         22   -1    0    0    0    0 -0.00000000000E+00 -0.00000000000E+00 -0.46508041770E+03  0.46508041770E+03  0.00000000000E+00 0.  1.
         24    2    1    2    0    0  0.30469010560E+02  0.22363450276E+00 -0.38463312011E+03  0.39384860577E+03  0.79029592950E+02 0.  0.
         25    2    1    2    0    0 -0.33744137353E+02 -0.42567510986E+02  0.57004114146E+01  0.13648977065E+03  0.12508518300E+03 0.  0.
        -24    2    1    2    0    0  0.32751267927E+01  0.42343876483E+02  0.23443235538E+03  0.25532210567E+03  0.91799335848E+02 0.  0.
        -11    1    3    3    0    0  0.52450060163E+02 -0.16101151855E+02 -0.29743015049E+03  0.30244826057E+03  0.00000000000E+00 0.  1.
         12    1    3    3    0    0 -0.21981049603E+02  0.16324786358E+02 -0.87202969619E+02  0.91400345194E+02  0.00000000000E+00 0. -1.
         13    1    5    5    0    0  0.30395429562E+02  0.30559803489E+01  0.18145432691E+03  0.18400786371E+03  0.00000000000E+00 0. -1.
        -14    1    5    5    0    0 -0.27120302769E+02  0.39287896134E+02  0.52978028474E+02  0.71314241957E+02  0.00000000000E+00 0.  1.
          5    1    4    4  501    0 -0.10787295769E+02 -0.61807724370E+02 -0.45090141465E+02  0.77376700622E+02  0.41800000000E+01 0.  1.
         -5    1    4    4    0  501 -0.22956841584E+02  0.19240213384E+02  0.50790552880E+02  0.59113070030E+02  0.41800000000E+01 0.  1.
</event>
<event>
11    1  0.1078607E-008  0.1355597E+03  0.7561462E-02  0.1112620E+00
         22   -1    0    0    0    0  0.00000000000E+00  0.00000000000E+00  0.71957415005E+03  0.71957415005E+03  0.00000000000E+00 0. -1.
         22   -1    0    0    0    0 -0.00000000000E+00 -0.00000000000E+00 -0.13957455160E+03  0.13957455160E+03  0.00000000000E+00 0.  1.
         24    2    1    2    0    0  0.28109759063E+02  0.35973763743E+02 -0.98667839991E+02  0.13684966754E+03  0.83115694223E+02 0.  0.
         25    2    1    2    0    0  0.28576070236E+02 -0.82218740811E+01  0.24418475150E+03  0.27596637478E+03  0.12508819345E+03 0.  0.
        -24    2    1    2    0    0 -0.56685829299E+02 -0.27751889662E+02  0.43448268695E+03  0.44633265933E+03  0.80337954312E+02 0.  0.
        -11    1    3    3    0    0  0.10360670225E+02  0.24984770925E+02 -0.10987557769E+03  0.11315575478E+03  0.00000000000E+00 0.  1.
         12    1    3    3    0    0  0.17749088838E+02  0.10988992818E+02  0.11207737704E+02  0.23693912766E+02  0.00000000000E+00 0. -1.
         13    1    5    5    0    0 -0.39888368177E+02 -0.21257235544E+01  0.39157791346E+03  0.39361003916E+03  0.00000000000E+00 0. -1.
        -14    1    5    5    0    0 -0.16797461123E+02 -0.25626166108E+02  0.42904773483E+02  0.52722620166E+02  0.00000000000E+00 0.  1.
          5    1    4    4  501    0  0.42727410256E+02 -0.57104187183E+02  0.99163640547E+02  0.12221873747E+03  0.41800000000E+01 0. -1.
         -5    1    4    4    0  501 -0.14151340020E+02  0.48882313102E+02  0.14502111095E+03  0.15374763731E+03  0.41800000000E+01 0. -1.
</event>
<event>
11    1  0.1078607E-008  0.3000108E+03  0.7561462E-02  0.1000187E+00
         22   -1    0    0    0    0  0.00000000000E+00  0.00000000000E+00  0.15266874719E+04  0.15266874719E+04  0.00000000000E+00 0. -1.
         22   -1    0    0    0    0 -0.00000000000E+00 -0.00000000000E+00 -0.11894777523E+03  0.11894777523E+03  0.00000000000E+00 0. -1.
         24    2    1    2    0    0  0.59591036072E+02  0.10674429638E+03  0.15026937277E+03  0.21459342366E+03  0.92325601528E+02 0.  0.
         25    2    1    2    0    0  0.22239937230E+03 -0.13448983750E+03  0.25300914769E+03  0.38368007064E+03  0.12509104926E+03 0.  0.
        -24    2    1    2    0    0 -0.28199040837E+03  0.27745541121E+02  0.10044611762E+04  0.10473617528E+04  0.87954427483E+02 0.  0.
        -11    1    3    3    0    0  0.57209180282E+02  0.12977138649E+02  0.68221021613E+02  0.89974464299E+02  0.00000000000E+00 0.  1.
         12    1    3    3    0    0  0.23818557903E+01  0.93767157726E+02  0.82048351161E+02  0.12461895937E+03  0.00000000000E+00 0. -1.
         13    1    5    5    0    0 -0.20924805960E+03  0.56005015948E+02  0.78936461480E+03  0.81854615469E+03  0.00000000000E+00 0. -1.
        -14    1    5    5    0    0 -0.72742348768E+02 -0.28259474827E+02  0.21509656137E+03  0.22881559810E+03  0.00000000000E+00 0.  1.
          5    1    4    4  501    0  0.11417077663E+03 -0.95574074621E+02  0.63416707898E+02  0.16189046055E+03  0.41800000000E+01 0.  1.
         -5    1    4    4    0  501  0.10822859567E+03 -0.38915762875E+02  0.18959243979E+03  0.22178961010E+03  0.41800000000E+01 0.  1.
</event>
<event>
11    1  0.1078607E-008  0.1330421E+03  0.7561462E-02  0.1115587E+00
         22   -1    0    0    0    0  0.00000000000E+00  0.00000000000E+00  0.78728889216E+03  0.78728889216E+03  0.00000000000E+00 0.  1.
         22   -1    0    0    0    0 -0.00000000000E+00 -0.00000000000E+00 -0.25908674292E+03  0.25908674292E+03  0.00000000000E+00 0.  1.
         24    2    1    2    0    0 -0.15277903867E+02  0.42220926332E+02 -0.23171516008E+03  0.24983762141E+03  0.81920087237E+02 0.  0.
         25    2    1    2    0    0 -0.43787237497E+01 -0.70790879156E+02  0.37528226704E+03  0.40188252705E+03  0.12506903612E+03 0.  0.
        -24    2    1    2    0    0  0.19656627617E+02  0.28569952824E+02  0.38463504228E+03  0.39465548663E+03  0.81278608268E+02 0.  0.
        -13    1    3    3    0    0  0.29214363973E+02  0.12633649500E+02 -0.14107177286E+03  0.14461788707E+03  0.00000000000E+00 0.  1.
         14    1    3    3    0    0 -0.44492267840E+02  0.29587276832E+02 -0.90643387218E+02  0.10521973434E+03  0.00000000000E+00 0. -1.
         11    1    5    5    0    0  0.11681706004E+02 -0.28387700602E+02  0.12285469806E+03  0.12663175209E+03  0.00000000000E+00 0. -1.
        -12    1    5    5    0    0  0.79749216128E+01  0.56957653426E+02  0.26178034422E+03  0.26802373454E+03  0.00000000000E+00 0.  1.
          5    1    4    4  501    0 -0.48331028615E+02 -0.39636783276E+01  0.63680663796E+02  0.80151721219E+02  0.41800000000E+01 0. -1.
         -5    1    4    4    0  501  0.43952304865E+02 -0.66827200828E+02  0.31160160325E+03  0.32173080583E+03  0.41800000000E+01 0. -1.
</event>
<event>
11    1  0.1078607E-008  0.2048836E+03  0.7561462E-02  0.1051123E+00
         22   -1    0    0    0    0  0.00000000000E+00  0.00000000000E+00  0.20843244366E+04  0.20843244366E+04  0.00000000000E+00 0. -1.
         22   -1    0    0    0    0 -0.00000000000E+00 -0.00000000000E+00 -0.21155869633E+03  0.21155869633E+03  0.00000000000E+00 0. -1.
         24    2    1    2    0    0 -0.13487382533E+03  0.93452783227E+02 -0.15297927907E+03  0.23836628419E+03  0.80569561019E+02 0.  0.
         25    2    1    2    0    0  0.15330481565E+03 -0.64879653898E+01  0.73347876184E+03  0.75972075546E+03  0.12506027351E+03 0.  0.
        -24    2    1    2    0    0 -0.18430990316E+02 -0.86964817837E+02  0.12922662575E+04  0.12977960933E+04  0.80125142847E+02 0.  0.
        -11    1    3    3    0    0 -0.45788023638E+02  0.13241553518E+02 -0.50015948833E+01  0.47925961646E+02  0.00000000000E+00 0.  1.
         12    1    3    3    0    0 -0.89085801695E+02  0.80211229709E+02 -0.14797768419E+03  0.19044032255E+03  0.00000000000E+00 0. -1.
         11    1    5    5    0    0 -0.20333815019E+01 -0.93503839604E+02  0.12124042473E+04  0.12160062342E+04  0.00000000000E+00 0. -1.
        -12    1    5    5    0    0 -0.16397608815E+02  0.65390217678E+01  0.79862010140E+02  0.81789859054E+02  0.00000000000E+00 0.  1.
          5    1    4    4  501    0  0.12684056428E+03  0.45249014111E+01  0.71306112316E+03  0.72428077514E+03  0.41800000000E+01 0. -1.
         -5    1    4    4    0  501  0.26464251368E+02 -0.11012866801E+02  0.20417638681E+02  0.35439980318E+02  0.41800000000E+01 0. -1.
</event>
<event>
11    1  0.1078607E-008  0.1266664E+03  0.7561462E-02  0.1123434E+00
         22   -1    0    0    0    0  0.00000000000E+00  0.00000000000E+00  0.16851611813E+04  0.16851611813E+04  0.00000000000E+00 0.  1.
         22   -1    0    0    0    0 -0.00000000000E+00 -0.00000000000E+00 -0.25209981995E+02  0.25209981995E+02  0.00000000000E+00 0.  1.
        -24    2    1    2    0    0 -0.11717501522E+02  0.11667936081E+02  0.86374973237E+02  0.11899303493E+03  0.80157755614E+02 0.  0.
         25    2    1    2    0    0 -0.69969303817E+01 -0.20610775919E+02  0.54979048329E+03  0.56426142750E+03  0.12509045496E+03 0.  0.
         24    2    1    2    0    0  0.18714431904E+02  0.89428398385E+01  0.10237857427E+04  0.10271167008E+04  0.80007910590E+02 0.  0.
        -13    1    5    5    0    0 -0.52514921804E+00  0.73984901842E+01  0.96903456386E+03  0.96906294914E+03  0.00000000000E+00 0.  1.
         14    1    5    5    0    0  0.19239581122E+02  0.15443496542E+01  0.54751178883E+02  0.58053751702E+02  0.00000000000E+00 0. -1.
         13    1    3    3    0    0 -0.33663451204E+02 -0.20922631097E+02  0.27614947809E+02  0.48307036563E+02  0.00000000000E+00 0. -1.
        -14    1    3    3    0    0  0.21945949682E+02  0.32590567178E+02  0.58760025428E+02  0.70685998364E+02  0.00000000000E+00 0.  1.
          5    1    4    4  501    0 -0.33005937299E+02  0.24779085267E+02  0.44631141403E+03  0.44823514550E+03  0.41800000000E+01 0. -1.
         -5    1    4    4    0  501  0.26009006917E+02 -0.45389861187E+02  0.10347906926E+03  0.11602628200E+03  0.41800000000E+01 0. -1.
</event>
<event>
11    1  0.1078607E-008  0.1504622E+03  0.7561462E-02  0.1096407E+00
         22   -1    0    0    0    0  0.00000000000E+00  0.00000000000E+00  0.13024079501E+04  0.13024079501E+04  0.00000000000E+00 0.  1.
         22   -1    0    0    0    0 -0.00000000000E+00 -0.00000000000E+00 -0.61679834901E+02  0.61679834901E+02  0.00000000000E+00 0. -1.
         24    2    1    2    0    0 -0.26016657897E+02 -0.78469423693E+02  0.22202352162E+02  0.11672503302E+03  0.79356612512E+02 0.  0.
         25    2    1    2    0    0  0.20517827542E+02  0.88306638896E+02  0.48097509667E+03  0.50517659611E+03  0.12508919185E+03 0.  0.
        -24    2    1    2    0    0  0.54988303546E+01 -0.98372152023E+01  0.73755066637E+03  0.74218615588E+03  0.82050573260E+02 0.  0.
        -13    1    3    3    0    0  0.23223490139E+02 -0.82697543004E+01  0.18636507517E+02  0.30903701119E+02  0.00000000000E+00 0.  1.
         14    1    3    3    0    0 -0.49240148036E+02 -0.70199669393E+02  0.35658446449E+01  0.85821331903E+02  0.00000000000E+00 0. -1.
         11    1    5    5    0    0  0.42601296934E+02  0.14978923450E+01  0.31772935321E+03  0.32057613147E+03  0.00000000000E+00 0. -1.
        -12    1    5    5    0    0 -0.37102466579E+02 -0.11335107547E+02  0.41982131316E+03  0.42161002440E+03  0.00000000000E+00 0.  1.
          5    1    4    4  501    0  0.38502388026E+02 -0.13383524257E+00  0.42537764977E+02  0.57527260015E+02  0.41800000000E+01 0.  1.
         -5    1    4    4    0  501 -0.17984560483E+02  0.88440474138E+02  0.43843733169E+03  0.44764933609E+03  0.41800000000E+01 0.  1.
</event>
<event>
11    1  0.1078607E-008  0.1298650E+03  0.7561462E-02  0.1119435E+00
         22   -1    0    0    0    0  0.00000000000E+00  0.00000000000E+00  0.20811908794E+03  0.20811908794E+03  0.00000000000E+00 0. -1.
         22   -1    0    0    0    0 -0.00000000000E+00 -0.00000000000E+00 -0.39046407774E+03  0.39046407774E+03  0.00000000000E+00 0.  1.
        -24    2    1    2    0    0  0.42716712987E+02  0.20251364527E+01 -0.30587833055E+03  0.31868394136E+03  0.78543507903E+02 0.  0.
         25    2    1    2    0    0 -0.22936217345E+02 -0.35738581384E+02  0.29363364240E+02  0.13532651184E+03  0.12509093245E+03 0.  0.
         24    2    1    2    0    0 -0.19780495642E+02  0.33713444931E+02  0.94169976501E+02  0.14457271249E+03  0.10249595282E+03 0.  0.
        -13    1    5    5    0    0  0.18086351734E+02  0.35551051675E+02 -0.32663262585E+01  0.40020773124E+02  0.00000000000E+00 0.  1.
         14    1    5    5    0    0 -0.37866847376E+02 -0.18376067436E+01  0.97436302759E+02  0.10455193936E+03  0.00000000000E+00 0. -1.
         11    1    3    3    0    0  0.44882813032E+02 -0.31802451639E+02 -0.17205611034E+03  0.18063545593E+03  0.00000000000E+00 0. -1.
        -12    1    3    3    0    0 -0.21661000449E+01  0.33827588092E+02 -0.13382222021E+03  0.13804848542E+03  0.00000000000E+00 0.  1.
          5    1    4    4  501    0 -0.68837806083E+02 -0.29796476906E+02 -0.81978658976E+01  0.75572157489E+02  0.41800000000E+01 0. -1.
         -5    1    4    4    0  501  0.45901588738E+02 -0.59421044781E+01  0.37561230137E+02  0.59754354349E+02  0.41800000000E+01 0. -1.
</event>
<event>
11    1  0.1078607E-008  0.2890182E+03  0.7561462E-02  0.1004949E+00
         22   -1    0    0    0    0  0.00000000000E+00  0.00000000000E+00  0.18208202182E+04  0.18208202182E+04  0.00000000000E+00 0. -1.
         22   -1    0    0    0    0 -0.00000000000E+00 -0.00000000000E+00 -0.31244276184E+03  0.31244276184E+03  0.00000000000E+00 0. -1.
        -24    2    1    2    0    0 -0.23652679813E+03  0.93531826963E+02 -0.15395604939E+03  0.30805815039E+03  0.80648806488E+02 0.  0.
         25    2    1    2    0    0  0.28677996163E+03 -0.48514888987E+02  0.23574874105E+03  0.39474236505E+03  0.12509046730E+03 0.  0.
         24    2    1    2    0    0 -0.50253163504E+02 -0.45016937976E+02  0.14265847647E+04  0.14304624646E+04  0.80789025496E+02 0.  0.
        -11    1    5    5    0    0  0.69926848575E+01  0.16770348176E+02  0.14894009696E+03  0.15004430913E+03  0.00000000000E+00 0.  1.
         12    1    5    5    0    0 -0.57245848361E+02 -0.61787286153E+02  0.12776446678E+04  0.12804181555E+04  0.00000000000E+00 0. -1.
         13    1    3    3    0    0 -0.16653559917E+03  0.91566923068E+02 -0.79958302203E+02  0.20618423141E+03  0.00000000000E+00 0. -1.
        -14    1    3    3    0    0 -0.69991198960E+02  0.19649038944E+01 -0.73997747185E+02  0.10187391898E+03  0.00000000000E+00 0.  1.
          5    1    4    4  501    0  0.26086578900E+03 -0.81913121846E+02  0.21251516833E+03  0.34632483101E+03  0.41800000000E+01 0. -1.
         -5    1    4    4    0  501  0.25914172633E+02  0.33398232859E+02  0.23233572721E+02  0.48417534042E+02  0.41800000000E+01 0. -1.
</event>
<event>
11    1  0.1078607E-008  0.1708717E+03  0.7561462E-02  0.1077276E+00
         22   -1    0    0    0    0  0.00000000000E+00  0.00000000000E+00  0.44604621394E+03  0.44604621394E+03  0.00000000000E+00 0. -1.
         22   -1    0    0    0    0 -0.00000000000E+00 -0.00000000000E+00 -0.24993979373E+04  0.24993979373E+04  0.00000000000E+00 0. -1.
         24    2    1    2    0    0  0.71982633036E+02  0.21378622039E+02 -0.22623181501E+04  0.22649852089E+04  0.80224929611E+02 0.  0.
         25    2    1    2    0    0  0.27300077662E+02  0.46385393430E+02 -0.20242194098E+03  0.24396519795E+03  0.12508987431E+03 0.  0.
        -24    2    1    2    0    0 -0.99282710698E+02 -0.67764015469E+02  0.41138836768E+03  0.43649374443E+03  0.82688460056E+02 0.  0.
        -11    1    3    3    0    0  0.81558635700E+02  0.25523413850E+02 -0.14010940942E+04  0.14036979435E+04  0.00000000000E+00 0.  1.
         12    1    3    3    0    0 -0.95760026640E+01 -0.41447918109E+01 -0.86122405586E+03  0.86128726539E+03  0.00000000000E+00 0. -1.
         11    1    5    5    0    0 -0.97123002372E+02 -0.24728870444E+02  0.32246668399E+03  0.33768203521E+03  0.00000000000E+00 0. -1.
        -12    1    5    5    0    0 -0.21597083255E+01 -0.43035145025E+02  0.88921683690E+02  0.98811709214E+02  0.00000000000E+00 0.  1.
          5    1    4    4  501    0 -0.68247379082E+01 -0.40435318639E+02 -0.79997910454E+02  0.89992944823E+02  0.41800000000E+01 0.  1.
         -5    1    4    4    0  501  0.34124815570E+02  0.86820712069E+02 -0.12242403052E+03  0.15397225312E+03  0.41800000000E+01 0.  1.
</event>
<event>
11    1  0.1078607E-008  0.2403800E+03  0.7561462E-02  0.1029152E+00
         22   -1    0    0    0    0  0.00000000000E+00  0.00000000000E+00  0.35853573710E+04  0.35853573710E+04  0.00000000000E+00 0. -1.
         22   -1    0    0    0    0 -0.00000000000E+00 -0.00000000000E+00 -0.12026386935E+03  0.12026386935E+03  0.00000000000E+00 0.  1.
        -24    2    1    2    0    0 -0.19342900954E+03 -0.21197927573E+02  0.24546843106E+02  0.21233058880E+03  0.81348617505E+02 0.  0.
         25    2    1    2    0    0  0.31342015794E+03  0.31310564331E+01  0.11596796951E+04  0.12077844014E+04  0.12507664085E+03 0.  0.
         24    2    1    2    0    0 -0.11999114841E+03  0.18066871140E+02  0.22808669634E+04  0.22855062502E+04  0.80376782240E+02 0.  0.
        -11    1    5    5    0    0 -0.34577322945E+02  0.29068783530E+02  0.37768939703E+03  0.38038121150E+03  0.00000000000E+00 0.  1.
         12    1    5    5    0    0 -0.85413825463E+02 -0.11001912390E+02  0.19031775664E+04  0.19051250387E+04  0.00000000000E+00 0. -1.
         13    1    3    3    0    0 -0.44178646051E+02  0.46430208021E+01  0.40383004392E+02  0.60034135729E+02  0.00000000000E+00 0. -1.
        -14    1    3    3    0    0 -0.14925036348E+03 -0.25840948375E+02 -0.15836161286E+02  0.15229645307E+03  0.00000000000E+00 0.  1.
          5    1    4    4  501    0  0.24977974213E+03  0.44375149803E+02  0.76855950702E+03  0.80935793177E+03  0.41800000000E+01 0. -1.
         -5    1    4    4    0  501  0.63640415818E+02 -0.41244093370E+02  0.39112018810E+03  0.39842646964E+03  0.41800000000E+01 0. -1.
</event>
<event>
11    1  0.1078607E-008  0.1591431E+03  0.7561462E-02  0.1087886E+00
         22   -1    0    0    0    0  0.00000000000E+00  0.00000000000E+00  0.55672918791E+03  0.55672918791E+03  0.00000000000E+00 0.  1.
         22   -1    0    0    0    0 -0.00000000000E+00 -0.00000000000E+00 -0.53662779987E+03  0.53662779987E+03  0.00000000000E+00 0. -1.
        -24    2    1    2    0    0 -0.51967281251E+02 -0.81750230903E+02 -0.48368156034E+03  0.49975422138E+03  0.80141945361E+02 0.  0.
         25    2    1    2    0    0  0.69236593487E+02  0.14980752532E+03  0.31592328629E+03  0.37774488730E+03  0.12509067325E+03 0.  0.
         24    2    1    2    0    0 -0.17269312236E+02 -0.68057294420E+02  0.18785966208E+03  0.21585787910E+03  0.79833244092E+02 0.  0.
        -11    1    5    5    0    0 -0.25497020527E+02 -0.67051723582E+02  0.19313875946E+03  0.20603060961E+03  0.00000000000E+00 0.  1.
         12    1    5    5    0    0  0.82277082915E+01 -0.10055708379E+01 -0.52790973777E+01  0.98272694867E+01  0.00000000000E+00 0. -1.
         11    1    3    3    0    0 -0.32920824717E+02 -0.69696691208E+01 -0.27877350600E+03  0.28079712362E+03  0.00000000000E+00 0. -1.
        -12    1    3    3    0    0 -0.19046456535E+02 -0.74780561782E+02 -0.20490805434E+03  0.21895709776E+03  0.00000000000E+00 0.  1.
          5    1    4    4  501    0  0.40801936690E+02  0.80879295867E+00  0.13765404811E+03  0.14363690871E+03  0.41800000000E+01 0.  1.
         -5    1    4    4    0  501  0.28434656797E+02  0.14899873236E+03  0.17826923818E+03  0.23410797858E+03  0.41800000000E+01 0.  1.
</event>
<event>
11    1  0.1078607E-008  0.1371270E+03  0.7561462E-02  0.1110810E+00
         22   -1    0    0    0    0  0.00000000000E+00  0.00000000000E+00  0.36530907982E+03  0.36530907982E+03  0.00000000000E+00 0. -1.
         22   -1    0    0    0    0 -0.00000000000E+00 -0.00000000000E+00 -0.17711937298E+03  0.17711937298E+03  0.00000000000E+00 0. -1.
         24    2    1    2    0    0 -0.36746685961E+02 -0.32696898010E+02 -0.88968947306E+02  0.13267957286E+03  0.85258368505E+02 0.  0.
         25    2    1    2    0    0  0.74559152599E+02  0.50230494891E+02  0.47565911727E+02  0.16123749797E+03  0.12511133018E+03 0.  0.
        -24    2    1    2    0    0 -0.37812466637E+02 -0.17533596881E+02  0.22959274242E+03  0.24851138197E+03  0.85486080429E+02 0.  0.
        -11    1    3    3    0    0 -0.29338389532E+02 -0.72137588566E+01  0.87237336959E+01  0.31446509294E+02  0.00000000000E+00 0.  1.
         12    1    3    3    0    0 -0.74082964297E+01 -0.25483139153E+02 -0.97692681001E+02  0.10123306356E+03  0.00000000000E+00 0. -1.
         13    1    5    5    0    0 -0.62872750703E+02 -0.78838204122E+00  0.17775553650E+03  0.18854876049E+03  0.00000000000E+00 0. -1.
        -14    1    5    5    0    0  0.25060284066E+02 -0.16745214840E+02  0.51837205919E+02  0.59962621482E+02  0.00000000000E+00 0.  1.
          5    1    4    4  501    0  0.99767918641E+02  0.61088531687E+02  0.59148264230E+02  0.13115424452E+03  0.41800000000E+01 0. -1.
         -5    1    4    4    0  501 -0.25208766043E+02 -0.10858036795E+02 -0.11582352503E+02  0.30083253447E+02  0.41800000000E+01 0. -1.
</event>
<event>
11    1  0.1078607E-008  0.1443804E+03  0.7561462E-02  0.1102763E+00
         22   -1    0    0    0    0  0.00000000000E+00  0.00000000000E+00  0.21697944439E+04  0.21697944439E+04  0.00000000000E+00 0.  1.
         22   -1    0    0    0    0 -0.00000000000E+00 -0.00000000000E+00 -0.72905158484E+02  0.72905158484E+02  0.00000000000E+00 0.  1.
        -24    2    1    2    0    0  0.57873245406E+02 -0.46160928161E+02 -0.19102147623E+02  0.11003295521E+03  0.79134160546E+02 0.  0.
         25    2    1    2    0    0 -0.26190623072E+02  0.39560181733E+02  0.62508854227E+03  0.63924518201E+03  0.12509100821E+03 0.  0.
         24    2    1    2    0    0 -0.31682622333E+02  0.66007464287E+01  0.14909028908E+04  0.14934214652E+04  0.80429375859E+02 0.  0.
        -11    1    5    5    0    0 -0.26499367309E+02 -0.82508927775E+01  0.14370564909E+04  0.14373244768E+04  0.00000000000E+00 0.  1.
         12    1    5    5    0    0 -0.51832550244E+01  0.14851639206E+02  0.53846399871E+02  0.56096988322E+02  0.00000000000E+00 0. -1.
         13    1    3    3    0    0  0.34138783850E+02 -0.29298611693E+02  0.29201191270E+02  0.53633709377E+02  0.00000000000E+00 0. -1.
        -14    1    3    3    0    0  0.23734461556E+02 -0.16862316468E+02 -0.48303338893E+02  0.56399245830E+02  0.00000000000E+00 0.  1.
          5    1    4    4  501    0  0.27097306355E+02  0.71498201447E+01  0.48518506082E+03  0.48601172782E+03  0.41800000000E+01 0. -1.
         -5    1    4    4    0  501 -0.53287929427E+02  0.32410361588E+02  0.13990348146E+03  0.15323345419E+03  0.41800000000E+01 0. -1.
</event>
<event>
11    1  0.1078607E-008  0.1863563E+03  0.7561462E-02  0.1064614E+00
         22   -1    0    0    0    0  0.00000000000E+00  0.00000000000E+00  0.11212385437E+04  0.11212385437E+04  0.00000000000E+00 0.  1.
         22   -1    0    0    0    0 -0.00000000000E+00 -0.00000000000E+00 -0.46494550446E+03  0.46494550446E+03  0.00000000000E+00 0. -1.
         24    2    1    2    0    0 -0.24894844104E+02  0.34277354836E+02 -0.40628440094E+03  0.41626686143E+03  0.80102404246E+02 0.  0.
         25    2    1    2    0    0 -0.58868360301E+01 -0.16520071470E+03  0.18319789149E+03  0.27664875186E+03  0.12508850260E+03 0.  0.
        -24    2    1    2    0    0  0.30781680134E+02  0.13092335986E+03  0.87937954872E+03  0.89326843491E+03  0.80818736093E+02 0.  0.
        -13    1    3    3    0    0 -0.53194318474E+02  0.18602335657E+02 -0.21481431545E+03  0.22208303071E+03  0.00000000000E+00 0.  1.
         14    1    3    3    0    0  0.28299474371E+02  0.15675019179E+02 -0.19147008549E+03  0.19418383072E+03  0.00000000000E+00 0. -1.
         11    1    5    5    0    0 -0.10239618442E+02 -0.60452502350E+01  0.11654862099E+03  0.11715364224E+03  0.00000000000E+00 0. -1.
        -12    1    5    5    0    0  0.41021298576E+02  0.13696861010E+03  0.76283092774E+03  0.77611479267E+03  0.00000000000E+00 0.  1.
          5    1    4    4  501    0 -0.25381869958E+02 -0.16956598123E+03  0.18920951325E+03  0.25537144244E+03  0.41800000000E+01 0.  1.
         -5    1    4    4    0  501  0.19495033928E+02  0.43652665309E+01 -0.60116217555E+01  0.21277309414E+02  0.41800000000E+01 0.  1.
</event>
<event>
11    1  0.1078607E-008  0.1440151E+03  0.7561462E-02  0.1103156E+00
         22   -1    0    0    0    0  0.00000000000E+00  0.00000000000E+00  0.29179787732E+03  0.29179787732E+03  0.00000000000E+00 0. -1.
         22   -1    0    0    0    0 -0.00000000000E+00 -0.00000000000E+00 -0.14678369691E+04  0.14678369691E+04  0.00000000000E+00 0. -1.
         24    2    1    2    0    0  0.12143865926E+02 -0.26487471803E+02 -0.82130824074E+03  0.82580843861E+03  0.81014142784E+02 0.  0.
         25    2    1    2    0    0 -0.88824331249E+01 -0.45240158063E+02 -0.62694328953E+03  0.64096044097E+03  0.12508728584E+03 0.  0.
        -24    2    1    2    0    0 -0.32614328008E+01  0.71727629866E+02  0.27221243852E+03  0.29286596681E+03  0.80717860457E+02 0.  0.
        -13    1    3    3    0    0  0.27209934113E+02 -0.21877456048E+02 -0.13898426184E+03  0.14330257722E+03  0.00000000000E+00 0.  1.
         14    1    3    3    0    0 -0.15066068188E+02 -0.46100157546E+01 -0.68232397890E+03  0.68250586139E+03  0.00000000000E+00 0. -1.
         11    1    5    5    0    0 -0.14817952490E+02  0.87044852600E+02  0.23404506129E+03  0.25014689443E+03  0.00000000000E+00 0. -1.
        -12    1    5    5    0    0  0.11556519689E+02 -0.15317222734E+02  0.38167377235E+02  0.42719072375E+02  0.00000000000E+00 0.  1.
          5    1    4    4  501    0  0.16208425717E+02 -0.18603232531E+02 -0.58336884876E+03  0.58390536856E+03  0.41800000000E+01 0.  1.
         -5    1    4    4    0  501 -0.25090858842E+02 -0.26636925532E+02 -0.43574440764E+02  0.57055072405E+02  0.41800000000E+01 0.  1.
</event>
<event>
11    1  0.1078607E-008  0.1572808E+03  0.7561462E-02  0.1089663E+00
         22   -1    0    0    0    0  0.00000000000E+00  0.00000000000E+00  0.33455132651E+03  0.33455132651E+03  0.00000000000E+00 0. -1.
         22   -1    0    0    0    0 -0.00000000000E+00 -0.00000000000E+00 -0.21301869299E+04  0.21301869299E+04  0.00000000000E+00 0. -1.
         24    2    1    2    0    0  0.19655280091E+02 -0.20398577835E+01 -0.18636684952E+04  0.18655993664E+04  0.82524208306E+02 0.  0.
         25    2    1    2    0    0 -0.58442432660E+02  0.88609790302E+02 -0.22625499158E+03  0.27947517595E+03  0.12509132617E+03 0.  0.
        -24    2    1    2    0    0  0.38787152569E+02 -0.86569932518E+02  0.29428788342E+03  0.31966371401E+03  0.81121731411E+02 0.  0.
        -13    1    3    3    0    0 -0.28348441416E+02  0.16727100700E+02 -0.64001592229E+03  0.64086177200E+03  0.00000000000E+00 0.  1.
         14    1    3    3    0    0  0.48003721507E+02 -0.18766958484E+02 -0.12236525729E+04  0.12247375944E+04  0.00000000000E+00 0. -1.
         13    1    5    5    0    0  0.14139585565E+02 -0.55968125828E+02  0.26348875533E+03  0.26973817522E+03  0.00000000000E+00 0. -1.
        -14    1    5    5    0    0  0.24647567004E+02 -0.30601806691E+02  0.30799128089E+02  0.49925538785E+02  0.00000000000E+00 0.  1.
          5    1    4    4  501    0 -0.79406935707E+02  0.48702581260E+02 -0.21266134510E+03  0.23220620784E+03  0.41800000000E+01 0. -1.
         -5    1    4    4    0  501  0.20964503047E+02  0.39907209042E+02 -0.13593646486E+02  0.47268968112E+02  0.41800000000E+01 0. -1.
</event>
<event>
11    1  0.1078607E-008  0.1518207E+03  0.7561462E-02  0.1095033E+00
         22   -1    0    0    0    0  0.00000000000E+00  0.00000000000E+00  0.37222099961E+03  0.37222099961E+03  0.00000000000E+00 0.  1.
         22   -1    0    0    0    0 -0.00000000000E+00 -0.00000000000E+00 -0.10346931724E+04  0.10346931724E+04  0.00000000000E+00 0. -1.
         24    2    1    2    0    0 -0.14616680208E+02  0.39204961592E+02 -0.93807203441E+03  0.94236578023E+03  0.79520095839E+02 0.  0.
         25    2    1    2    0    0  0.49434909935E+02  0.43509690096E+02 -0.22397582809E+02  0.14312588134E+03  0.12508582151E+03 0.  0.
        -24    2    1    2    0    0 -0.34818229726E+02 -0.82714651688E+02  0.29799744448E+03  0.32142251039E+03  0.80348805527E+02 0.  0.
        -13    1    3    3    0    0 -0.25331086429E+02 -0.65521846290E+01 -0.11439108879E+03  0.11734528648E+03  0.00000000000E+00 0.  1.
         14    1    3    3    0    0  0.10714406221E+02  0.45757146221E+02 -0.82368094562E+03  0.82502049375E+03  0.00000000000E+00 0. -1.
         13    1    5    5    0    0  0.70381318914E+01 -0.34172845075E+02  0.30464081592E+02  0.46318235159E+02  0.00000000000E+00 0. -1.
        -14    1    5    5    0    0 -0.41856361618E+02 -0.48541806613E+02  0.26753336288E+03  0.27510427524E+03  0.00000000000E+00 0.  1.
          5    1    4    4  501    0  0.90906308979E+02  0.25387589584E+02 -0.24581569652E+02  0.97622808214E+02  0.41800000000E+01 0. -1.
         -5    1    4    4    0  501 -0.41471399044E+02  0.18122100512E+02  0.21839868433E+01  0.45503073129E+02  0.41800000000E+01 0. -1.
</event>
<event>
11    1  0.1078607E-008  0.2328772E+03  0.7561462E-02  0.1033438E+00
         22   -1    0    0    0    0  0.00000000000E+00  0.00000000000E+00  0.59962648219E+03  0.59962648219E+03  0.00000000000E+00 0.  1.
         22   -1    0    0    0    0 -0.00000000000E+00 -0.00000000000E+00 -0.23910387285E+03  0.23910387285E+03  0.00000000000E+00 0.  1.
        -24    2    1    2    0    0 -0.12246455356E+03  0.56509295636E+02 -0.91069438661E+02  0.18157152564E+03  0.80521480936E+02 0.  0.
         25    2    1    2    0    0  0.40724699819E+02  0.15806858980E+03  0.10156029250E+03  0.22936698067E+03  0.12510211250E+03 0.  0.
         24    2    1    2    0    0  0.81739853739E+02 -0.21457788543E+03  0.35003175549E+03  0.42779184873E+03  0.88082707624E+02 0.  0.
        -11    1    5    5    0    0  0.63951465138E+02 -0.13706416066E+03  0.15219543160E+03  0.21456892466E+03  0.00000000000E+00 0.  1.
         12    1    5    5    0    0  0.17788388601E+02 -0.77513724771E+02  0.19783632390E+03  0.21322292407E+03  0.00000000000E+00 0. -1.
         11    1    3    3    0    0 -0.45273837154E+02 -0.97340359835E+01 -0.19731358710E+01  0.46350459030E+02  0.00000000000E+00 0. -1.
        -12    1    3    3    0    0 -0.77190716404E+02  0.66243331619E+02 -0.89096302790E+02  0.13522106660E+03  0.00000000000E+00 0.  1.
          5    1    4    4  501    0 -0.34733688487E+02  0.51980055079E+02  0.72661208976E+02  0.95945187122E+02  0.41800000000E+01 0. -1.
         -5    1    4    4    0  501  0.75458388306E+02  0.10608853472E+03  0.28899083526E+02  0.13342179354E+03  0.41800000000E+01 0. -1.
</event>
<event>
11    1  0.1078607E-008  0.1587357E+03  0.7561462E-02  0.1088272E+00
         22   -1    0    0    0    0  0.00000000000E+00  0.00000000000E+00  0.10547528879E+04  0.10547528879E+04  0.00000000000E+00 0.  1.
         22   -1    0    0    0    0 -0.00000000000E+00 -0.00000000000E+00 -0.13956634772E+04  0.13956634772E+04  0.00000000000E+00 0. -1.
        -24    2    1    2    0    0  0.47307895935E+02  0.83256314615E+02 -0.12441987890E+04  0.12507148090E+04  0.84185840820E+02 0.  0.
         25    2    1    2    0    0  0.22222894124E+01 -0.16209403789E+03 -0.71709007871E+02  0.21695752608E+03  0.12509584575E+03 0.  0.
         24    2    1    2    0    0 -0.49530185348E+02  0.78837723273E+02  0.97499720760E+03  0.98274403008E+03  0.80607989363E+02 0.  0.
        -13    1    5    5    0    0 -0.25302936629E+02 -0.11875667937E+02  0.28954495331E+03  0.29089095908E+03  0.00000000000E+00 0.  1.
         14    1    5    5    0    0 -0.24227248719E+02  0.90713391209E+02  0.68545225429E+03  0.69185307099E+03  0.00000000000E+00 0. -1.
         11    1    3    3    0    0  0.59367718878E+02  0.65425559511E+02 -0.11732698111E+04  0.11765912967E+04  0.00000000000E+00 0. -1.
        -12    1    3    3    0    0 -0.12059822943E+02  0.17830755104E+02 -0.70928977957E+02  0.74123512268E+02  0.00000000000E+00 0.  1.
          5    1    4    4  501    0  0.45263918515E+02 -0.14372577877E+03 -0.77706621662E+02  0.16959278656E+03  0.41800000000E+01 0.  1.
         -5    1    4    4    0  501 -0.43041629102E+02 -0.18368259119E+02  0.59976137908E+01  0.47364739522E+02  0.41800000000E+01 0.  1.
</event>
<event>
11    1  0.1078607E-008  0.1744970E+03  0.7561462E-02  0.1074183E+00
         22   -1    0    0    0    0  0.00000000000E+00  0.00000000000E+00  0.23555146093E+03  0.23555146093E+03  0.00000000000E+00 0.  1.
         22   -1    0    0    0    0 -0.00000000000E+00 -0.00000000000E+00 -0.34254518240E+03  0.34254518240E+03  0.00000000000E+00 0. -1.
        -24    2    1    2    0    0 -0.14129571090E+03 -0.22924477908E+02 -0.13045306818E+03  0.20932937176E+03  0.79440375601E+02 0.  0.
         25    2    1    2    0    0  0.91867443714E+02 -0.75033906262E+02 -0.87564045746E+02  0.19335079832E+03  0.12508938724E+03 0.  0.
         24    2    1    2    0    0  0.49428267189E+02  0.97958384170E+02  0.11102339245E+03  0.17541647325E+03  0.80035909386E+02 0.  0.
        -11    1    5    5    0    0  0.63029730611E+02  0.87242517505E+02  0.11514756909E+03  0.15761651712E+03  0.00000000000E+00 0.  1.
         12    1    5    5    0    0 -0.13601463421E+02  0.10715866665E+02 -0.41241766362E+01  0.17799956138E+02  0.00000000000E+00 0. -1.
         11    1    3    3    0    0 -0.12574206974E+03 -0.47020817221E+02 -0.11490151538E+03  0.17670422630E+03  0.00000000000E+00 0. -1.
        -12    1    3    3    0    0 -0.15553641158E+02  0.24096339313E+02 -0.15551552802E+02  0.32625145458E+02  0.00000000000E+00 0.  1.
          5    1    4    4  501    0  0.65227808054E+02  0.23556825271E+01 -0.90126914751E+02  0.11135775387E+03  0.41800000000E+01 0.  1.
         -5    1    4    4    0  501  0.26639635659E+02 -0.77389588789E+02  0.25628690048E+01  0.81993044452E+02  0.41800000000E+01 0.  1.
</event>
<event>
11    1  0.1078607E-008  0.1353250E+03  0.7561462E-02  0.1112894E+00
         22   -1    0    0    0    0  0.00000000000E+00  0.00000000000E+00  0.59717812275E+03  0.59717812275E+03  0.00000000000E+00 0.  1.
         22   -1    0    0    0    0 -0.00000000000E+00 -0.00000000000E+00 -0.40308288183E+03  0.40308288183E+03  0.00000000000E+00 0. -1.
        -24    2    1    2    0    0 -0.99563285541E+00 -0.11520947154E+02 -0.22389763032E+03  0.23824510497E+03  0.80603087218E+02 0.  0.
         25    2    1    2    0    0  0.17107396329E+02  0.60291403895E+02 -0.13878266253E+03  0.19706727720E+03  0.12508864029E+03 0.  0.
         24    2    1    2    0    0 -0.16111763473E+02 -0.48770456740E+02  0.55677553377E+03  0.56494862241E+03  0.80807206289E+02 0.  0.
        -13    1    5    5    0    0 -0.16551072341E+02  0.60581370720E+01  0.36668508955E+03  0.36710842257E+03  0.00000000000E+00 0.  1.
         14    1    5    5    0    0  0.43930886734E+00 -0.54828593812E+02  0.19009044422E+03  0.19784019985E+03  0.00000000000E+00 0. -1.
         11    1    3    3    0    0  0.19347383298E+01 -0.41130992268E+02 -0.18355353017E+03  0.18811539059E+03  0.00000000000E+00 0. -1.
        -12    1    3    3    0    0 -0.29303711852E+01  0.29610045113E+02 -0.40344100150E+02  0.50129714380E+02  0.00000000000E+00 0.  1.
          5    1    4    4  501    0  0.34066052162E+02  0.74098024122E+02 -0.31543410080E+02  0.87541260033E+02  0.41800000000E+01 0.  1.
         -5    1    4    4    0  501 -0.16958655834E+02 -0.13806620228E+02 -0.10723925245E+03  0.10952601716E+03  0.41800000000E+01 0.  1.
</event>
<event>
11    1  0.1078607E-008  0.1344963E+03  0.7561462E-02  0.1113865E+00
         22   -1    0    0    0    0  0.00000000000E+00  0.00000000000E+00  0.89000067513E+03  0.89000067513E+03  0.00000000000E+00 0. -1.
         22   -1    0    0    0    0 -0.00000000000E+00 -0.00000000000E+00 -0.10581355278E+04  0.10581355278E+04  0.00000000000E+00 0. -1.
         24    2    1    2    0    0 -0.43694835443E+02 -0.15969563015E+02 -0.96619961400E+03  0.97076990464E+03  0.81781709971E+02 0.  0.
         25    2    1    2    0    0  0.91373774547E+02  0.21643516014E+02 -0.16486261742E+02  0.15727966727E+03  0.12508992146E+03 0.  0.
        -24    2    1    2    0    0 -0.47678939104E+02 -0.56739529984E+01  0.81455102309E+03  0.82008663098E+03  0.82117221850E+02 0.  0.
        -11    1    3    3    0    0  0.57927840179E+01 -0.36453528382E+02 -0.26971039116E+03  0.27222437653E+03  0.00000000000E+00 0.  1.
         12    1    3    3    0    0 -0.49487619461E+02  0.20483965367E+02 -0.69648922284E+03  0.69854552812E+03  0.00000000000E+00 0. -1.
         11    1    5    5    0    0 -0.68650150190E+02  0.92694294967E+01  0.57662607992E+03  0.58077224580E+03  0.00000000000E+00 0. -1.
        -12    1    5    5    0    0  0.20971211085E+02 -0.14943382495E+02  0.23792494317E+03  0.23931438519E+03  0.00000000000E+00 0.  1.
          5    1    4    4  501    0 -0.21227430305E+02 -0.25712776661E+02  0.20023742184E+01  0.33663520070E+02  0.41800000000E+01 0. -1.
         -5    1    4    4    0  501  0.11260120485E+03  0.47356292675E+02 -0.18488635960E+02  0.12361614720E+03  0.41800000000E+01 0. -1.
</event>
<event>
11    1  0.1078607E-008  0.1864768E+03  0.7561462E-02  0.1064521E+00
         22   -1    0    0    0    0  0.00000000000E+00  0.00000000000E+00  0.39318804368E+03  0.39318804368E+03  0.00000000000E+00 0. -1.
         22   -1    0    0    0    0 -0.00000000000E+00 -0.00000000000E+00 -0.26432335715E+03  0.26432335715E+03  0.00000000000E+00 0. -1.
        -24    2    1    2    0    0  0.10938157218E+03  0.39679599780E+02 -0.93985443606E+02  0.16967152969E+03  0.80102218483E+02 0.  0.
         25    2    1    2    0    0 -0.14547312010E+03 -0.15825974222E+03  0.36583052429E+02  0.25138243344E+03  0.12508490491E+03 0.  0.
         24    2    1    2    0    0  0.36091547911E+02  0.11858014244E+03  0.18626707771E+03  0.23645743770E+03  0.76503892660E+02 0.  0.
        -11    1    5    5    0    0 -0.19149010974E+02  0.71069912137E+01  0.18226823445E+02  0.27375372843E+02  0.00000000000E+00 0.  1.
         12    1    5    5    0    0  0.55240558886E+02  0.11147315123E+03  0.16804025426E+03  0.20908206485E+03  0.00000000000E+00 0. -1.
         13    1    3    3    0    0  0.11719587956E+03  0.29543312646E+02 -0.98688977506E+02  0.15603587981E+03  0.00000000000E+00 0. -1.
        -14    1    3    3    0    0 -0.78143073709E+01  0.10136287134E+02  0.47035339000E+01  0.13635649882E+02  0.00000000000E+00 0.  1.
          5    1    4    4  501    0 -0.20165513862E+02  0.51266938249E+01  0.40138423654E+02  0.45403704610E+02  0.41800000000E+01 0. -1.
         -5    1    4    4    0  501 -0.12530760623E+03 -0.16338643605E+03 -0.35553712249E+01  0.20597872883E+03  0.41800000000E+01 0. -1.
</event>
<event>
11    1  0.1078607E-008  0.1716458E+03  0.7561462E-02  0.1076608E+00
         22   -1    0    0    0    0  0.00000000000E+00  0.00000000000E+00  0.24253041421E+02  0.24253041421E+02  0.00000000000E+00 0. -1.
         22   -1    0    0    0    0 -0.00000000000E+00 -0.00000000000E+00 -0.19763877770E+04  0.19763877770E+04  0.00000000000E+00 0.  1.
        -24    2    1    2    0    0 -0.41828268943E+02  0.45336469670E+02 -0.48448741870E+03  0.49497427907E+03  0.80414417177E+02 0.  0.
         25    2    1    2    0    0 -0.32554863943E+02 -0.13169352308E+03 -0.10280766151E+04  0.10444999843E+04  0.12504274227E+03 0.  0.
         24    2    1    2    0    0  0.74383132886E+02  0.86357053413E+02 -0.43957070176E+03  0.46116655509E+03  0.80385313054E+02 0.  0.
        -11    1    5    5    0    0  0.61849761515E+02  0.10187491612E+03 -0.36440512771E+03  0.38339925487E+03  0.00000000000E+00 0.  1.
         12    1    5    5    0    0  0.12533371370E+02 -0.15517862708E+02 -0.75165574046E+02  0.77767300214E+02  0.00000000000E+00 0. -1.
         11    1    3    3    0    0 -0.31920354663E+01 -0.39345631726E+01  0.12496054867E+01  0.52183705933E+01  0.00000000000E+00 0. -1.
        -12    1    3    3    0    0 -0.38636233477E+02  0.49271032843E+02 -0.48573702419E+03  0.48975590847E+03  0.00000000000E+00 0.  1.
          5    1    4    4  501    0 -0.76030147969E+02 -0.48390095217E+02 -0.52867568037E+03  0.53631859201E+03  0.41800000000E+01 0.  1.
         -5    1    4    4    0  501  0.43475284026E+02 -0.83303427866E+02 -0.49940093474E+03  0.50818139226E+03  0.41800000000E+01 0.  1.
</event>
<event>
11    1  0.1078607E-008  0.1761877E+03  0.7561462E-02  0.1072769E+00
         22   -1    0    0    0    0  0.00000000000E+00  0.00000000000E+00  0.69537806985E+03  0.69537806985E+03  0.00000000000E+00 0. -1.
         22   -1    0    0    0    0 -0.00000000000E+00 -0.00000000000E+00 -0.29230417038E+03  0.29230417038E+03  0.00000000000E+00 0. -1.
        -24    2    1    2    0    0 -0.22967670756E+02 -0.11619930644E+02 -0.21792033689E+03  0.23404932529E+03  0.81408087743E+02 0.  0.
         25    2    1    2    0    0  0.60832334892E+02  0.12693743432E+03  0.10009465782E+03  0.21325988402E+03  0.12508857824E+03 0.  0.
         24    2    1    2    0    0 -0.37864664136E+02 -0.11531750367E+03  0.52089957853E+03  0.54037303093E+03  0.77037537602E+02 0.  0.
        -11    1    5    5    0    0 -0.28310354616E+02 -0.11801027720E+03  0.37526311093E+03  0.39439866141E+03  0.00000000000E+00 0.  1.
         12    1    5    5    0    0 -0.95543095196E+01  0.26927735232E+01  0.14563646760E+03  0.14597436952E+03  0.00000000000E+00 0. -1.
         13    1    3    3    0    0 -0.12506653896E+02 -0.12271028438E+02 -0.22208198481E+03  0.22277208646E+03  0.00000000000E+00 0. -1.
        -14    1    3    3    0    0 -0.10461016860E+02  0.65109779401E+00  0.41616479205E+01  0.11277238824E+02  0.00000000000E+00 0.  1.
          5    1    4    4  501    0  0.92424097406E+01 -0.24418431717E+02  0.42453190205E+01  0.26780162040E+02  0.41800000000E+01 0.  1.
         -5    1    4    4    0  501  0.51589925151E+02  0.15135586603E+03  0.95849338803E+02  0.18647972198E+03  0.41800000000E+01 0.  1.
</event>
<event>
11    1  0.1078607E-008  0.1405594E+03  0.7561462E-02  0.1106935E+00
         22   -1    0    0    0    0  0.00000000000E+00  0.00000000000E+00  0.17189802039E+03  0.17189802039E+03  0.00000000000E+00 0. -1.
         22   -1    0    0    0    0 -0.00000000000E+00 -0.00000000000E+00 -0.56647060640E+03  0.56647060640E+03  0.00000000000E+00 0. -1.
         24    2    1    2    0    0  0.53423819321E+02 -0.25115962565E+02 -0.30011181283E+03  0.31546481015E+03  0.77240081545E+02 0.  0.
         25    2    1    2    0    0 -0.51341962399E+02  0.70641494377E+02 -0.21935560802E+03  0.26719079975E+03  0.12509125818E+03 0.  0.
        -24    2    1    2    0    0 -0.20818569219E+01 -0.45525531812E+02  0.12489483483E+03  0.15571301689E+03  0.81061184823E+02 0.  0.
        -11    1    3    3    0    0 -0.16714077597E+02  0.76187030563E+01 -0.81832837547E+02  0.83869054645E+02  0.00000000000E+00 0.  1.
         12    1    3    3    0    0  0.70137896918E+02 -0.32734665621E+02 -0.21827897528E+03  0.23159575550E+03  0.00000000000E+00 0. -1.
         13    1    5    5    0    0 -0.11338809005E+02 -0.56373307457E+02  0.12869293342E+03  0.14095527481E+03  0.00000000000E+00 0. -1.
        -14    1    5    5    0    0  0.92569520835E+01  0.10847775646E+02 -0.37980985899E+01  0.14757742078E+02  0.00000000000E+00 0.  1.
          5    1    4    4  501    0  0.14773605161E+02  0.87525678015E+01  0.10183405402E+02  0.20397083080E+02  0.41800000000E+01 0. -1.
         -5    1    4    4    0  501 -0.66115567560E+02  0.61888926575E+02 -0.22953901342E+03  0.24679371668E+03  0.41800000000E+01 0. -1.
</event>
<event>
11    1  0.1078607E-008  0.7088418E+03  0.7561462E-02  0.9019376E-01
         22   -1    0    0    0    0  0.00000000000E+00  0.00000000000E+00  0.74032259602E+03  0.74032259602E+03  0.00000000000E+00 0.  1.
         22   -1    0    0    0    0 -0.00000000000E+00 -0.00000000000E+00 -0.92705166064E+03  0.92705166064E+03  0.00000000000E+00 0.  1.
         24    2    1    2    0    0 -0.23537450678E+03 -0.62123547225E+03 -0.12510272164E+03  0.68069647261E+03  0.79764192717E+02 0.  0.
         25    2    1    2    0    0  0.44586156066E+03  0.59386147153E+03 -0.54623457509E+01  0.75308783410E+03  0.12508984776E+03 0.  0.
        -24    2    1    2    0    0 -0.21048705388E+03  0.27374000729E+02 -0.56163997236E+02  0.23358994995E+03  0.79722859748E+02 0.  0.
        -11    1    3    3    0    0 -0.19709846507E+03 -0.58027593326E+03 -0.11926357207E+03  0.62433305476E+03  0.00000000000E+00 0.  1.
         12    1    3    3    0    0 -0.38276041711E+02 -0.40959538998E+02 -0.58391495652E+01  0.56363417849E+02  0.00000000000E+00 0. -1.
         11    1    5    5    0    0 -0.13164440681E+03  0.68594891509E+01 -0.72582280430E+02  0.15048418478E+03  0.00000000000E+00 0. -1.
        -12    1    5    5    0    0 -0.78842647071E+02  0.20514511578E+02  0.16418283194E+02  0.83105765176E+02  0.00000000000E+00 0.  1.
          5    1    4    4  501    0  0.45179540652E+03  0.59251441641E+03 -0.83233996029E+01  0.74517056731E+03  0.41800000000E+01 0.  1.
         -5    1    4    4    0  501 -0.59338458658E+01  0.13470551193E+01  0.28610538521E+01  0.79172667884E+01  0.41800000000E+01 0.  1.
</event>
<event>
11    1  0.1078607E-008  0.2236975E+03  0.7561462E-02  0.1038926E+00
         22   -1    0    0    0    0  0.00000000000E+00  0.00000000000E+00  0.47845161202E+03  0.47845161202E+03  0.00000000000E+00 0.  1.
         22   -1    0    0    0    0 -0.00000000000E+00 -0.00000000000E+00 -0.39095101463E+03  0.39095101463E+03  0.00000000000E+00 0.  1.
         24    2    1    2    0    0 -0.65461138886E+02 -0.30543376398E+02 -0.27525015000E+03  0.29824214344E+03  0.89261819975E+02 0.  0.
         25    2    1    2    0    0  0.66356769779E+02 -0.16489848117E+03  0.12163230433E+03  0.24907157244E+03  0.12508997065E+03 0.  0.
        -24    2    1    2    0    0 -0.89563089268E+00  0.19544185757E+03  0.24111844306E+03  0.32208891076E+03  0.86051385855E+02 0.  0.
        -13    1    3    3    0    0 -0.48933610171E+02 -0.39963371140E+02 -0.27162559641E+03  0.27887637738E+03  0.00000000000E+00 0.  1.
         14    1    3    3    0    0 -0.16527528716E+02  0.94199947421E+01 -0.36245535890E+01  0.19365766060E+02  0.00000000000E+00 0. -1.
         11    1    5    5    0    0  0.40193379632E+02  0.91260621797E+02  0.13474033349E+03  0.16762746293E+03  0.00000000000E+00 0. -1.
        -12    1    5    5    0    0 -0.41089010525E+02  0.10418123577E+03  0.10637810957E+03  0.15446144783E+03  0.00000000000E+00 0.  1.
          5    1    4    4  501    0  0.23825930207E+02 -0.66783416142E+02 -0.17875347288E+02  0.73244112818E+02  0.41800000000E+01 0.  1.
         -5    1    4    4    0  501  0.42530839572E+02 -0.98115065026E+02  0.13950765162E+03  0.17582745963E+03  0.41800000000E+01 0.  1.
</event>
<event>
11    1  0.1078607E-008  0.1299680E+03  0.7561462E-02  0.1119308E+00
         22   -1    0    0    0    0  0.00000000000E+00  0.00000000000E+00  0.26998747361E+03  0.26998747361E+03  0.00000000000E+00 0. -1.
         22   -1    0    0    0    0 -0.00000000000E+00 -0.00000000000E+00 -0.15094332428E+04  0.15094332428E+04  0.00000000000E+00 0.  1.
        -24    2    1    2    0    0 -0.10766165295E+02  0.15573014667E+02 -0.12172267928E+04  0.12194995311E+04  0.71969521849E+02 0.  0.
         25    2    1    2    0    0  0.45321587008E+02 -0.20494656646E+02 -0.26665261097E+03  0.29870536491E+03  0.12508878001E+03 0.  0.
         24    2    1    2    0    0 -0.34555421713E+02  0.49216419790E+01  0.24443363461E+03  0.26121582041E+03  0.85250239737E+02 0.  0.
        -13    1    5    5    0    0 -0.31580487490E+02  0.39495582038E+01  0.21838136713E+02  0.38598321404E+02  0.00000000000E+00 0.  1.
         14    1    5    5    0    0 -0.29749342230E+01  0.97208377528E+00  0.22259549789E+03  0.22261749900E+03  0.00000000000E+00 0. -1.
         11    1    3    3    0    0 -0.30735150328E+02  0.18011695619E+02 -0.30849087462E+03  0.31054096408E+03  0.00000000000E+00 0. -1.
        -12    1    3    3    0    0  0.19968985033E+02 -0.24386809518E+01 -0.90873591818E+03  0.90895856700E+03  0.00000000000E+00 0.  1.
          5    1    4    4  501    0  0.89027021713E+02 -0.13679801046E+02 -0.18077646529E+03  0.20201621310E+03  0.41800000000E+01 0.  1.
         -5    1    4    4    0  501 -0.43705434705E+02 -0.68148556005E+01 -0.85876145686E+02  0.96689151809E+02  0.41800000000E+01 0.  1.
</event>
<event>
11    1  0.1078607E-008  0.2062069E+03  0.7561462E-02  0.1050219E+00
         22   -1    0    0    0    0  0.00000000000E+00  0.00000000000E+00  0.51094035337E+03  0.51094035337E+03  0.00000000000E+00 0.  1.
         22   -1    0    0    0    0 -0.00000000000E+00 -0.00000000000E+00 -0.35654330500E+03  0.35654330500E+03  0.00000000000E+00 0.  1.
         24    2    1    2    0    0  0.89384206914E+02 -0.12334712703E+03 -0.22226964526E+03  0.28103710238E+03  0.79837381714E+02 0.  0.
         25    2    1    2    0    0 -0.13949201443E+03  0.21657916704E+03  0.15006013256E+03  0.32331716063E+03  0.12510549664E+03 0.  0.
        -24    2    1    2    0    0  0.50107807517E+02 -0.93232040016E+02  0.22660656107E+03  0.26312939535E+03  0.81752917503E+02 0.  0.
        -11    1    3    3    0    0  0.38567930472E+02 -0.10878784836E+03 -0.12368862050E+03  0.16917788287E+03  0.00000000000E+00 0.  1.
         12    1    3    3    0    0  0.50816276442E+02 -0.14559278671E+02 -0.98581024765E+02  0.11185921952E+03  0.00000000000E+00 0. -1.
         11    1    5    5    0    0  0.40998025998E+02 -0.12282344609E+01  0.62094809271E+02  0.74418492554E+02  0.00000000000E+00 0. -1.
        -12    1    5    5    0    0  0.91097815184E+01 -0.92003805555E+02  0.16451175180E+03  0.18871090280E+03  0.00000000000E+00 0.  1.
          5    1    4    4  501    0  0.20764037575E+02  0.47260720562E+02  0.15284482574E+02  0.53998229341E+02  0.41800000000E+01 0. -1.
         -5    1    4    4    0  501 -0.16025605201E+03  0.16931844648E+03  0.13477564999E+03  0.26931893129E+03  0.41800000000E+01 0. -1.
</event>
<event>
11    1  0.1078607E-008  0.5260236E+03  0.7561462E-02  0.9337180E-01
         22   -1    0    0    0    0  0.00000000000E+00  0.00000000000E+00  0.48395853833E+03  0.48395853833E+03  0.00000000000E+00 0.  1.
         22   -1    0    0    0    0 -0.00000000000E+00 -0.00000000000E+00 -0.86796101369E+03  0.86796101369E+03  0.00000000000E+00 0.  1.
         24    2    1    2    0    0  0.33934660193E+03  0.35759158809E+03 -0.37131482039E+03  0.62239124949E+03  0.80425813527E+02 0.  0.
         25    2    1    2    0    0 -0.39736439610E+03 -0.37007101122E+03 -0.13328168333E+03  0.57294470758E+03  0.12510241483E+03 0.  0.
        -24    2    1    2    0    0  0.58017794170E+02  0.12479423133E+02  0.12059402836E+03  0.15658359496E+03  0.80334936936E+02 0.  0.
        -13    1    3    3    0    0  0.27927612212E+03  0.24341036884E+03 -0.27736431535E+03  0.46279015058E+03  0.00000000000E+00 0.  1.
         14    1    3    3    0    0  0.60070479808E+02  0.11418121925E+03 -0.93950505041E+02  0.15960109891E+03  0.00000000000E+00 0. -1.
         13    1    5    5    0    0 -0.63232722876E+01  0.18061326677E+02 -0.72012755569E+00  0.19149774866E+02  0.00000000000E+00 0. -1.
        -14    1    5    5    0    0  0.64341066457E+02 -0.55819035439E+01  0.12131415591E+03  0.13743382009E+03  0.00000000000E+00 0.  1.
          5    1    4    4  501    0 -0.20347442087E+03 -0.21272851016E+03 -0.10328294029E+02  0.29458344325E+03  0.41800000000E+01 0.  1.
         -5    1    4    4    0  501 -0.19388997523E+03 -0.15734250107E+03 -0.12295338930E+03  0.27836126432E+03  0.41800000000E+01 0.  1.
</event>
<event>
11    1  0.1078607E-008  0.1825406E+03  0.7561462E-02  0.1067606E+00
         22   -1    0    0    0    0  0.00000000000E+00  0.00000000000E+00  0.88856589081E+03  0.88856589081E+03  0.00000000000E+00 0. -1.
         22   -1    0    0    0    0 -0.00000000000E+00 -0.00000000000E+00 -0.48585927188E+03  0.48585927188E+03  0.00000000000E+00 0. -1.
         24    2    1    2    0    0 -0.11094618524E+03 -0.77225594059E+02 -0.37434358338E+03  0.40609007904E+03  0.80642330556E+02 0.  0.
         25    2    1    2    0    0  0.11800136432E+03  0.41290913659E+02 -0.91386406587E+01  0.17708914906E+03  0.12509112851E+03 0.  0.
        -24    2    1    2    0    0 -0.70551790716E+01  0.35934680400E+02  0.78618884297E+03  0.79124593458E+03  0.81462601036E+02 0.  0.
        -11    1    3    3    0    0 -0.15028301984E+02  0.13778630843E+02 -0.23240975023E+02  0.30916717945E+02  0.00000000000E+00 0.  1.
         12    1    3    3    0    0 -0.95917883259E+02 -0.91004224902E+02 -0.35110260836E+03  0.37517336110E+03  0.00000000000E+00 0. -1.
         11    1    5    5    0    0 -0.25741099503E+02  0.55450059381E+02  0.48247344581E+03  0.48633110039E+03  0.00000000000E+00 0. -1.
        -12    1    5    5    0    0  0.18685920431E+02 -0.19515378981E+02  0.30371539716E+03  0.30491483420E+03  0.00000000000E+00 0.  1.
          5    1    4    4  501    0  0.50670027294E+02  0.19978694834E+02  0.57915831453E+02  0.79613540595E+02  0.41800000000E+01 0.  1.
         -5    1    4    4    0  501  0.67331337021E+02  0.21312218825E+02 -0.67054472111E+02  0.97475608469E+02  0.41800000000E+01 0.  1.
</event>
<event>
11    1  0.1615979E-008  0.2171371E+03  0.7561462E-02  0.1043026E+00
         22   -1    0    0    0    0  0.00000000000E+00  0.00000000000E+00  0.20009514212E+04  0.20009514212E+04  0.00000000000E+00 0.  1.
         22   -1    0    0    0    0 -0.00000000000E+00 -0.00000000000E+00 -0.39914547999E+03  0.39914547999E+03  0.00000000000E+00 0.  1.
        -24    2    1    2    0    0  0.26415208372E+02 -0.13006786929E+02 -0.28700396062E+03  0.29892224780E+03  0.78206758536E+02 0.  0.
         25    2    1    2    0    0  0.61174481690E+02  0.16747069033E+03  0.16056093303E+02  0.21838239534E+03  0.12507726864E+03 0.  0.
         24    2    1    2    0    0 -0.87589690062E+02 -0.15446390340E+03  0.18727538085E+04  0.18827922580E+04  0.78541761657E+02 0.  0.
        -13    1    5    5    0    0 -0.96684383322E+01 -0.88360417181E+00  0.38208510036E+03  0.38220842923E+03  0.00000000000E+00 0.  1.
         14    1    5    5    0    0 -0.77921251730E+02 -0.15358029923E+03  0.14906687081E+04  0.15005838288E+04  0.00000000000E+00 0. -1.
         13    1    3    3    0    0  0.14655835385E+02 -0.88571335731E+01 -0.67747876100E+01  0.18415756110E+02  0.00000000000E+00 0. -1.
        -14    1    3    3    0    0  0.11759372988E+02 -0.41496533559E+01 -0.28022917301E+03  0.28050649169E+03  0.00000000000E+00 0.  1.
          5    1    4    4  501    0  0.65495887054E+02  0.40788917931E+02 -0.30793417136E+02  0.83181452175E+02  0.41800000000E+01 0.  1.
         -5    1    4    4    0  501 -0.43214053639E+01  0.12668177240E+03  0.46849510440E+02  0.13520094316E+03  0.41800000000E+01 0.  1.
</event>
<event>
11    1  0.1078607E-008  0.1525959E+03  0.7561462E-02  0.1094255E+00
         22   -1    0    0    0    0  0.00000000000E+00  0.00000000000E+00  0.18585611464E+04  0.18585611464E+04  0.00000000000E+00 0.  1.
         22   -1    0    0    0    0 -0.00000000000E+00 -0.00000000000E+00 -0.35830599760E+02  0.35830599760E+02  0.00000000000E+00 0.  1.
         24    2    1    2    0    0 -0.83231950800E+02  0.46040903107E+02  0.16302961471E+03  0.20544789121E+03  0.81134815803E+02 0.  0.
         25    2    1    2    0    0  0.69949101575E+01 -0.98682847802E+02  0.55443959495E+03  0.57692076410E+03  0.12508825040E+03 0.  0.
        -24    2    1    2    0    0  0.76237040642E+02  0.52641944695E+02  0.11052613370E+04  0.11120230908E+04  0.80059170950E+02 0.  0.
        -13    1    3    3    0    0 -0.18114916897E+02  0.27566720953E+02  0.47802629102E+01  0.33330545026E+02  0.00000000000E+00 0.  1.
         14    1    3    3    0    0 -0.65117033903E+02  0.18474182154E+02  0.15824935180E+03  0.17211734618E+03  0.00000000000E+00 0. -1.
         11    1    5    5    0    0  0.14357546734E+00  0.30407988421E+02  0.12845442957E+03  0.13200457132E+03  0.00000000000E+00 0. -1.
        -12    1    5    5    0    0  0.76093465175E+02  0.22233956274E+02  0.97680690740E+03  0.98001851951E+03  0.00000000000E+00 0.  1.
          5    1    4    4  501    0  0.60295686977E+01  0.22823756516E+02  0.29140380759E+02  0.37734781713E+02  0.41800000000E+01 0. -1.
         -5    1    4    4    0  501  0.96534145976E+00 -0.12150660432E+03  0.52529921419E+03  0.53918598239E+03  0.41800000000E+01 0. -1.
</event>
<event>
11    1  0.1078607E-008  0.3533111E+03  0.7561462E-02  0.9798542E-01
         22   -1    0    0    0    0  0.00000000000E+00  0.00000000000E+00  0.10345922227E+04  0.10345922227E+04  0.00000000000E+00 0.  1.
         22   -1    0    0    0    0 -0.00000000000E+00 -0.00000000000E+00 -0.51558531242E+03  0.51558531242E+03  0.00000000000E+00 0. -1.
         24    2    1    2    0    0 -0.31815113188E+03 -0.94773021123E+02 -0.40265292756E+03  0.52841231181E+03  0.82994716379E+02 0.  0.
         25    2    1    2    0    0  0.28593564893E+03  0.13662320474E+03  0.65547583497E+03  0.73872925564E+03  0.12508895837E+03 0.  0.
        -24    2    1    2    0    0  0.32215482957E+02 -0.41850183612E+02  0.26618400283E+03  0.28303596763E+03  0.80412439331E+02 0.  0.
        -13    1    3    3    0    0 -0.19671409937E+03 -0.36241017217E+02 -0.18539549915E+03  0.27272942512E+03  0.00000000000E+00 0.  1.
         14    1    3    3    0    0 -0.12143703251E+03 -0.58532003906E+02 -0.21725742841E+03  0.25568288669E+03  0.00000000000E+00 0. -1.
         13    1    5    5    0    0  0.47179207193E+02  0.41791205485E+01  0.11813491404E+03  0.12727608006E+03  0.00000000000E+00 0. -1.
        -14    1    5    5    0    0 -0.14963724236E+02 -0.46029304161E+02  0.14804908880E+03  0.15575988758E+03  0.00000000000E+00 0.  1.
          5    1    4    4  501    0  0.22110136033E+03  0.42207296556E+02  0.45985897457E+03  0.51201075801E+03  0.41800000000E+01 0. -1.
         -5    1    4    4    0  501  0.64834288598E+02  0.94415908180E+02  0.19561686040E+03  0.22671849763E+03  0.41800000000E+01 0. -1.
</event>
<event>
11    1  0.1078607E-008  0.1314468E+03  0.7561462E-02  0.1117504E+00
         22   -1    0    0    0    0  0.00000000000E+00  0.00000000000E+00  0.89792781812E+03  0.89792781812E+03  0.00000000000E+00 0.  1.
         22   -1    0    0    0    0 -0.00000000000E+00 -0.00000000000E+00 -0.22727760184E+03  0.22727760184E+03  0.00000000000E+00 0. -1.
        -24    2    1    2    0    0  0.39243969540E+02  0.10038856122E+02 -0.18634925265E+03  0.20617142708E+03  0.78356528791E+02 0.  0.
         25    2    1    2    0    0 -0.43260058667E+02  0.16286130895E+02  0.12605773846E+03  0.18350719358E+03  0.12509063087E+03 0.  0.
         24    2    1    2    0    0  0.40160891270E+01 -0.26324987017E+02  0.73094173047E+03  0.73552679930E+03  0.77554659649E+02 0.  0.
        -13    1    5    5    0    0 -0.37503448975E+01 -0.38124161936E+02  0.70456561071E+03  0.70560627592E+03  0.00000000000E+00 0.  1.
         14    1    5    5    0    0  0.77664340245E+01  0.11799174919E+02  0.26376119752E+02  0.29920523382E+02  0.00000000000E+00 0. -1.
         13    1    3    3    0    0  0.55095531684E+02  0.20623417769E+02 -0.17345344489E+03  0.18315823900E+03  0.00000000000E+00 0. -1.
        -14    1    3    3    0    0 -0.15851562144E+02 -0.10584561646E+02 -0.12895807766E+02  0.23013188080E+02  0.00000000000E+00 0.  1.
          5    1    4    4  501    0 -0.16976356430E+02  0.70106862610E+02  0.80265292562E+02  0.10799610388E+03  0.41800000000E+01 0. -1.
         -5    1    4    4    0  501 -0.26283702237E+02 -0.53820731715E+02  0.45792445903E+02  0.75511089698E+02  0.41800000000E+01 0. -1.
</event>
<event>
11    1  0.1078607E-008  0.1683254E+03  0.7561462E-02  0.1079498E+00
         22   -1    0    0    0    0  0.00000000000E+00  0.00000000000E+00  0.22579788285E+04  0.22579788285E+04  0.00000000000E+00 0. -1.
         22   -1    0    0    0    0 -0.00000000000E+00 -0.00000000000E+00 -0.44422733703E+02  0.44422733703E+02  0.00000000000E+00 0.  1.
         24    2    1    2    0    0 -0.33408073415E+02  0.39214187114E+02  0.64842672857E+02  0.11600697435E+03  0.81235423517E+02 0.  0.
         25    2    1    2    0    0  0.14089024336E+03 -0.39633762575E+02  0.56189641709E+03  0.59396648824E+03  0.12509080622E+03 0.  0.
        -24    2    1    2    0    0 -0.10748216994E+03  0.41957546147E+00  0.15868170048E+04  0.15924280996E+04  0.79287153234E+02 0.  0.
        -13    1    3    3    0    0 -0.34327147697E+02  0.61410458497E+02  0.34380389855E+02  0.78304589192E+02  0.00000000000E+00 0.  1.
         14    1    3    3    0    0  0.91907428210E+00 -0.22196271384E+02  0.30462283002E+02  0.37702385157E+02  0.00000000000E+00 0. -1.
         11    1    5    5    0    0 -0.78189279144E+02  0.92900328800E+01  0.14539902257E+04  0.14561206834E+04  0.00000000000E+00 0. -1.
        -12    1    5    5    0    0 -0.29292890798E+02 -0.88704574185E+01  0.13282677908E+03  0.13630741619E+03  0.00000000000E+00 0.  1.
          5    1    4    4  501    0  0.99139132947E+02  0.36157833458E+02  0.29235956880E+03  0.31084971686E+03  0.41800000000E+01 0.  1.
         -5    1    4    4    0  501  0.41751110410E+02 -0.75791596033E+02  0.26953684829E+03  0.28311677138E+03  0.41800000000E+01 0.  1.
</event>
<event>
11    1  0.1078607E-008  0.1618844E+03  0.7561462E-02  0.1085318E+00
         22   -1    0    0    0    0  0.00000000000E+00  0.00000000000E+00  0.89318657341E+03  0.89318657341E+03  0.00000000000E+00 0. -1.
         22   -1    0    0    0    0 -0.00000000000E+00 -0.00000000000E+00 -0.16737076311E+03  0.16737076311E+03  0.00000000000E+00 0.  1.
         24    2    1    2    0    0 -0.85792056158E+02  0.47036318996E+02 -0.94871845912E+02  0.15774941700E+03  0.79445070417E+02 0.  0.
         25    2    1    2    0    0  0.97577067291E+02 -0.12355801533E+03  0.24573425819E+03  0.31752267279E+03  0.12508978727E+03 0.  0.
        -24    2    1    2    0    0 -0.11785011133E+02  0.76521696330E+02  0.57495339803E+03  0.58528524673E+03  0.77414169437E+02 0.  0.
        -13    1    3    3    0    0 -0.10385833077E+02 -0.68343688693E+01 -0.55815254453E+02  0.57183185957E+02  0.00000000000E+00 0.  1.
         14    1    3    3    0    0 -0.75406223081E+02  0.53870687865E+02 -0.39056591459E+02  0.10056623105E+03  0.00000000000E+00 0. -1.
         13    1    5    5    0    0 -0.38609260941E+02  0.71529094307E+02  0.46097088857E+03  0.46808252101E+03  0.00000000000E+00 0. -1.
        -14    1    5    5    0    0  0.26824249809E+02  0.49926020236E+01  0.11398250946E+03  0.11720272572E+03  0.00000000000E+00 0.  1.
          5    1    4    4  501    0  0.12451252091E+03 -0.91002085471E+02  0.21699748377E+03  0.26625200053E+03  0.41800000000E+01 0.  1.
         -5    1    4    4    0  501 -0.26935453619E+02 -0.32555929855E+02  0.28736774411E+02  0.51270672259E+02  0.41800000000E+01 0.  1.
</event>
<event>
11    1  0.1078607E-008  0.1426125E+03  0.7561462E-02  0.1104676E+00
         22   -1    0    0    0    0  0.00000000000E+00  0.00000000000E+00  0.40874849901E+03  0.40874849901E+03  0.00000000000E+00 0. -1.
         22   -1    0    0    0    0 -0.00000000000E+00 -0.00000000000E+00 -0.87727448397E+03  0.87727448397E+03  0.00000000000E+00 0. -1.
        -24    2    1    2    0    0 -0.40787216787E+02 -0.28401215454E+02 -0.76836466173E+03  0.77403114179E+03  0.79181620213E+02 0.  0.
         25    2    1    2    0    0 -0.28625607649E+02  0.43139295781E+02 -0.51543884924E+02  0.14486105175E+03  0.12509007950E+03 0.  0.
         24    2    1    2    0    0  0.69412824436E+02 -0.14738080327E+02  0.35138256169E+03  0.36713078943E+03  0.79246202941E+02 0.  0.
        -11    1    5    5    0    0  0.17230128444E+02  0.24596883139E+02  0.46725328908E+02  0.55544039715E+02  0.00000000000E+00 0.  1.
         12    1    5    5    0    0  0.52182695992E+02 -0.39334963466E+02  0.30465723278E+03  0.31158674972E+03  0.00000000000E+00 0. -1.
         11    1    3    3    0    0 -0.16719251808E+02  0.16592273506E+02 -0.51717701503E+03  0.51771314624E+03  0.00000000000E+00 0. -1.
        -12    1    3    3    0    0 -0.24067964979E+02 -0.44993488960E+02 -0.25118764670E+03  0.25631799555E+03  0.00000000000E+00 0.  1.
          5    1    4    4  501    0 -0.59276582201E+01  0.58990051287E+02  0.24151158449E+02  0.64153831820E+02  0.41800000000E+01 0.  1.
         -5    1    4    4    0  501 -0.22697949429E+02 -0.15850755505E+02 -0.75695043373E+02  0.80707219934E+02  0.41800000000E+01 0.  1.
</event>
<event>
11    1  0.1078607E-008  0.1819507E+03  0.7561462E-02  0.1068076E+00
         22   -1    0    0    0    0  0.00000000000E+00  0.00000000000E+00  0.56819306282E+03  0.56819306282E+03  0.00000000000E+00 0.  1.
         22   -1    0    0    0    0 -0.00000000000E+00 -0.00000000000E+00 -0.23231958468E+03  0.23231958468E+03  0.00000000000E+00 0.  1.
        -24    2    1    2    0    0  0.60695067107E+02 -0.33288289830E+02 -0.10447030841E+03  0.14803714832E+03  0.78796894169E+02 0.  0.
         25    2    1    2    0    0 -0.77524042707E+01 -0.95102554030E+02 -0.25720946714E+02  0.15941501093E+03  0.12508790131E+03 0.  0.
         24    2    1    2    0    0 -0.52942662836E+02  0.12839084386E+03  0.46606473327E+03  0.49306048825E+03  0.81272228600E+02 0.  0.
        -13    1    5    5    0    0  0.12582657110E-01  0.62192164781E+02  0.30256017100E+03  0.30888593783E+03  0.00000000000E+00 0.  1.
         14    1    5    5    0    0 -0.52955245493E+02  0.66198679079E+02  0.16350456227E+03  0.18417455041E+03  0.00000000000E+00 0. -1.
         13    1    3    3    0    0  0.27218519235E+02 -0.51457831534E+02 -0.32656446070E+02  0.66747282233E+02  0.00000000000E+00 0. -1.
        -14    1    3    3    0    0  0.33476547872E+02  0.18169541704E+02 -0.71813862344E+02  0.81289866084E+02  0.00000000000E+00 0.  1.
          5    1    4    4  501    0 -0.10512856250E+02 -0.78809219502E+02  0.41697304703E+02  0.89875195936E+02  0.41800000000E+01 0. -1.
         -5    1    4    4    0  501  0.27604519790E+01 -0.16293334527E+02 -0.67418251417E+02  0.69539814993E+02  0.41800000000E+01 0. -1.
</event>
