<event>
11    1  0.8041700E-009  0.1601463E+03  0.7561462E-02  0.1086940E+00
         22   -1    0    0    0    0  0.00000000000E+00  0.00000000000E+00  0.16938768938E+03  0.16938768938E+03  0.00000000000E+00 0.  1.
         22   -1    0    0    0    0 -0.00000000000E+00 -0.00000000000E+00 -0.11081293910E+04  0.11081293910E+04  0.00000000000E+00 0.  1.
        -24    2    1    2    0    0  0.64410815509E+02 -0.22591706183E+02 -0.93122662475E+03  0.93721075008E+03  0.80757817387E+02 0.  0.
         25    2    1    2    0    0  0.31035394744E+02  0.75139055215E+02 -0.97089993455E+02  0.17799488400E+03  0.12508652427E+03 0.  0.
         24    2    1    2    0    0 -0.95446210253E+02 -0.52547349032E+02  0.89574916604E+02  0.16231144628E+03  0.80312744739E+02 0.  0.
        -11    1    5    5    0    0 -0.94648285273E+02 -0.70035839034E+02  0.75758964197E+02  0.14000977577E+03  0.00000000000E+00 0.  1.
         12    1    5    5    0    0 -0.79792497972E+00  0.17488490001E+02  0.13815952407E+02  0.22301670514E+02  0.00000000000E+00 0. -1.
         11    1    3    3    0    0  0.59193645996E+01 -0.15017021836E+02 -0.30090602400E+02  0.34146656863E+02  0.00000000000E+00 0. -1.
        -12    1    3    3    0    0  0.58491450909E+02 -0.75746843473E+01 -0.90113602235E+03  0.90306409322E+03  0.00000000000E+00 0.  1.
          5    1    4    4  501    0 -0.36699031804E+02  0.69771923926E+02 -0.36972182632E+02  0.87174279419E+02  0.41800000000E+01 0.  1.
         -5    1    4    4    0  501  0.67734426548E+02  0.53671312895E+01 -0.60117810823E+02  0.90820604580E+02  0.41800000000E+01 0.  1.
</event>
<event>
11    1  0.8041700E-009  0.1659183E+03  0.7561462E-02  0.1081639E+00
         22   -1    0    0    0    0  0.00000000000E+00  0.00000000000E+00  0.17681507601E+04  0.17681507601E+04  0.00000000000E+00 0.  1.
         22   -1    0    0    0    0 -0.00000000000E+00 -0.00000000000E+00 -0.23562405796E+03  0.23562405796E+03  0.00000000000E+00 0.  1.
         24    2    1    2    0    0 -0.56824558364E+02  0.30752794082E+02 -0.20156125682E+03  0.22715609839E+03  0.82451124952E+02 0.  0.
         25    2    1    2    0    0 -0.40015494728E+02 -0.90885354182E+02  0.34291486195E+03  0.37828428602E+03  0.12508801333E+03 0.  0.
        -24    2    1    2    0    0  0.96840053092E+02  0.60132560100E+02  0.13911730970E+04  0.13983344336E+04  0.83562442610E+02 0.  0.
        -11    1    3    3    0    0 -0.53374798801E+02  0.53854294882E+02 -0.11694065596E+03  0.13937098421E+03  0.00000000000E+00 0.  1.
         12    1    3    3    0    0 -0.34497595625E+01 -0.23101500800E+02 -0.84620600862E+02  0.87785114174E+02  0.00000000000E+00 0. -1.
         13    1    5    5    0    0  0.19601079046E+01  0.45154987673E+02  0.42266138836E+03  0.42507112834E+03  0.00000000000E+00 0. -1.
        -14    1    5    5    0    0  0.94879945188E+02  0.14977572428E+02  0.96851170862E+03  0.97326330528E+03  0.00000000000E+00 0.  1.
          5    1    4    4  501    0 -0.38936867358E+02 -0.10668581377E+03  0.16934920803E+03  0.20394746667E+03  0.41800000000E+01 0.  1.
         -5    1    4    4    0  501 -0.10786273702E+01  0.15800459592E+02  0.17356565392E+03  0.17433681935E+03  0.41800000000E+01 0.  1.
</event>
<event>
11    1  0.8041700E-009  0.1465610E+03  0.7561462E-02  0.1100445E+00
         22   -1    0    0    0    0  0.00000000000E+00  0.00000000000E+00  0.11106561284E+03  0.11106561284E+03  0.00000000000E+00 0. -1.
         22   -1    0    0    0    0 -0.00000000000E+00 -0.00000000000E+00 -0.10674457434E+04  0.10674457434E+04  0.00000000000E+00 0.  1.
        -24    2    1    2    0    0  0.75791372309E+02  0.11752373463E+01 -0.81571159628E+03  0.82539556555E+03  0.10073091884E+03 0.  0.
         25    2    1    2    0    0 -0.76537628605E+02 -0.48125295877E+02 -0.19040999865E+03  0.24511414703E+03  0.12510365620E+03 0.  0.
         24    2    1    2    0    0  0.74625629611E+00  0.46950058531E+02  0.49741464355E+02  0.10800164369E+03  0.83577968800E+02 0.  0.
        -11    1    5    5    0    0  0.86624802586E+01  0.27849561125E+02 -0.19931423112E+02  0.35325603270E+02  0.00000000000E+00 0.  1.
         12    1    5    5    0    0 -0.79162239625E+01  0.19100497406E+02  0.69672887467E+02  0.72676040418E+02  0.00000000000E+00 0. -1.
         11    1    3    3    0    0  0.34676613987E+02 -0.18661187046E+02 -0.89858486143E+02  0.98108383900E+02  0.00000000000E+00 0. -1.
        -12    1    3    3    0    0  0.41114758323E+02  0.19836424392E+02 -0.72585311014E+03  0.72728718165E+03  0.00000000000E+00 0.  1.
          5    1    4    4  501    0 -0.97275809609E+02 -0.68630132342E+02 -0.17546012921E+03  0.21207641911E+03  0.41800000000E+01 0.  1.
         -5    1    4    4    0  501  0.20738181003E+02  0.20504836465E+02 -0.14949869432E+02  0.33037727915E+02  0.41800000000E+01 0.  1.
</event>
<event>
11    1  0.8041700E-009  0.1407503E+03  0.7561462E-02  0.1106723E+00
         22   -1    0    0    0    0  0.00000000000E+00  0.00000000000E+00  0.18162565927E+03  0.18162565927E+03  0.00000000000E+00 0.  1.
         22   -1    0    0    0    0 -0.00000000000E+00 -0.00000000000E+00 -0.45799811168E+03  0.45799811168E+03  0.00000000000E+00 0. -1.
        -24    2    1    2    0    0 -0.62106358622E+01  0.71466897046E+02 -0.27070667898E+03  0.29214593316E+03  0.83192853317E+02 0.  0.
         25    2    1    2    0    0 -0.15397067383E+01 -0.46467047942E+02 -0.13742722422E+03  0.19156762876E+03  0.12510138764E+03 0.  0.
         24    2    1    2    0    0  0.77503426005E+01 -0.24999849104E+02  0.13176145079E+03  0.15591020904E+03  0.79131871597E+02 0.  0.
        -11    1    5    5    0    0 -0.70593022196E+00 -0.30900035993E+02  0.13958557083E+03  0.14296657702E+03  0.00000000000E+00 0.  1.
         12    1    5    5    0    0  0.84562728225E+01  0.59001868888E+01 -0.78241200393E+01  0.12943632016E+02  0.00000000000E+00 0. -1.
         13    1    3    3    0    0  0.12242935366E+02  0.49831696462E+02 -0.25407120265E+03  0.25920120265E+03  0.00000000000E+00 0. -1.
        -14    1    3    3    0    0 -0.18453571229E+02  0.21635200584E+02 -0.16635476332E+02  0.32944730507E+02  0.00000000000E+00 0.  1.
          5    1    4    4  501    0 -0.56393897563E+02 -0.50821527013E+02 -0.96548521351E+02  0.12289096250E+03  0.41800000000E+01 0.  1.
         -5    1    4    4    0  501  0.54854190825E+02  0.43544790713E+01 -0.40878702869E+02  0.68676666251E+02  0.41800000000E+01 0.  1.
</event>
<event>
11    1  0.8041700E-009  0.1389530E+03  0.7561462E-02  0.1108733E+00
         22   -1    0    0    0    0  0.00000000000E+00  0.00000000000E+00  0.54444320290E+02  0.54444320290E+02  0.00000000000E+00 0. -1.
         22   -1    0    0    0    0 -0.00000000000E+00 -0.00000000000E+00 -0.23807618137E+04  0.23807618137E+04  0.00000000000E+00 0.  1.
        -24    2    1    2    0    0  0.55590177080E+02  0.24850505393E+02 -0.18594988180E+04  0.18622336347E+04  0.80439050781E+02 0.  0.
         25    2    1    2    0    0  0.11342929975E+02 -0.18233393223E+02 -0.44992490954E+03  0.46748354825E+03  0.12508926797E+03 0.  0.
         24    2    1    2    0    0 -0.66933107055E+02 -0.66171121699E+01 -0.16893765858E+02  0.10548895097E+03  0.79490203543E+02 0.  0.
        -11    1    5    5    0    0 -0.15094022891E+02 -0.28311273413E+02 -0.33999758734E+02  0.46747634414E+02  0.00000000000E+00 0.  1.
         12    1    5    5    0    0 -0.51839084164E+02  0.21694161243E+02  0.17105992876E+02  0.58741316561E+02  0.00000000000E+00 0. -1.
         13    1    3    3    0    0  0.16092649318E+02 -0.20123009731E+02 -0.19963211293E+03  0.20128807564E+03  0.00000000000E+00 0. -1.
        -14    1    3    3    0    0  0.39497527762E+02  0.44973515124E+02 -0.16598667050E+04  0.16609455591E+04  0.00000000000E+00 0.  1.
          5    1    4    4  501    0  0.42144125746E+02 -0.57141022030E+01 -0.42115517073E+03  0.42331776307E+03  0.41800000000E+01 0.  1.
         -5    1    4    4    0  501 -0.30801195771E+02 -0.12519291020E+02 -0.28769738814E+02  0.44165785174E+02  0.41800000000E+01 0.  1.
</event>
<event>
11    1  0.8041700E-009  0.1577873E+03  0.7561462E-02  0.1089177E+00
         22   -1    0    0    0    0  0.00000000000E+00  0.00000000000E+00  0.17591446460E+04  0.17591446460E+04  0.00000000000E+00 0. -1.
         22   -1    0    0    0    0 -0.00000000000E+00 -0.00000000000E+00 -0.12225675893E+04  0.12225675893E+04  0.00000000000E+00 0. -1.
         24    2    1    2    0    0 -0.15434425355E+02  0.33935242178E+02 -0.60537047169E+03  0.61167233679E+03  0.79245299225E+02 0.  0.
         25    2    1    2    0    0  0.84465098177E+02  0.33091914700E+02 -0.60205607319E+03  0.62156951926E+03  0.12509086447E+03 0.  0.
        -24    2    1    2    0    0 -0.69030672822E+02 -0.67027156878E+02  0.17440036017E+04  0.17484703793E+04  0.79638125290E+02 0.  0.
        -13    1    3    3    0    0 -0.57947037690E+01 -0.59109771030E+01 -0.45322127111E+01  0.94371178938E+01  0.00000000000E+00 0.  1.
         14    1    3    3    0    0 -0.96397215855E+01  0.39846219281E+02 -0.60083825898E+03  0.60223521890E+03  0.00000000000E+00 0. -1.
         13    1    5    5    0    0 -0.74747558655E+02 -0.39030219286E+02  0.15584345633E+04  0.15607142094E+04  0.00000000000E+00 0. -1.
        -14    1    5    5    0    0  0.57168858326E+01 -0.27996937591E+02  0.18556903840E+03  0.18775616983E+03  0.00000000000E+00 0.  1.
          5    1    4    4  501    0 -0.14972459179E+02  0.16942841402E+02 -0.18909033887E+02  0.29770091891E+02  0.41800000000E+01 0.  1.
         -5    1    4    4    0  501  0.99437557356E+02  0.16149073298E+02 -0.58314703931E+03  0.59179942737E+03  0.41800000000E+01 0.  1.
</event>
<event>
11    1  0.8041700E-009  0.1359633E+03  0.7561462E-02  0.1112152E+00
         22   -1    0    0    0    0  0.00000000000E+00  0.00000000000E+00  0.92148257882E+03  0.92148257882E+03  0.00000000000E+00 0.  1.
         22   -1    0    0    0    0 -0.00000000000E+00 -0.00000000000E+00 -0.50815517201E+03  0.50815517201E+03  0.00000000000E+00 0. -1.
        -24    2    1    2    0    0 -0.89374439305E+01  0.33482019619E+02 -0.39053305324E+03  0.40012736135E+03  0.79905669909E+02 0.  0.
         25    2    1    2    0    0  0.28748547124E+02 -0.82072157393E+02 -0.57535963158E+02  0.16285100510E+03  0.12509094621E+03 0.  0.
         24    2    1    2    0    0 -0.19811103194E+02  0.48590137774E+02  0.86139642321E+03  0.86665938439E+03  0.79631710599E+02 0.  0.
        -13    1    5    5    0    0 -0.46362531187E+02  0.50058705373E+02  0.65925088529E+03  0.66277227465E+03  0.00000000000E+00 0.  1.
         14    1    5    5    0    0  0.26551427994E+02 -0.14685675987E+01  0.20214553792E+03  0.20388710974E+03  0.00000000000E+00 0. -1.
         11    1    3    3    0    0  0.25788642707E+02  0.96915613158E+01 -0.28764867785E+03  0.28896494999E+03  0.00000000000E+00 0. -1.
        -12    1    3    3    0    0 -0.34726086637E+02  0.23790458303E+02 -0.10288437539E+03  0.11116241136E+03  0.00000000000E+00 0.  1.
          5    1    4    4  501    0  0.74866154392E+02 -0.25918089792E+02 -0.34454410449E+02  0.86494319185E+02  0.41800000000E+01 0.  1.
         -5    1    4    4    0  501 -0.46117607267E+02 -0.56154067602E+02 -0.23081552709E+02  0.76356685914E+02  0.41800000000E+01 0.  1.
</event>
<event>
11    1  0.8041700E-009  0.1335345E+03  0.7561462E-02  0.1115001E+00
         22   -1    0    0    0    0  0.00000000000E+00  0.00000000000E+00  0.39292875805E+03  0.39292875805E+03  0.00000000000E+00 0.  1.
         22   -1    0    0    0    0 -0.00000000000E+00 -0.00000000000E+00 -0.46480554396E+03  0.46480554396E+03  0.00000000000E+00 0.  1.
         24    2    1    2    0    0  0.97641867846E+01 -0.26613881528E+01 -0.38145102293E+03  0.38990551498E+03  0.80118695630E+02 0.  0.
         25    2    1    2    0    0  0.20695272599E+02  0.38571427920E+02 -0.12064017778E+02  0.13307324076E+03  0.12508755942E+03 0.  0.
        -24    2    1    2    0    0 -0.30459459383E+02 -0.35910039767E+02  0.32163825479E+03  0.33475554628E+03  0.79954982318E+02 0.  0.
        -13    1    3    3    0    0  0.25244223155E+02 -0.30789066808E+02 -0.29519611064E+03  0.29786906716E+03  0.00000000000E+00 0.  1.
         14    1    3    3    0    0 -0.15480036371E+02  0.28127678655E+02 -0.86254912290E+02  0.92036447817E+02  0.00000000000E+00 0. -1.
         11    1    5    5    0    0 -0.20439299605E+02 -0.21871415777E+02  0.29230423815E+02  0.41839472665E+02  0.00000000000E+00 0. -1.
        -12    1    5    5    0    0 -0.10020159778E+02 -0.14038623990E+02  0.29240783098E+03  0.29291607362E+03  0.00000000000E+00 0.  1.
          5    1    4    4  501    0 -0.12346806725E+02 -0.11996960617E+02 -0.55692175928E+02  0.58441950343E+02  0.41800000000E+01 0.  1.
         -5    1    4    4    0  501  0.33042079323E+02  0.50568388537E+02  0.43628158150E+02  0.74631290413E+02  0.41800000000E+01 0.  1.
</event>
<event>
11    1  0.8041700E-009  0.1396867E+03  0.7561462E-02  0.1107909E+00
         22   -1    0    0    0    0  0.00000000000E+00  0.00000000000E+00  0.28275666818E+04  0.28275666818E+04  0.00000000000E+00 0. -1.
         22   -1    0    0    0    0 -0.00000000000E+00 -0.00000000000E+00 -0.88475115920E+03  0.88475115920E+03  0.00000000000E+00 0.  1.
        -24    2    1    2    0    0  0.38656304557E+02  0.90802792909E+01 -0.83473521235E+03  0.83948197861E+03  0.79814511881E+02 0.  0.
         25    2    1    2    0    0 -0.37924543842E+02 -0.71065689369E+02  0.71877945891E+02  0.16523435474E+03  0.12508936665E+03 0.  0.
         24    2    1    2    0    0 -0.73176071497E+00  0.61985410078E+02  0.27056727890E+04  0.27076015076E+04  0.81227804667E+02 0.  0.
        -13    1    5    5    0    0  0.22172080624E+02  0.27316042767E+02  0.39727561245E+03  0.39883038951E+03  0.00000000000E+00 0.  1.
         14    1    5    5    0    0 -0.22903841339E+02  0.34669367311E+02  0.23083971766E+04  0.23087711181E+04  0.00000000000E+00 0. -1.
         13    1    3    3    0    0  0.42595034524E+02 -0.17726784915E+02 -0.25676784505E+03  0.26087986147E+03  0.00000000000E+00 0. -1.
        -14    1    3    3    0    0 -0.39387299668E+01  0.26807064206E+02 -0.57796736730E+03  0.57860211713E+03  0.00000000000E+00 0.  1.
          5    1    4    4  501    0  0.26562490774E+02 -0.56044124098E+02 -0.65537239196E+01  0.62505467435E+02  0.41800000000E+01 0.  1.
         -5    1    4    4    0  501 -0.64487034616E+02 -0.15021565271E+02  0.78431669811E+02  0.10272888730E+03  0.41800000000E+01 0.  1.
</event>
<event>
11    1  0.8041700E-009  0.1432108E+03  0.7561462E-02  0.1104025E+00
         22   -1    0    0    0    0  0.00000000000E+00  0.00000000000E+00  0.15243055345E+04  0.15243055345E+04  0.00000000000E+00 0.  1.
         22   -1    0    0    0    0 -0.00000000000E+00 -0.00000000000E+00 -0.36271527029E+03  0.36271527029E+03  0.00000000000E+00 0.  1.
         24    2    1    2    0    0  0.52718755792E+02 -0.19652753848E+02 -0.33118199972E+03  0.34532920389E+03  0.80032769352E+02 0.  0.
         25    2    1    2    0    0 -0.97099060612E+02 -0.31563822547E+02  0.27097421503E+03  0.31543426274E+03  0.12508895408E+03 0.  0.
        -24    2    1    2    0    0  0.44380304819E+02  0.51216576394E+02  0.12217980488E+04  0.12262573381E+04  0.79522562637E+02 0.  0.
        -13    1    3    3    0    0  0.42928544971E+02  0.44981813019E+01 -0.30620603847E+03  0.30923329640E+03  0.00000000000E+00 0.  1.
         14    1    3    3    0    0  0.97902108214E+01 -0.24150935149E+02 -0.24975961250E+02  0.36095907481E+02  0.00000000000E+00 0. -1.
         11    1    5    5    0    0 -0.10948584039E+02  0.13486731692E+02  0.58285411685E+02  0.60819015443E+02  0.00000000000E+00 0. -1.
        -12    1    5    5    0    0  0.55328888858E+02  0.37729844703E+02  0.11635126372E+04  0.11654383227E+04  0.00000000000E+00 0.  1.
          5    1    4    4  501    0  0.20434072893E+02 -0.38314038172E+02  0.70020196623E+02  0.82497376874E+02  0.41800000000E+01 0.  1.
         -5    1    4    4    0  501 -0.11753313350E+03  0.67502156255E+01  0.20095401841E+03  0.23293688587E+03  0.41800000000E+01 0.  1.
</event>
<event>
11    1  0.8041700E-009  0.1502614E+03  0.7561462E-02  0.1096612E+00
         22   -1    0    0    0    0  0.00000000000E+00  0.00000000000E+00  0.53792431767E+03  0.53792431767E+03  0.00000000000E+00 0.  1.
         22   -1    0    0    0    0 -0.00000000000E+00 -0.00000000000E+00 -0.82924549209E+03  0.82924549209E+03  0.00000000000E+00 0.  1.
         24    2    1    2    0    0 -0.43347946892E+02  0.28030736663E+02 -0.68873565370E+03  0.69592982916E+03  0.85421073168E+02 0.  0.
         25    2    1    2    0    0 -0.32869677614E+02  0.11421015826E+02 -0.97603252669E+02  0.16244162826E+03  0.12510008933E+03 0.  0.
        -24    2    1    2    0    0  0.76217624506E+02 -0.39451752489E+02  0.49501773194E+03  0.50879835234E+03  0.80421647261E+02 0.  0.
        -13    1    3    3    0    0 -0.38196004508E+02  0.38023940049E+02 -0.67876838574E+03  0.68090474830E+03  0.00000000000E+00 0.  1.
         14    1    3    3    0    0 -0.51519423838E+01 -0.99932033853E+01 -0.99672679522E+01  0.15025080854E+02  0.00000000000E+00 0. -1.
         13    1    5    5    0    0  0.21493590617E+02  0.11557146419E+02  0.34587463216E+02  0.42330068305E+02  0.00000000000E+00 0. -1.
        -14    1    5    5    0    0  0.54724033889E+02 -0.51008898907E+02  0.46043026873E+03  0.46646828404E+03  0.00000000000E+00 0.  1.
          5    1    4    4  501    0  0.30045149733E+02 -0.13823647591E+02 -0.87677310349E+02  0.93800785739E+02  0.41800000000E+01 0. -1.
         -5    1    4    4    0  501 -0.62914827347E+02  0.25244663416E+02 -0.99259423201E+01  0.68640842521E+02  0.41800000000E+01 0. -1.
</event>
<event>
11    1  0.8041700E-009  0.1561294E+03  0.7561462E-02  0.1090775E+00
         22   -1    0    0    0    0  0.00000000000E+00  0.00000000000E+00  0.19879123506E+04  0.19879123506E+04  0.00000000000E+00 0. -1.
         22   -1    0    0    0    0 -0.00000000000E+00 -0.00000000000E+00 -0.58580567727E+03  0.58580567727E+03  0.00000000000E+00 0.  1.
        -24    2    1    2    0    0 -0.88311281475E+02  0.30632177167E+02 -0.56176548640E+03  0.57625262306E+03  0.88030739817E+02 0.  0.
         25    2    1    2    0    0  0.86605253808E+02 -0.28385299898E+02  0.36411282425E+03  0.39564092913E+03  0.12508957105E+03 0.  0.
         24    2    1    2    0    0  0.17060276674E+01 -0.22468772687E+01  0.15997593354E+04  0.16018244756E+04  0.81263524619E+02 0.  0.
        -13    1    5    5    0    0 -0.36937464017E+01  0.22461445755E+02  0.13941249845E+03  0.14125864587E+03  0.00000000000E+00 0.  1.
         14    1    5    5    0    0  0.53997740691E+01 -0.24708323023E+02  0.14603468370E+04  0.14605658298E+04  0.00000000000E+00 0. -1.
         11    1    3    3    0    0 -0.10033177732E+03  0.76981359899E+01 -0.40202284037E+03  0.41442501254E+03  0.00000000000E+00 0. -1.
        -12    1    3    3    0    0  0.12020495842E+02  0.22934041177E+02 -0.15974264603E+03  0.16182761052E+03  0.00000000000E+00 0.  1.
          5    1    4    4  501    0  0.14277929657E+02  0.43856154148E+02  0.67339391007E+02  0.81726908134E+02  0.41800000000E+01 0.  1.
         -5    1    4    4    0  501  0.72327324151E+02 -0.72241454046E+02  0.29677343324E+03  0.31391402100E+03  0.41800000000E+01 0.  1.
</event>
<event>
11    1  0.8041700E-009  0.1524734E+03  0.7561462E-02  0.1094378E+00
         22   -1    0    0    0    0  0.00000000000E+00  0.00000000000E+00  0.40148321810E+03  0.40148321810E+03  0.00000000000E+00 0.  1.
         22   -1    0    0    0    0 -0.00000000000E+00 -0.00000000000E+00 -0.55941905163E+03  0.55941905163E+03  0.00000000000E+00 0.  1.
         24    2    1    2    0    0  0.83756220930E+01 -0.10052837519E+02 -0.46242114187E+03  0.46973444795E+03  0.81522564645E+02 0.  0.
         25    2    1    2    0    0 -0.70581198789E+02  0.68991720470E+02 -0.57889705676E+01  0.15944192200E+03  0.12508657479E+03 0.  0.
        -24    2    1    2    0    0  0.62205576696E+02 -0.58938882952E+02  0.31027427891E+03  0.33172589978E+03  0.80178667578E+02 0.  0.
        -13    1    3    3    0    0  0.16836606182E+01 -0.90019310702E+01 -0.46285594088E+03  0.46294653200E+03  0.00000000000E+00 0.  1.
         14    1    3    3    0    0  0.66919614748E+01 -0.10509064483E+01  0.43479900971E+00  0.67879159484E+01  0.00000000000E+00 0. -1.
         13    1    5    5    0    0  0.65520083924E+02 -0.76764372417E+01  0.17169922983E+03  0.18393595246E+03  0.00000000000E+00 0. -1.
        -14    1    5    5    0    0 -0.33145072275E+01 -0.51262445710E+02  0.13857504909E+03  0.14778994732E+03  0.00000000000E+00 0.  1.
          5    1    4    4  501    0 -0.45689044258E+02 -0.11232240139E+02  0.41571036910E+02  0.62922774045E+02  0.41800000000E+01 0. -1.
         -5    1    4    4    0  501 -0.24892154531E+02  0.80223960609E+02 -0.47360007478E+02  0.96519147952E+02  0.41800000000E+01 0. -1.
</event>
<event>
11    1  0.8041700E-009  0.1371347E+03  0.7561462E-02  0.1110801E+00
         22   -1    0    0    0    0  0.00000000000E+00  0.00000000000E+00  0.22682487993E+03  0.22682487993E+03  0.00000000000E+00 0.  1.
         22   -1    0    0    0    0 -0.00000000000E+00 -0.00000000000E+00 -0.72394599000E+03  0.72394599000E+03  0.00000000000E+00 0.  1.
        -24    2    1    2    0    0 -0.34125825802E+02 -0.55096285574E+02 -0.40919436620E+03  0.42229723911E+03  0.81821489600E+02 0.  0.
         25    2    1    2    0    0  0.46912626010E+01  0.39977659945E+02 -0.28472197722E+03  0.31358144467E+03  0.12508595800E+03 0.  0.
         24    2    1    2    0    0  0.29434563201E+02  0.15118625629E+02  0.19679523335E+03  0.21489218615E+03  0.79720269984E+02 0.  0.
        -11    1    5    5    0    0  0.54412277038E+02  0.24070777039E+02  0.14388619729E+03  0.15570271664E+03  0.00000000000E+00 0.  1.
         12    1    5    5    0    0 -0.24977713837E+02 -0.89521514101E+01  0.52909036065E+02  0.59189469509E+02  0.00000000000E+00 0. -1.
         13    1    3    3    0    0 -0.15482471050E+02  0.20647816564E+02 -0.12185951209E+03  0.12456235356E+03  0.00000000000E+00 0. -1.
        -14    1    3    3    0    0 -0.18643354752E+02 -0.75744102138E+02 -0.28733485411E+03  0.29773488555E+03  0.00000000000E+00 0.  1.
          5    1    4    4  501    0 -0.56273565967E+02  0.23305650695E+01 -0.16009083099E+03  0.16976069135E+03  0.41800000000E+01 0. -1.
         -5    1    4    4    0  501  0.60964828568E+02  0.37647094875E+02 -0.12463114624E+03  0.14382075333E+03  0.41800000000E+01 0. -1.
</event>
<event>
11    1  0.8041700E-009  0.1368982E+03  0.7561462E-02  0.1111072E+00
         22   -1    0    0    0    0  0.00000000000E+00  0.00000000000E+00  0.71225918119E+03  0.71225918119E+03  0.00000000000E+00 0. -1.
         22   -1    0    0    0    0 -0.00000000000E+00 -0.00000000000E+00 -0.27361249593E+03  0.27361249593E+03  0.00000000000E+00 0.  1.
        -24    2    1    2    0    0 -0.22324475100E+02  0.36775910163E+02 -0.17359817603E+03  0.19628838228E+03  0.80882337634E+02 0.  0.
         25    2    1    2    0    0  0.30014885480E+02  0.19725082175E+02 -0.35129656952E+02  0.13479545100E+03  0.12508296685E+03 0.  0.
         24    2    1    2    0    0 -0.76904103798E+01 -0.56500992337E+02  0.64737451824E+03  0.65478784384E+03  0.80011555621E+02 0.  0.
        -13    1    5    5    0    0  0.66477893307E+01  0.16355268505E+02  0.54663940466E+02  0.57444184198E+02  0.00000000000E+00 0.  1.
         14    1    5    5    0    0 -0.14338199711E+02 -0.72856260843E+02  0.59271057777E+03  0.59734365964E+03  0.00000000000E+00 0. -1.
         13    1    3    3    0    0 -0.13093322180E+02  0.11943685176E+02  0.27734166161E+01  0.17938186671E+02  0.00000000000E+00 0. -1.
        -14    1    3    3    0    0 -0.92311529195E+01  0.24832224986E+02 -0.17637159265E+03  0.17835019561E+03  0.00000000000E+00 0.  1.
          5    1    4    4  501    0  0.18168633417E+02  0.82429550088E+01  0.46837020737E+02  0.51080568311E+02  0.41800000000E+01 0. -1.
         -5    1    4    4    0  501  0.11846252063E+02  0.11482127166E+02 -0.81966677689E+02  0.83714882688E+02  0.41800000000E+01 0. -1.
</event>
<event>
11    1  0.8041700E-009  0.1458168E+03  0.7561462E-02  0.1101231E+00
         22   -1    0    0    0    0  0.00000000000E+00  0.00000000000E+00  0.53268231157E+03  0.53268231157E+03  0.00000000000E+00 0.  1.
         22   -1    0    0    0    0 -0.00000000000E+00 -0.00000000000E+00 -0.21777065393E+03  0.21777065393E+03  0.00000000000E+00 0. -1.
        -24    2    1    2    0    0  0.35502753312E+02 -0.26551259799E+01 -0.17503759172E+03  0.19570932515E+03  0.79978036054E+02 0.  0.
         25    2    1    2    0    0 -0.75986991053E+02  0.54344037747E+02  0.27370265477E+03  0.31510328957E+03  0.12509853165E+03 0.  0.
         24    2    1    2    0    0  0.40484237741E+02 -0.51688911768E+02  0.21624659459E+03  0.23964035078E+03  0.79713179237E+02 0.  0.
        -13    1    5    5    0    0  0.30444782497E+02 -0.32136684831E+02  0.21284483262E+03  0.21739957237E+03  0.00000000000E+00 0.  1.
         14    1    5    5    0    0  0.10039455244E+02 -0.19552226936E+02  0.34017619713E+01  0.22240778410E+02  0.00000000000E+00 0. -1.
         13    1    3    3    0    0  0.44239173338E+02 -0.63014153856E+01 -0.17968869735E+03  0.18516165977E+03  0.00000000000E+00 0. -1.
        -14    1    3    3    0    0 -0.87364200265E+01  0.36462894057E+01  0.46511056367E+01  0.10547665379E+02  0.00000000000E+00 0.  1.
          5    1    4    4  501    0  0.27344816639E+02 -0.12255399480E+02  0.81236360251E+02  0.86687671789E+02  0.41800000000E+01 0. -1.
         -5    1    4    4    0  501 -0.10333180769E+03  0.66599437228E+02  0.19246629451E+03  0.22841561778E+03  0.41800000000E+01 0. -1.
</event>
<event>
11    1  0.8041700E-009  0.1503340E+03  0.7561462E-02  0.1096538E+00
         22   -1    0    0    0    0  0.00000000000E+00  0.00000000000E+00  0.42391507544E+03  0.42391507544E+03  0.00000000000E+00 0. -1.
         22   -1    0    0    0    0 -0.00000000000E+00 -0.00000000000E+00 -0.18432636528E+03  0.18432636528E+03  0.00000000000E+00 0.  1.
         24    2    1    2    0    0  0.35341183432E+02  0.25177706952E+02 -0.76608466751E+02  0.11865026339E+03  0.79536857186E+02 0.  0.
         25    2    1    2    0    0 -0.85360933871E+02  0.41163870517E+02  0.44475440985E+01  0.15699430001E+03  0.12508587578E+03 0.  0.
        -24    2    1    2    0    0  0.50019750439E+02 -0.66341577469E+02  0.31174963282E+03  0.33259687732E+03  0.80806366753E+02 0.  0.
        -13    1    3    3    0    0  0.51705061787E+02  0.37189507736E+02 -0.35776648135E+02  0.73050951067E+02  0.00000000000E+00 0.  1.
         14    1    3    3    0    0 -0.16363878355E+02 -0.12011800785E+02 -0.40831818616E+02  0.45599312324E+02  0.00000000000E+00 0. -1.
         13    1    5    5    0    0  0.66805686423E+02 -0.53992441460E+02  0.29009093130E+03  0.30254079377E+03  0.00000000000E+00 0. -1.
        -14    1    5    5    0    0 -0.16785935984E+02 -0.12349136009E+02  0.21658701520E+02  0.30056083553E+02  0.00000000000E+00 0.  1.
          5    1    4    4  501    0 -0.16458159374E+02 -0.29335795049E+02  0.39715119263E+02  0.52213245247E+02  0.41800000000E+01 0.  1.
         -5    1    4    4    0  501 -0.68902774497E+02  0.70499665567E+02 -0.35267575165E+02  0.10478105476E+03  0.41800000000E+01 0.  1.
</event>
<event>
11    1  0.8041700E-009  0.1287708E+03  0.7561462E-02  0.1120789E+00
         22   -1    0    0    0    0  0.00000000000E+00  0.00000000000E+00  0.19099775382E+03  0.19099775382E+03  0.00000000000E+00 0.  1.
         22   -1    0    0    0    0 -0.00000000000E+00 -0.00000000000E+00 -0.85160212836E+03  0.85160212836E+03  0.00000000000E+00 0. -1.
         24    2    1    2    0    0 -0.41952532707E+01  0.59676696686E+02 -0.48415678050E+03  0.49444565037E+03  0.80559324670E+02 0.  0.
         25    2    1    2    0    0  0.14198508972E+02 -0.85665456116E+02 -0.32831704899E+03  0.36191091872E+03  0.12508900990E+03 0.  0.
        -24    2    1    2    0    0 -0.10003255701E+02  0.25988759431E+02  0.15186945495E+03  0.18624331310E+03  0.10414777763E+03 0.  0.
        -13    1    3    3    0    0  0.34716982411E+02  0.22379289705E+02 -0.13577315905E+03  0.14191706097E+03  0.00000000000E+00 0.  1.
         14    1    3    3    0    0 -0.38912235681E+02  0.37297406981E+02 -0.34838362145E+03  0.35252858940E+03  0.00000000000E+00 0. -1.
         11    1    5    5    0    0  0.26373813057E+02 -0.27838319735E+02  0.32189106914E+02  0.50066841969E+02  0.00000000000E+00 0. -1.
        -12    1    5    5    0    0 -0.36377068759E+02  0.53827079166E+02  0.11968034804E+03  0.13617647113E+03  0.00000000000E+00 0.  1.
          5    1    4    4  501    0 -0.53560498656E+02 -0.32033443204E+02 -0.10237279188E+03  0.11996886853E+03  0.41800000000E+01 0.  1.
         -5    1    4    4    0  501  0.67759007628E+02 -0.53632012912E+02 -0.22594425712E+03  0.24194205018E+03  0.41800000000E+01 0.  1.
</event>
<event>
11    1  0.8041700E-009  0.1390494E+03  0.7561462E-02  0.1108625E+00
         22   -1    0    0    0    0  0.00000000000E+00  0.00000000000E+00  0.38372705759E+02  0.38372705759E+02  0.00000000000E+00 0. -1.
         22   -1    0    0    0    0 -0.00000000000E+00 -0.00000000000E+00 -0.10516083218E+04  0.10516083218E+04  0.00000000000E+00 0. -1.
        -24    2    1    2    0    0  0.48098626020E+02  0.17123146283E+02 -0.62191518972E+03  0.62916128503E+03  0.80366282850E+02 0.  0.
         25    2    1    2    0    0 -0.24816157823E+02  0.49566627010E+02 -0.25347841558E+03  0.28804805284E+03  0.12509069262E+03 0.  0.
         24    2    1    2    0    0 -0.23282468196E+02 -0.66689773292E+02 -0.13784201069E+03  0.17277168963E+03  0.76550882683E+02 0.  0.
        -13    1    5    5    0    0 -0.68393684117E+00 -0.20206753426E+02 -0.11412947824E+03  0.11590650740E+03  0.00000000000E+00 0.  1.
         14    1    5    5    0    0 -0.22598531355E+02 -0.46483019867E+02 -0.23712532452E+02  0.56865182235E+02  0.00000000000E+00 0. -1.
         13    1    3    3    0    0  0.29302636844E+02  0.16846728464E+02 -0.59697062577E+03  0.59792673867E+03  0.00000000000E+00 0. -1.
        -14    1    3    3    0    0  0.18795989176E+02  0.27641781922E+00 -0.24944563950E+02  0.31234546364E+02  0.00000000000E+00 0.  1.
          5    1    4    4  501    0 -0.83421690447E+01 -0.38517586747E+02 -0.39174545081E+02  0.55725341233E+02  0.41800000000E+01 0.  1.
         -5    1    4    4    0  501 -0.16473988779E+02  0.88084213757E+02 -0.21430387050E+03  0.23232271161E+03  0.41800000000E+01 0.  1.
</event>
<event>
11    1  0.8041700E-009  0.1372830E+03  0.7561462E-02  0.1110631E+00
         22   -1    0    0    0    0  0.00000000000E+00  0.00000000000E+00  0.10823314357E+04  0.10823314357E+04  0.00000000000E+00 0.  1.
         22   -1    0    0    0    0 -0.00000000000E+00 -0.00000000000E+00 -0.17293416834E+03  0.17293416834E+03  0.00000000000E+00 0. -1.
        -24    2    1    2    0    0 -0.51785935462E+02 -0.16707685894E+02 -0.91484414664E+02  0.13260312631E+03  0.79077563823E+02 0.  0.
         25    2    1    2    0    0  0.70852185818E+02 -0.11343143217E+02  0.29292351020E+02  0.14715733810E+03  0.12509412934E+03 0.  0.
         24    2    1    2    0    0 -0.19066250356E+02  0.28050829111E+02  0.97158933100E+03  0.97550513963E+03  0.80461658138E+02 0.  0.
        -11    1    5    5    0    0 -0.46490413821E+02  0.35870726256E+02  0.63402001989E+03  0.63673342397E+03  0.00000000000E+00 0.  1.
         12    1    5    5    0    0  0.27424163465E+02 -0.78198971453E+01  0.33756931111E+03  0.33877171567E+03  0.00000000000E+00 0. -1.
         11    1    3    3    0    0 -0.60255830548E+02  0.27718612447E+01 -0.29631850171E+02  0.67204872401E+02  0.00000000000E+00 0. -1.
        -12    1    3    3    0    0  0.84698950869E+01 -0.19479547138E+02 -0.61852564493E+02  0.65398253905E+02  0.00000000000E+00 0.  1.
          5    1    4    4  501    0  0.59195468029E+02  0.10865251349E+02 -0.40643173143E+02  0.72742676918E+02  0.41800000000E+01 0. -1.
         -5    1    4    4    0  501  0.11656717789E+02 -0.22208394566E+02  0.69935524163E+02  0.74414661182E+02  0.41800000000E+01 0. -1.
</event>
<event>
11    1  0.8041700E-009  0.1998361E+03  0.7561462E-02  0.1054640E+00
         22   -1    0    0    0    0  0.00000000000E+00  0.00000000000E+00  0.15811566112E+03  0.15811566112E+03  0.00000000000E+00 0. -1.
         22   -1    0    0    0    0 -0.00000000000E+00 -0.00000000000E+00 -0.59717574330E+03  0.59717574330E+03  0.00000000000E+00 0. -1.
         24    2    1    2    0    0  0.10686466434E+03 -0.10348427101E+03 -0.31389435934E+03  0.35672680839E+03  0.81211428768E+02 0.  0.
         25    2    1    2    0    0 -0.11122604300E+03  0.13095194152E+03 -0.19521284838E+03  0.28857506420E+03  0.12509143806E+03 0.  0.
        -24    2    1    2    0    0  0.43613786527E+01 -0.27467670509E+02  0.70047125553E+02  0.10998953183E+03  0.80109941751E+02 0.  0.
        -11    1    3    3    0    0  0.84957485341E+01 -0.14332613144E+02 -0.83558951887E+00  0.16682318560E+02  0.00000000000E+00 0.  1.
         12    1    3    3    0    0  0.98368915810E+02 -0.89151657870E+02 -0.31305876982E+03  0.34004448983E+03  0.00000000000E+00 0. -1.
         11    1    5    5    0    0  0.19584733874E+02 -0.51111918134E+02  0.56878783710E+02  0.78937861718E+02  0.00000000000E+00 0. -1.
        -12    1    5    5    0    0 -0.15223355221E+02  0.23644247625E+02  0.13168341843E+02  0.31051670114E+02  0.00000000000E+00 0.  1.
          5    1    4    4  501    0 -0.53098485324E+02  0.19346577849E+02 -0.14011823273E+03  0.15114341124E+03  0.41800000000E+01 0.  1.
         -5    1    4    4    0  501 -0.58127557672E+02  0.11160536367E+03 -0.55094615653E+02  0.13743165296E+03  0.41800000000E+01 0.  1.
</event>
<event>
11    1  0.8041700E-009  0.1303862E+03  0.7561462E-02  0.1118795E+00
         22   -1    0    0    0    0  0.00000000000E+00  0.00000000000E+00  0.15904112166E+04  0.15904112166E+04  0.00000000000E+00 0. -1.
         22   -1    0    0    0    0 -0.00000000000E+00 -0.00000000000E+00 -0.22609603494E+03  0.22609603494E+03  0.00000000000E+00 0.  1.
         24    2    1    2    0    0 -0.22631224570E+02  0.29093154293E+02 -0.16068735363E+03  0.18431180370E+03  0.82412568299E+02 0.  0.
         25    2    1    2    0    0  0.34573718640E+02 -0.18418298397E+02  0.29350470887E+02  0.13432829756E+03  0.12509222857E+03 0.  0.
        -24    2    1    2    0    0 -0.11942494070E+02 -0.10674855895E+02  0.14956520644E+04  0.14978671503E+04  0.79839378794E+02 0.  0.
        -13    1    3    3    0    0 -0.53672647015E+01  0.40134560254E+02 -0.15862944188E+03  0.16371588282E+03  0.00000000000E+00 0.  1.
         14    1    3    3    0    0 -0.17263959868E+02 -0.11041405962E+02 -0.20579117495E+01  0.20595920875E+02  0.00000000000E+00 0. -1.
         13    1    5    5    0    0 -0.37425441571E+02 -0.16645156604E+02  0.12766117212E+04  0.12772686529E+04  0.00000000000E+00 0. -1.
        -14    1    5    5    0    0  0.25482947501E+02  0.59703007090E+01  0.21904034317E+03  0.22059849737E+03  0.00000000000E+00 0.  1.
          5    1    4    4  501    0  0.35680880942E+02  0.38393304561E+02 -0.22593103932E+02  0.57228418161E+02  0.41800000000E+01 0.  1.
         -5    1    4    4    0  501 -0.11071623026E+01 -0.56811602959E+02  0.51943574818E+02  0.77099879403E+02  0.41800000000E+01 0.  1.
</event>
<event>
11    1  0.8041700E-009  0.2838236E+03  0.7561462E-02  0.1007280E+00
         22   -1    0    0    0    0  0.00000000000E+00  0.00000000000E+00  0.59259514318E+03  0.59259514318E+03  0.00000000000E+00 0. -1.
         22   -1    0    0    0    0 -0.00000000000E+00 -0.00000000000E+00 -0.67619115402E+03  0.67619115402E+03  0.00000000000E+00 0. -1.
        -24    2    1    2    0    0  0.22632186354E+03  0.97474389568E+02 -0.38854966550E+03  0.46839226478E+03  0.87736130553E+02 0.  0.
         25    2    1    2    0    0 -0.34421688216E+03  0.11242829853E+03 -0.25048535545E+02  0.38392906771E+03  0.12509482653E+03 0.  0.
         24    2    1    2    0    0  0.11789501862E+03 -0.20990268810E+03  0.33000219021E+03  0.41646496472E+03  0.81137213507E+02 0.  0.
        -13    1    5    5    0    0  0.35946461096E+02 -0.12237471261E+03  0.21697899013E+03  0.25168949225E+03  0.00000000000E+00 0.  1.
         14    1    5    5    0    0  0.81948557524E+02 -0.87527975490E+02  0.11302320008E+03  0.16477547247E+03  0.00000000000E+00 0. -1.
         13    1    3    3    0    0  0.23385420242E+03  0.98889691496E+02 -0.37664599458E+03  0.45423470178E+03  0.00000000000E+00 0. -1.
        -14    1    3    3    0    0 -0.75323388768E+01 -0.14153019277E+01 -0.11903670919E+02  0.14157562991E+02  0.00000000000E+00 0.  1.
          5    1    4    4  501    0 -0.34046009806E+03  0.12887222410E+03 -0.16177070242E+02  0.36441775275E+03  0.41800000000E+01 0. -1.
         -5    1    4    4    0  501 -0.37567840974E+01 -0.16443925569E+02 -0.88714653029E+01  0.19511314960E+02  0.41800000000E+01 0. -1.
</event>
<event>
11    1  0.8041700E-009  0.2512113E+03  0.7561462E-02  0.1023256E+00
         22   -1    0    0    0    0  0.00000000000E+00  0.00000000000E+00  0.10061532580E+04  0.10061532580E+04  0.00000000000E+00 0. -1.
         22   -1    0    0    0    0 -0.00000000000E+00 -0.00000000000E+00 -0.19821335658E+04  0.19821335658E+04  0.00000000000E+00 0. -1.
         24    2    1    2    0    0  0.17574142043E+01  0.18879646277E+02 -0.18094127088E+04  0.18112792125E+04  0.79990657523E+02 0.  0.
         25    2    1    2    0    0  0.21531227779E+03  0.29990918567E+01 -0.57441426663E+02  0.25556920343E+03  0.12509088187E+03 0.  0.
        -24    2    1    2    0    0 -0.21706969199E+03 -0.21878738134E+02  0.89087382771E+03  0.92143840786E+03  0.88287214401E+02 0.  0.
        -13    1    3    3    0    0 -0.20894046712E+02 -0.17150347648E+02 -0.28660706676E+03  0.28787897861E+03  0.00000000000E+00 0.  1.
         14    1    3    3    0    0  0.22651460916E+02  0.36029993925E+02 -0.15228056421E+04  0.15234002339E+04  0.00000000000E+00 0. -1.
         13    1    5    5    0    0 -0.20069461863E+03 -0.43798850597E+02  0.82320018488E+03  0.84844281696E+03  0.00000000000E+00 0. -1.
        -14    1    5    5    0    0 -0.16375073359E+02  0.21920112463E+02  0.67673642824E+02  0.72995590901E+02  0.00000000000E+00 0.  1.
          5    1    4    4  501    0  0.57195181245E+02  0.50391246119E+02  0.10417989301E+02  0.77049161865E+02  0.41800000000E+01 0. -1.
         -5    1    4    4    0  501  0.15811709654E+03 -0.47392154262E+02 -0.67859415965E+02  0.17852004156E+03  0.41800000000E+01 0. -1.
</event>
<event>
11    1  0.8041700E-009  0.1476838E+03  0.7561462E-02  0.1099269E+00
         22   -1    0    0    0    0  0.00000000000E+00  0.00000000000E+00  0.30524368560E+03  0.30524368560E+03  0.00000000000E+00 0. -1.
         22   -1    0    0    0    0 -0.00000000000E+00 -0.00000000000E+00 -0.59766727162E+03  0.59766727162E+03  0.00000000000E+00 0. -1.
         24    2    1    2    0    0  0.53286462828E+02 -0.61545903215E+02 -0.37093895038E+03  0.38872290788E+03  0.82960526018E+02 0.  0.
         25    2    1    2    0    0 -0.45015011861E+02  0.54152417884E+02 -0.18745969392E+03  0.23612244824E+03  0.12511529908E+03 0.  0.
        -24    2    1    2    0    0 -0.82714509675E+01  0.73934853314E+01  0.26597505827E+03  0.27806560110E+03  0.80340938287E+02 0.  0.
        -13    1    3    3    0    0 -0.69062537993E+01  0.16373104558E+02 -0.57217157604E+02  0.59913087207E+02  0.00000000000E+00 0.  1.
         14    1    3    3    0    0  0.60192716627E+02 -0.77919007773E+02 -0.31372179278E+03  0.32880982067E+03  0.00000000000E+00 0. -1.
         13    1    5    5    0    0  0.26980977613E+02  0.23470526131E+02  0.18337985815E+03  0.18683418083E+03  0.00000000000E+00 0. -1.
        -14    1    5    5    0    0 -0.35252428581E+02 -0.16077040800E+02  0.82595200124E+02  0.91231420274E+02  0.00000000000E+00 0.  1.
          5    1    4    4  501    0 -0.23562766895E+02 -0.39734783797E+02 -0.49671963777E+02  0.67961999769E+02  0.41800000000E+01 0.  1.
         -5    1    4    4    0  501 -0.21452244965E+02  0.93887201681E+02 -0.13778773014E+03  0.16816044847E+03  0.41800000000E+01 0.  1.
</event>
<event>
11    1  0.8041700E-009  0.1371761E+03  0.7561462E-02  0.1110753E+00
         22   -1    0    0    0    0  0.00000000000E+00  0.00000000000E+00  0.44114405071E+03  0.44114405071E+03  0.00000000000E+00 0.  1.
         22   -1    0    0    0    0 -0.00000000000E+00 -0.00000000000E+00 -0.26003717081E+03  0.26003717081E+03  0.00000000000E+00 0.  1.
        -24    2    1    2    0    0 -0.62945434839E+02  0.77417042429E+00 -0.12638219219E+03  0.16624058364E+03  0.87753894732E+02 0.  0.
         25    2    1    2    0    0  0.32482904957E+02  0.56849626297E+02 -0.59608287788E+02  0.15325671483E+03  0.12508978192E+03 0.  0.
         24    2    1    2    0    0  0.30462529882E+02 -0.57623796722E+02  0.36709735987E+03  0.38168392305E+03  0.81692581142E+02 0.  0.
        -11    1    5    5    0    0 -0.52602696698E+01 -0.66376170512E+02  0.26232829901E+03  0.27064663846E+03  0.00000000000E+00 0.  1.
         12    1    5    5    0    0  0.35722799552E+02  0.87523737904E+01  0.10476906087E+03  0.11103728459E+03  0.00000000000E+00 0. -1.
         11    1    3    3    0    0 -0.56700349266E+02 -0.93773795218E+01 -0.22565448562E+02  0.61741917061E+02  0.00000000000E+00 0. -1.
        -12    1    3    3    0    0 -0.62450855730E+01  0.10151549946E+02 -0.10381674363E+03  0.10449866658E+03  0.00000000000E+00 0.  1.
          5    1    4    4  501    0  0.71107022818E+01 -0.39847790705E+02 -0.11833467566E+02  0.42378200359E+02  0.41800000000E+01 0.  1.
         -5    1    4    4    0  501  0.25372202675E+02  0.96697417002E+02 -0.47774820221E+02  0.11087851447E+03  0.41800000000E+01 0.  1.
</event>
<event>
11    1  0.8041700E-009  0.1772478E+03  0.7561462E-02  0.1071891E+00
         22   -1    0    0    0    0  0.00000000000E+00  0.00000000000E+00  0.14745718527E+04  0.14745718527E+04  0.00000000000E+00 0. -1.
         22   -1    0    0    0    0 -0.00000000000E+00 -0.00000000000E+00 -0.33261527005E+03  0.33261527005E+03  0.00000000000E+00 0. -1.
        -24    2    1    2    0    0 -0.86573151794E+02 -0.17438645002E+02 -0.28885603243E+03  0.31239742498E+03  0.79720303001E+02 0.  0.
         25    2    1    2    0    0  0.17932787530E+03  0.81429647853E+02  0.47789659100E+03  0.53181096665E+03  0.12509387736E+03 0.  0.
         24    2    1    2    0    0 -0.92754723502E+02 -0.63991002851E+02  0.95291602412E+03  0.96297873116E+03  0.81122133005E+02 0.  0.
        -13    1    5    5    0    0  0.89783355287E+01 -0.13829659551E+01  0.15373593157E+02  0.17856944595E+02  0.00000000000E+00 0.  1.
         14    1    5    5    0    0 -0.10173305903E+03 -0.62608036896E+02  0.93754243096E+03  0.94512178656E+03  0.00000000000E+00 0. -1.
         13    1    3    3    0    0 -0.77059284230E+02 -0.16148366492E+02 -0.29189501317E+03  0.30232697819E+03  0.00000000000E+00 0. -1.
        -14    1    3    3    0    0 -0.95138675645E+01 -0.12902785094E+01  0.30389807384E+01  0.10070446792E+02  0.00000000000E+00 0.  1.
          5    1    4    4  501    0  0.18727421272E+03  0.56582365585E+02  0.34788723731E+03  0.39914433120E+03  0.41800000000E+01 0.  1.
         -5    1    4    4    0  501 -0.79463374276E+01  0.24847282268E+02  0.13000935369E+03  0.13266663545E+03  0.41800000000E+01 0.  1.
</event>
<event>
11    1  0.8041700E-009  0.1310609E+03  0.7561462E-02  0.1117972E+00
         22   -1    0    0    0    0  0.00000000000E+00  0.00000000000E+00  0.44687350344E+02  0.44687350344E+02  0.00000000000E+00 0. -1.
         22   -1    0    0    0    0 -0.00000000000E+00 -0.00000000000E+00 -0.13811751369E+04  0.13811751369E+04  0.00000000000E+00 0.  1.
         24    2    1    2    0    0 -0.27487613736E+01  0.40208037353E+02 -0.44197475861E+03  0.45093410725E+03  0.79847604048E+02 0.  0.
         25    2    1    2    0    0  0.29502882833E+02 -0.31207266454E+02 -0.88150131328E+03  0.89136726741E+03  0.12508687587E+03 0.  0.
        -24    2    1    2    0    0 -0.26754121459E+02 -0.90007708987E+01 -0.13011714711E+02  0.83561112636E+02  0.77565185060E+02 0.  0.
        -11    1    3    3    0    0 -0.27168526835E+02 -0.46133089613E+00 -0.30033323492E+03  0.30155993380E+03  0.00000000000E+00 0.  1.
         12    1    3    3    0    0  0.24419765462E+02  0.40669368249E+02 -0.14164152369E+03  0.14937417344E+03  0.00000000000E+00 0. -1.
         13    1    5    5    0    0 -0.41255080110E+02  0.84185846780E+00  0.20249940445E+02  0.45964665218E+02  0.00000000000E+00 0. -1.
        -14    1    5    5    0    0  0.14500958651E+02 -0.98426293665E+01 -0.33261655157E+02  0.37596447418E+02  0.00000000000E+00 0.  1.
          5    1    4    4  501    0  0.21427174908E+02 -0.70827085716E+02 -0.32324523102E+03  0.33163315828E+03  0.41800000000E+01 0. -1.
         -5    1    4    4    0  501  0.80757079254E+01  0.39619819261E+02 -0.55825608226E+03  0.55973410912E+03  0.41800000000E+01 0. -1.
</event>
<event>
11    1  0.8041700E-009  0.2339403E+03  0.7561462E-02  0.1032820E+00
         22   -1    0    0    0    0  0.00000000000E+00  0.00000000000E+00  0.62452875175E+03  0.62452875175E+03  0.00000000000E+00 0. -1.
         22   -1    0    0    0    0 -0.00000000000E+00 -0.00000000000E+00 -0.84673391919E+03  0.84673391919E+03  0.00000000000E+00 0.  1.
         24    2    1    2    0    0 -0.15587655760E+03  0.11029769506E+03 -0.66405714575E+03  0.69565068299E+03  0.80590924958E+02 0.  0.
         25    2    1    2    0    0  0.15818151114E+03 -0.21982550110E+03 -0.15287493338E+02  0.29870951897E+03  0.12509607454E+03 0.  0.
        -24    2    1    2    0    0 -0.23049535396E+01  0.10952780605E+03  0.45713947165E+03  0.47690246899E+03  0.80360533085E+02 0.  0.
        -11    1    3    3    0    0 -0.11606834875E+03  0.33725818679E+02 -0.37712462282E+03  0.39602054690E+03  0.00000000000E+00 0.  1.
         12    1    3    3    0    0 -0.39808208855E+02  0.76571876376E+02 -0.28693252292E+03  0.29963013609E+03  0.00000000000E+00 0. -1.
         13    1    5    5    0    0 -0.29873577734E+02  0.68563943251E+02  0.36273459821E+03  0.37036446063E+03  0.00000000000E+00 0. -1.
        -14    1    5    5    0    0  0.27568624194E+02  0.40963862797E+02  0.94404873441E+02  0.10653800836E+03  0.00000000000E+00 0.  1.
          5    1    4    4  501    0  0.64213745754E+02 -0.93921474313E+01 -0.20394232121E+02  0.68154344549E+02  0.41800000000E+01 0.  1.
         -5    1    4    4    0  501  0.93967765386E+02 -0.21043335367E+03  0.51067387837E+01  0.23055517442E+03  0.41800000000E+01 0.  1.
</event>
<event>
11    1  0.8041700E-009  0.1405094E+03  0.7561462E-02  0.1106991E+00
         22   -1    0    0    0    0  0.00000000000E+00  0.00000000000E+00  0.85859387547E+03  0.85859387547E+03  0.00000000000E+00 0. -1.
         22   -1    0    0    0    0 -0.00000000000E+00 -0.00000000000E+00 -0.19081517288E+04  0.19081517288E+04  0.00000000000E+00 0.  1.
        -24    2    1    2    0    0  0.25839401840E+02  0.11752095512E+02 -0.16082223666E+04  0.16105018126E+04  0.80815355577E+02 0.  0.
         25    2    1    2    0    0  0.78609226163E+01 -0.66200620195E+02 -0.27867087307E+03  0.31264848034E+03  0.12508917037E+03 0.  0.
         24    2    1    2    0    0 -0.33700324456E+02  0.54448524683E+02  0.83733538635E+03  0.84359531126E+03  0.80138294392E+02 0.  0.
        -13    1    5    5    0    0 -0.42127592618E+01 -0.18345218463E+02  0.79355230025E+02  0.81557016334E+02  0.00000000000E+00 0.  1.
         14    1    5    5    0    0 -0.29487565195E+02  0.72793743146E+02  0.75798015633E+03  0.76203829492E+03  0.00000000000E+00 0. -1.
         13    1    3    3    0    0 -0.24702407341E+02  0.82710043690E+01 -0.25404805763E+03  0.25538017548E+03  0.00000000000E+00 0. -1.
        -14    1    3    3    0    0  0.50541809182E+02  0.34810911426E+01 -0.13541743090E+04  0.13551216372E+04  0.00000000000E+00 0.  1.
          5    1    4    4  501    0 -0.22864025217E+02 -0.77276874302E+01  0.17177714249E+01  0.24554102321E+02  0.41800000000E+01 0. -1.
         -5    1    4    4    0  501  0.30724947833E+02 -0.58472932765E+02 -0.28038864449E+03  0.28809437802E+03  0.41800000000E+01 0. -1.
</event>
<event>
11    1  0.8041700E-009  0.1304817E+03  0.7561462E-02  0.1118678E+00
         22   -1    0    0    0    0  0.00000000000E+00  0.00000000000E+00  0.71068654568E+03  0.71068654568E+03  0.00000000000E+00 0. -1.
         22   -1    0    0    0    0 -0.00000000000E+00 -0.00000000000E+00 -0.24956603047E+03  0.24956603047E+03  0.00000000000E+00 0.  1.
        -24    2    1    2    0    0 -0.36083189710E+01 -0.36108404069E+02 -0.20371879516E+03  0.22205666071E+03  0.80566595160E+02 0.  0.
         25    2    1    2    0    0  0.22913705463E+02  0.46955171339E+02  0.10337475076E+03  0.17048452944E+03  0.12509520243E+03 0.  0.
         24    2    1    2    0    0 -0.19305386492E+02 -0.10846767270E+02  0.56146455962E+03  0.56771138599E+03  0.81014910792E+02 0.  0.
        -13    1    5    5    0    0  0.81072049476E+01  0.14598056284E+02  0.25734133396E+02  0.30676956189E+02  0.00000000000E+00 0.  1.
         14    1    5    5    0    0 -0.27412591440E+02 -0.25444823554E+02  0.53573042622E+03  0.53703442980E+03  0.00000000000E+00 0. -1.
         11    1    3    3    0    0 -0.30813321109E+02 -0.25320832419E+01 -0.30132877591E+02  0.43172474045E+02  0.00000000000E+00 0. -1.
        -12    1    3    3    0    0  0.27205002138E+02 -0.33576320827E+02 -0.17358591757E+03  0.17888418667E+03  0.00000000000E+00 0.  1.
          5    1    4    4  501    0 -0.62400952843E+01 -0.27017132175E+02 -0.11837176059E+02  0.30437729173E+02  0.41800000000E+01 0. -1.
         -5    1    4    4    0  501  0.29153800747E+02  0.73972303514E+02  0.11521192681E+03  0.14004680027E+03  0.41800000000E+01 0. -1.
</event>
<event>
11    1  0.1087418E-008  0.1845118E+03  0.7561462E-02  0.1066051E+00
         22   -1    0    0    0    0  0.00000000000E+00  0.00000000000E+00  0.19834140381E+04  0.19834140381E+04  0.00000000000E+00 0.  1.
         22   -1    0    0    0    0 -0.00000000000E+00 -0.00000000000E+00 -0.55558156220E+03  0.55558156220E+03  0.00000000000E+00 0. -1.
        -24    2    1    2    0    0 -0.38916454842E+02 -0.54478551865E+02 -0.47743880408E+03  0.49396769276E+03  0.10758190729E+03 0.  0.
         25    2    1    2    0    0 -0.97089101146E+02  0.71950331246E+02  0.47313118227E+02  0.18026534740E+03  0.12511562887E+03 0.  0.
         24    2    1    2    0    0  0.13600555599E+03 -0.17471779380E+02  0.18579581618E+04  0.18647625602E+04  0.80796661869E+02 0.  0.
        -13    1    5    5    0    0  0.69516302408E+02  0.88860587317E+00  0.13911086186E+04  0.13928447489E+04  0.00000000000E+00 0.  1.
         14    1    5    5    0    0  0.66489253581E+02 -0.18360385254E+02  0.46684954320E+03  0.47191781125E+03  0.00000000000E+00 0. -1.
         11    1    3    3    0    0 -0.23853068604E+02 -0.86219433880E+01 -0.41134187834E+03  0.41212309771E+03  0.00000000000E+00 0. -1.
        -12    1    3    3    0    0 -0.15063386238E+02 -0.45856608477E+02 -0.66096925734E+02  0.81844595041E+02  0.00000000000E+00 0.  1.
          5    1    4    4  501    0 -0.27827937775E+02 -0.35626546637E+02  0.18659562544E+02  0.49084586384E+02  0.41800000000E+01 0.  1.
         -5    1    4    4    0  501 -0.69261163371E+02  0.10757687788E+03  0.28653555683E+02  0.13118076101E+03  0.41800000000E+01 0.  1.
</event>
<event>
11    1  0.8041700E-009  0.1291955E+03  0.7561462E-02  0.1120261E+00
         22   -1    0    0    0    0  0.00000000000E+00  0.00000000000E+00  0.86325536665E+02  0.86325536665E+02  0.00000000000E+00 0.  1.
         22   -1    0    0    0    0 -0.00000000000E+00 -0.00000000000E+00 -0.40700563834E+03  0.40700563834E+03  0.00000000000E+00 0.  1.
        -24    2    1    2    0    0 -0.31306314507E+02  0.11985677550E+02 -0.26033842380E+03  0.27430460262E+03  0.79644072719E+02 0.  0.
         25    2    1    2    0    0  0.18730446611E+02 -0.18260548060E+02 -0.41189863146E+02  0.13426977655E+03  0.12508993094E+03 0.  0.
         24    2    1    2    0    0  0.12575867896E+02  0.62748705100E+01 -0.19151814725E+02  0.84756795827E+02  0.81359670466E+02 0.  0.
        -13    1    5    5    0    0 -0.21402668259E+01 -0.31359135529E+02  0.12092073512E+02  0.33677802260E+02  0.00000000000E+00 0.  1.
         14    1    5    5    0    0  0.14716134722E+02  0.37634006039E+02 -0.31243888237E+02  0.51078993567E+02  0.00000000000E+00 0. -1.
         11    1    3    3    0    0  0.48718322057E+00  0.42186402661E+01  0.52243799160E+01  0.67326383158E+01  0.00000000000E+00 0. -1.
        -12    1    3    3    0    0 -0.31793497727E+02  0.77670372842E+01 -0.26556280371E+03  0.26757196431E+03  0.00000000000E+00 0.  1.
          5    1    4    4  501    0  0.14801450980E+02 -0.71881725056E+02 -0.18766467918E+02  0.75866448884E+02  0.41800000000E+01 0. -1.
         -5    1    4    4    0  501  0.39289956308E+01  0.53621176996E+02 -0.22423395228E+02  0.58403327667E+02  0.41800000000E+01 0. -1.
</event>
<event>
11    1  0.8041700E-009  0.1848323E+03  0.7561462E-02  0.1065800E+00
         22   -1    0    0    0    0  0.00000000000E+00  0.00000000000E+00  0.12724000917E+03  0.12724000917E+03  0.00000000000E+00 0. -1.
         22   -1    0    0    0    0 -0.00000000000E+00 -0.00000000000E+00 -0.31065350391E+04  0.31065350391E+04  0.00000000000E+00 0.  1.
        -24    2    1    2    0    0 -0.14756349267E+02  0.10307273184E+00 -0.28597753167E+04  0.28609175619E+04  0.79477501577E+02 0.  0.
         25    2    1    2    0    0  0.16988983453E+02  0.13559210849E+03 -0.17445685818E+02  0.18608017425E+03  0.12509050265E+03 0.  0.
         24    2    1    2    0    0 -0.22326341860E+01 -0.13569518122E+03 -0.10207402744E+03  0.18677731218E+03  0.77772041286E+02 0.  0.
        -11    1    5    5    0    0 -0.14323242582E+02 -0.35286698102E+01 -0.35192907539E+02  0.38159501172E+02  0.00000000000E+00 0.  1.
         12    1    5    5    0    0  0.12090608396E+02 -0.13216651141E+03 -0.66881119899E+02  0.14861781101E+03  0.00000000000E+00 0. -1.
         13    1    3    3    0    0  0.19763724093E+02 -0.19371797657E+02 -0.47028692116E+03  0.47110047713E+03  0.00000000000E+00 0. -1.
        -14    1    3    3    0    0 -0.34520073360E+02  0.19474870389E+02 -0.23894883955E+04  0.23898170847E+04  0.00000000000E+00 0.  1.
          5    1    4    4  501    0 -0.33164955896E-01  0.13396303328E+03  0.28371006847E+02  0.13699810880E+03  0.41800000000E+01 0. -1.
         -5    1    4    4    0  501  0.17022148409E+02  0.16290752094E+01 -0.45816692665E+02  0.49082065455E+02  0.41800000000E+01 0. -1.
</event>
<event>
11    1  0.8041700E-009  0.1362525E+03  0.7561462E-02  0.1111817E+00
         22   -1    0    0    0    0  0.00000000000E+00  0.00000000000E+00  0.23000932945E+03  0.23000932945E+03  0.00000000000E+00 0.  1.
         22   -1    0    0    0    0 -0.00000000000E+00 -0.00000000000E+00 -0.28783082082E+03  0.28783082082E+03  0.00000000000E+00 0.  1.
         24    2    1    2    0    0  0.16126441648E+02 -0.41805346904E+01 -0.20704043717E+03  0.22157842620E+03  0.77160335298E+02 0.  0.
         25    2    1    2    0    0  0.64292768862E+01 -0.47375950711E+02  0.22307141503E+02  0.13576265414E+03  0.12509225952E+03 0.  0.
        -24    2    1    2    0    0 -0.22555718534E+02  0.51556485402E+02  0.12691180430E+03  0.16049906993E+03  0.80538895894E+02 0.  0.
        -11    1    3    3    0    0  0.10471845789E+02 -0.40630370081E+02 -0.11556717983E+03  0.12294819877E+03  0.00000000000E+00 0.  1.
         12    1    3    3    0    0  0.56545958587E+01  0.36449835391E+02 -0.91473257341E+02  0.98630227430E+02  0.00000000000E+00 0. -1.
         13    1    5    5    0    0 -0.79317273774E+01 -0.98028044846E+01  0.82249150903E+02  0.83210156226E+02  0.00000000000E+00 0. -1.
        -14    1    5    5    0    0 -0.14623991157E+02  0.61359289887E+02  0.44662653394E+02  0.77288913700E+02  0.00000000000E+00 0.  1.
          5    1    4    4  501    0 -0.55269625667E+02 -0.45840303694E+02  0.14981901529E+02  0.73471046934E+02  0.41800000000E+01 0. -1.
         -5    1    4    4    0  501  0.61698902553E+02 -0.15356470171E+01  0.73252399739E+01  0.62291607209E+02  0.41800000000E+01 0. -1.
</event>
<event>
11    1  0.8041700E-009  0.1530740E+03  0.7561462E-02  0.1093778E+00
         22   -1    0    0    0    0  0.00000000000E+00  0.00000000000E+00  0.21910722041E+03  0.21910722041E+03  0.00000000000E+00 0. -1.
         22   -1    0    0    0    0 -0.00000000000E+00 -0.00000000000E+00 -0.38011246953E+03  0.38011246953E+03  0.00000000000E+00 0. -1.
         24    2    1    2    0    0  0.38420555807E+02  0.92313049368E+02 -0.17719339565E+03  0.21869491592E+03  0.80200552358E+02 0.  0.
         25    2    1    2    0    0 -0.87145676900E+02 -0.25156224601E+02 -0.12283513266E+03  0.19739320893E+03  0.12509358289E+03 0.  0.
        -24    2    1    2    0    0  0.48725121094E+02 -0.67156824766E+02  0.13902327918E+03  0.18313156508E+03  0.85589260058E+02 0.  0.
        -13    1    3    3    0    0  0.54471818676E+01  0.39930940544E+01 -0.90085129772E+02  0.90337960994E+02  0.00000000000E+00 0.  1.
         14    1    3    3    0    0  0.32973373939E+02  0.88319955313E+02 -0.87108265874E+02  0.12835695493E+03  0.00000000000E+00 0. -1.
         11    1    5    5    0    0  0.67109722382E+02 -0.65159211572E+02  0.86333150446E+02  0.12729041817E+03  0.00000000000E+00 0. -1.
        -12    1    5    5    0    0 -0.18384601288E+02 -0.19976131945E+01  0.52690128732E+02  0.55841146916E+02  0.00000000000E+00 0.  1.
          5    1    4    4  501    0 -0.69551210483E+02 -0.74456751114E+02 -0.79203415637E+02  0.12911944902E+03  0.41800000000E+01 0. -1.
         -5    1    4    4    0  501 -0.17594466417E+02  0.49300526513E+02 -0.43631717019E+02  0.68273759916E+02  0.41800000000E+01 0. -1.
</event>
<event>
11    1  0.8041700E-009  0.1488829E+03  0.7561462E-02  0.1098026E+00
         22   -1    0    0    0    0  0.00000000000E+00  0.00000000000E+00  0.15370895779E+04  0.15370895779E+04  0.00000000000E+00 0.  1.
         22   -1    0    0    0    0 -0.00000000000E+00 -0.00000000000E+00 -0.48966103790E+03  0.48966103790E+03  0.00000000000E+00 0.  1.
        -24    2    1    2    0    0  0.32114286398E+02  0.75010832090E+02 -0.45893721211E+03  0.47274408673E+03  0.78775977051E+02 0.  0.
         25    2    1    2    0    0 -0.68364277541E+02 -0.25132073696E+02  0.21869895488E+03  0.26226620244E+03  0.12509609308E+03 0.  0.
         24    2    1    2    0    0  0.36249991143E+02 -0.49878758394E+02  0.12876667972E+04  0.12917403266E+04  0.81886130352E+02 0.  0.
        -11    1    5    5    0    0 -0.20816739160E+00  0.22448134678E+01  0.79268199635E+03  0.79268520224E+03  0.00000000000E+00 0.  1.
         12    1    5    5    0    0  0.36458158535E+02 -0.52123571862E+02  0.49498480084E+03  0.49905512434E+03  0.00000000000E+00 0. -1.
         11    1    3    3    0    0 -0.24437261474E+02  0.27904360373E+02 -0.10861953582E+03  0.11477820629E+03  0.00000000000E+00 0. -1.
        -12    1    3    3    0    0  0.56551547871E+02  0.47106471717E+02 -0.35031767628E+03  0.35796588044E+03  0.00000000000E+00 0.  1.
          5    1    4    4  501    0 -0.63558817864E+02 -0.42563449048E+02  0.22869624797E+03  0.24118626984E+03  0.41800000000E+01 0. -1.
         -5    1    4    4    0  501 -0.48054596773E+01  0.17431375352E+02 -0.99972930874E+01  0.21079932601E+02  0.41800000000E+01 0. -1.
</event>
<event>
11    1  0.8041700E-009  0.1424945E+03  0.7561462E-02  0.1104804E+00
         22   -1    0    0    0    0  0.00000000000E+00  0.00000000000E+00  0.93067044969E+03  0.93067044969E+03  0.00000000000E+00 0. -1.
         22   -1    0    0    0    0 -0.00000000000E+00 -0.00000000000E+00 -0.45016398092E+03  0.45016398092E+03  0.00000000000E+00 0. -1.
         24    2    1    2    0    0  0.60257358444E+02  0.30664007588E+02 -0.36369497446E+03  0.37853107341E+03  0.80252778657E+02 0.  0.
         25    2    1    2    0    0 -0.47977246509E+02 -0.68927201163E+02 -0.21716609648E+01  0.15066155120E+03  0.12506562939E+03 0.  0.
        -24    2    1    2    0    0 -0.12280111935E+02  0.38263193576E+02  0.84637310420E+03  0.85164180600E+03  0.85623951611E+02 0.  0.
        -13    1    3    3    0    0  0.28289249454E+02  0.82533766352E+01 -0.28251620254E+02  0.40823448012E+02  0.00000000000E+00 0.  1.
         14    1    3    3    0    0  0.31968108989E+02  0.22410630952E+02 -0.33544335420E+03  0.33770762540E+03  0.00000000000E+00 0. -1.
         11    1    5    5    0    0  0.12403253825E+02 -0.12025728568E+02  0.53438427236E+03  0.53466345433E+03  0.00000000000E+00 0. -1.
        -12    1    5    5    0    0 -0.24683365760E+02  0.50288922144E+02  0.31198883184E+03  0.31697835167E+03  0.00000000000E+00 0.  1.
          5    1    4    4  501    0 -0.68922492744E+02 -0.51284478571E+01 -0.32946342525E+02  0.76678190310E+02  0.41800000000E+01 0.  1.
         -5    1    4    4    0  501  0.20945246235E+02 -0.63798753306E+02  0.30774681560E+02  0.73983360889E+02  0.41800000000E+01 0.  1.
</event>
<event>
11    1  0.8041700E-009  0.1539699E+03  0.7561462E-02  0.1092890E+00
         22   -1    0    0    0    0  0.00000000000E+00  0.00000000000E+00  0.15671153988E+03  0.15671153988E+03  0.00000000000E+00 0.  1.
         22   -1    0    0    0    0 -0.00000000000E+00 -0.00000000000E+00 -0.52001276401E+03  0.52001276401E+03  0.00000000000E+00 0. -1.
         24    2    1    2    0    0  0.36205670590E+02  0.71806408861E+01 -0.32425444728E+03  0.33566198549E+03  0.78521396645E+02 0.  0.
         25    2    1    2    0    0 -0.10205447741E+03 -0.58875008833E+02 -0.10787617412E+03  0.20289516462E+03  0.12509115020E+03 0.  0.
        -24    2    1    2    0    0  0.65848806823E+02  0.51694367947E+02  0.68829397278E+02  0.13816715378E+03  0.85698911408E+02 0.  0.
        -11    1    3    3    0    0  0.42571601462E+02 -0.84937947722E+01 -0.81688106549E+02  0.92506391954E+02  0.00000000000E+00 0.  1.
         12    1    3    3    0    0 -0.63659308718E+01  0.15674435658E+02 -0.24256634073E+03  0.24315559353E+03  0.00000000000E+00 0. -1.
         11    1    5    5    0    0 -0.58769034594E+01 -0.91196022026E+01 -0.10530007423E+02  0.15119067264E+02  0.00000000000E+00 0. -1.
        -12    1    5    5    0    0  0.71725710282E+02  0.60813970150E+02  0.79359404701E+02  0.12304808652E+03  0.00000000000E+00 0.  1.
          5    1    4    4  501    0 -0.11561444501E+03 -0.78976143538E+01 -0.55926763147E+02  0.12874139756E+03  0.41800000000E+01 0.  1.
         -5    1    4    4    0  501  0.13559967601E+02 -0.50977394480E+02 -0.51949410978E+02  0.74153767067E+02  0.41800000000E+01 0.  1.
</event>
<event>
11    1  0.8041700E-009  0.1507383E+03  0.7561462E-02  0.1096127E+00
         22   -1    0    0    0    0  0.00000000000E+00  0.00000000000E+00  0.12473514136E+04  0.12473514136E+04  0.00000000000E+00 0. -1.
         22   -1    0    0    0    0 -0.00000000000E+00 -0.00000000000E+00 -0.13481435109E+04  0.13481435109E+04  0.00000000000E+00 0. -1.
         24    2    1    2    0    0 -0.63608822157E+02 -0.59882152941E+02 -0.11719155211E+04  0.11785843474E+04  0.89683448920E+02 0.  0.
         25    2    1    2    0    0  0.59056738306E+02  0.19038844371E+02 -0.14292910144E+03  0.19981103878E+03  0.12508216198E+03 0.  0.
        -24    2    1    2    0    0  0.45520838513E+01  0.40843308570E+02  0.12140525252E+04  0.12170995382E+04  0.75623109683E+02 0.  0.
        -13    1    3    3    0    0  0.87530480360E+01 -0.50090147855E+02 -0.39899073262E+03  0.40221790547E+03  0.00000000000E+00 0.  1.
         14    1    3    3    0    0 -0.72361870193E+02 -0.97920050862E+01 -0.77292478845E+03  0.77636644197E+03  0.00000000000E+00 0. -1.
         11    1    5    5    0    0 -0.95055318833E+01 -0.21058140267E+01  0.87435719238E+03  0.87441139600E+03  0.00000000000E+00 0. -1.
        -12    1    5    5    0    0  0.14057615735E+02  0.42949122596E+02  0.33969533279E+03  0.34268814221E+03  0.00000000000E+00 0.  1.
          5    1    4    4  501    0 -0.90766716029E+01  0.55256468463E+00  0.19906793891E+02  0.22281026416E+02  0.41800000000E+01 0.  1.
         -5    1    4    4    0  501  0.68133409909E+02  0.18486279687E+02 -0.16283589533E+03  0.17753001236E+03  0.41800000000E+01 0.  1.
</event>
<event>
11    1  0.8041700E-009  0.3552046E+03  0.7561462E-02  0.9792039E-01
         22   -1    0    0    0    0  0.00000000000E+00  0.00000000000E+00  0.36094400008E+03  0.36094400008E+03  0.00000000000E+00 0.  1.
         22   -1    0    0    0    0 -0.00000000000E+00 -0.00000000000E+00 -0.22043434941E+04  0.22043434941E+04  0.00000000000E+00 0. -1.
        -24    2    1    2    0    0  0.46868407390E+02  0.33092364641E+03 -0.19670275224E+04  0.19969436474E+04  0.82943050941E+02 0.  0.
         25    2    1    2    0    0 -0.87592825616E+02 -0.30649036599E+03 -0.73526177625E+02  0.35023129869E+03  0.12508803396E+03 0.  0.
         24    2    1    2    0    0  0.40724418226E+02 -0.24433280420E+02  0.19715420601E+03  0.21811254807E+03  0.80298438633E+02 0.  0.
        -11    1    5    5    0    0 -0.32221612575E+01 -0.14505313412E+01  0.14881861001E+03  0.14886055572E+03  0.00000000000E+00 0.  1.
         12    1    5    5    0    0  0.43946579483E+02 -0.22982749079E+02  0.48335595992E+02  0.69251992342E+02  0.00000000000E+00 0. -1.
         11    1    3    3    0    0  0.32056234044E+02  0.32684421409E+03 -0.19003646037E+04  0.19285332171E+04  0.00000000000E+00 0. -1.
        -12    1    3    3    0    0  0.14812173346E+02  0.40794323232E+01 -0.66662918639E+02  0.68410430263E+02  0.00000000000E+00 0.  1.
          5    1    4    4  501    0 -0.58001118888E+02 -0.52881731554E+02 -0.51391375680E+02  0.93910346707E+02  0.41800000000E+01 0. -1.
         -5    1    4    4    0  501 -0.29591706728E+02 -0.25360863444E+03 -0.22134801945E+02  0.25632095198E+03  0.41800000000E+01 0. -1.
</event>
<event>
11    1  0.8041700E-009  0.1631536E+03  0.7561462E-02  0.1084148E+00
         22   -1    0    0    0    0  0.00000000000E+00  0.00000000000E+00  0.38510336260E+03  0.38510336260E+03  0.00000000000E+00 0. -1.
         22   -1    0    0    0    0 -0.00000000000E+00 -0.00000000000E+00 -0.78369869340E+03  0.78369869340E+03  0.00000000000E+00 0.  1.
         24    2    1    2    0    0 -0.65323534010E+02 -0.85482120391E+02 -0.62325822184E+03  0.63762177334E+03  0.80847744253E+02 0.  0.
         25    2    1    2    0    0  0.52415752033E+02  0.72108804481E+02 -0.11070486967E+03  0.18934806086E+03  0.12510007689E+03 0.  0.
        -24    2    1    2    0    0  0.12907781976E+02  0.13373315910E+02  0.33536776071E+03  0.34183222180E+03  0.63500208881E+02 0.  0.
        -13    1    3    3    0    0 -0.69173567742E+02 -0.93555680971E+02 -0.47309872859E+03  0.48719611545E+03  0.00000000000E+00 0.  1.
         14    1    3    3    0    0  0.38500337321E+01  0.80735605796E+01 -0.15015949325E+03  0.15042565789E+03  0.00000000000E+00 0. -1.
         13    1    5    5    0    0  0.77241893247E+01  0.31278890431E+02  0.30113164021E+03  0.30285028780E+03  0.00000000000E+00 0. -1.
        -14    1    5    5    0    0  0.51835926517E+01 -0.17905574521E+02  0.34236120495E+02  0.38981933998E+02  0.00000000000E+00 0.  1.
          5    1    4    4  501    0 -0.13539393100E+02  0.81540041108E+02 -0.39371431229E+02  0.91649743406E+02  0.41800000000E+01 0.  1.
         -5    1    4    4    0  501  0.65955145133E+02 -0.94312366273E+01 -0.71333438440E+02  0.97698317455E+02  0.41800000000E+01 0.  1.
</event>
<event>
11    1  0.8041700E-009  0.1961184E+03  0.7561462E-02  0.1057303E+00
         22   -1    0    0    0    0  0.00000000000E+00  0.00000000000E+00  0.70115059765E+03  0.70115059765E+03  0.00000000000E+00 0.  1.
         22   -1    0    0    0    0 -0.00000000000E+00 -0.00000000000E+00 -0.17453990004E+03  0.17453990004E+03  0.00000000000E+00 0. -1.
         24    2    1    2    0    0 -0.57660519543E+02 -0.18364242030E+02 -0.97066611106E+02  0.14082277748E+03  0.82141017556E+02 0.  0.
         25    2    1    2    0    0 -0.10592117926E+03 -0.29915985680E+02  0.14660092160E+03  0.22193135351E+03  0.12508969998E+03 0.  0.
        -24    2    1    2    0    0  0.16358169881E+03  0.48280227710E+02  0.47707638711E+03  0.51293636670E+03  0.80074244156E+02 0.  0.
        -13    1    3    3    0    0 -0.51121351164E+02 -0.26228512132E+02 -0.16737821437E+02  0.59845484875E+02  0.00000000000E+00 0.  1.
         14    1    3    3    0    0 -0.65391683793E+01  0.78642701019E+01 -0.80328789669E+02  0.80977292601E+02  0.00000000000E+00 0. -1.
         11    1    5    5    0    0  0.62026015817E+02 -0.16779863182E+02  0.12122499821E+03  0.13720164226E+03  0.00000000000E+00 0. -1.
        -12    1    5    5    0    0  0.10155568299E+03  0.65060090892E+02  0.35585138890E+03  0.37573472445E+03  0.00000000000E+00 0.  1.
          5    1    4    4  501    0  0.16323853032E+02 -0.35870686215E+02  0.60139026630E+02  0.72023254795E+02  0.41800000000E+01 0. -1.
         -5    1    4    4    0  501 -0.12224503230E+03  0.59547005350E+01  0.86461894973E+02  0.14990809872E+03  0.41800000000E+01 0. -1.
</event>
<event>
11    1  0.8041700E-009  0.1678226E+03  0.7561462E-02  0.1079942E+00
         22   -1    0    0    0    0  0.00000000000E+00  0.00000000000E+00  0.36131274661E+03  0.36131274661E+03  0.00000000000E+00 0. -1.
         22   -1    0    0    0    0 -0.00000000000E+00 -0.00000000000E+00 -0.52095498214E+03  0.52095498214E+03  0.00000000000E+00 0.  1.
        -24    2    1    2    0    0 -0.11278514298E+02 -0.10463890156E+03 -0.39115725393E+03  0.41367509805E+03  0.83943938682E+02 0.  0.
         25    2    1    2    0    0  0.41248447586E+02  0.17585998263E+03  0.94582441155E+01  0.21992041778E+03  0.12508942344E+03 0.  0.
         24    2    1    2    0    0 -0.29969933288E+02 -0.71221081070E+02  0.22205677428E+03  0.24867221292E+03  0.80981597819E+02 0.  0.
        -11    1    5    5    0    0 -0.15719859381E+02 -0.78725000313E+02  0.11404780727E+03  0.13946914353E+03  0.00000000000E+00 0.  1.
         12    1    5    5    0    0 -0.14250073906E+02  0.75039192429E+01  0.10800896701E+03  0.10920306939E+03  0.00000000000E+00 0. -1.
         11    1    3    3    0    0  0.34215709502E+02 -0.58802541801E+02 -0.16493596725E+03  0.17841616237E+03  0.00000000000E+00 0. -1.
        -12    1    3    3    0    0 -0.45494223800E+02 -0.45836359758E+02 -0.22622128667E+03  0.23525893568E+03  0.00000000000E+00 0.  1.
          5    1    4    4  501    0  0.69260618687E+02  0.68457460263E+02 -0.30096747399E+02  0.10201344897E+03  0.41800000000E+01 0.  1.
         -5    1    4    4    0  501 -0.28012171101E+02  0.10740252237E+03  0.39554991515E+02  0.11790696881E+03  0.41800000000E+01 0.  1.
</event>
<event>
11    1  0.8041700E-009  0.3221242E+03  0.7561462E-02  0.9912395E-01
         22   -1    0    0    0    0  0.00000000000E+00  0.00000000000E+00  0.16771019298E+04  0.16771019298E+04  0.00000000000E+00 0.  1.
         22   -1    0    0    0    0 -0.00000000000E+00 -0.00000000000E+00 -0.10534693975E+04  0.10534693975E+04  0.00000000000E+00 0. -1.
        -24    2    1    2    0    0  0.27299112068E+03  0.11436058434E+03 -0.96737656028E+03  0.10150346083E+04  0.82917738647E+02 0.  0.
         25    2    1    2    0    0 -0.38070361169E+03  0.60526062873E+02  0.85393248619E+03  0.94522343677E+03  0.12509200698E+03 0.  0.
         24    2    1    2    0    0  0.10771249100E+03 -0.17488664721E+03  0.73707660638E+03  0.77031328223E+03  0.88956781755E+02 0.  0.
        -13    1    5    5    0    0  0.80522162867E+02 -0.10381333169E+03  0.59295243712E+03  0.60733320281E+03  0.00000000000E+00 0.  1.
         14    1    5    5    0    0  0.27190328138E+02 -0.71073315523E+02  0.14412416926E+03  0.16298007942E+03  0.00000000000E+00 0. -1.
         11    1    3    3    0    0  0.24409668667E+03  0.91636675692E+02 -0.91223119311E+03  0.94876036092E+03  0.00000000000E+00 0. -1.
        -12    1    3    3    0    0  0.28894434008E+02  0.22723908644E+02 -0.55145367165E+02  0.66274247340E+02  0.00000000000E+00 0.  1.
          5    1    4    4  501    0 -0.12124249487E+03 -0.37805356939E+02  0.24289886343E+03  0.27412828718E+03  0.41800000000E+01 0. -1.
         -5    1    4    4    0  501 -0.25946111681E+03  0.98331419812E+02  0.61103362276E+03  0.67109514959E+03  0.41800000000E+01 0. -1.
</event>
<event>
11    1  0.8041700E-009  0.1446493E+03  0.7561462E-02  0.1102475E+00
         22   -1    0    0    0    0  0.00000000000E+00  0.00000000000E+00  0.93680809354E+03  0.93680809354E+03  0.00000000000E+00 0.  1.
         22   -1    0    0    0    0 -0.00000000000E+00 -0.00000000000E+00 -0.15353794526E+04  0.15353794526E+04  0.00000000000E+00 0.  1.
        -24    2    1    2    0    0 -0.31384198329E+02 -0.67142895025E+02 -0.14715438411E+04  0.14756352603E+04  0.81024742773E+02 0.  0.
         25    2    1    2    0    0  0.40396954108E+02  0.13195904030E+01  0.15174197690E+02  0.13234142931E+03  0.12510132859E+03 0.  0.
         24    2    1    2    0    0 -0.90127557790E+01  0.65823304622E+02  0.85779828441E+03  0.86421085647E+03  0.81416033499E+02 0.  0.
        -11    1    5    5    0    0 -0.31289529847E+02  0.43637281145E+02  0.75004251325E+03  0.75196211252E+03  0.00000000000E+00 0.  1.
         12    1    5    5    0    0  0.22276774068E+02  0.22186023477E+02  0.10775577116E+03  0.11224874395E+03  0.00000000000E+00 0. -1.
         11    1    3    3    0    0  0.23819514233E+02 -0.80392359893E+01 -0.20953824910E+03  0.21104093539E+03  0.00000000000E+00 0. -1.
        -12    1    3    3    0    0 -0.55203712562E+02 -0.59103659036E+02 -0.12620055920E+04  0.12645943249E+04  0.00000000000E+00 0.  1.
          5    1    4    4  501    0  0.48030374197E+02 -0.92257476238E+01  0.64557779032E+02  0.81100003072E+02  0.41800000000E+01 0. -1.
         -5    1    4    4    0  501 -0.76334200888E+01  0.10545338027E+02 -0.49383581341E+02  0.51241426234E+02  0.41800000000E+01 0. -1.
</event>
<event>
11    1  0.8041700E-009  0.1401889E+03  0.7561462E-02  0.1107348E+00
         22   -1    0    0    0    0  0.00000000000E+00  0.00000000000E+00  0.75753223298E+03  0.75753223298E+03  0.00000000000E+00 0.  1.
         22   -1    0    0    0    0 -0.00000000000E+00 -0.00000000000E+00 -0.93735677348E+03  0.93735677348E+03  0.00000000000E+00 0.  1.
         24    2    1    2    0    0 -0.15390038922E+02 -0.30671649058E+02 -0.81586629327E+03  0.82072280571E+03  0.82283120717E+02 0.  0.
         25    2    1    2    0    0  0.11521899596E+02 -0.33471832984E+02 -0.78776413414E+02  0.15200747624E+03  0.12508969482E+03 0.  0.
        -24    2    1    2    0    0  0.38681393268E+01  0.64143482042E+02  0.71481816619E+03  0.72215872450E+03  0.80117812414E+02 0.  0.
        -11    1    3    3    0    0  0.13170961477E+02  0.23999188682E+02 -0.26857945029E+03  0.26997102882E+03  0.00000000000E+00 0.  1.
         12    1    3    3    0    0 -0.28561000400E+02 -0.54670837740E+02 -0.54728684298E+03  0.55075177689E+03  0.00000000000E+00 0. -1.
         13    1    5    5    0    0 -0.17783666553E+02  0.18154959047E+02  0.57351049209E+02  0.62729611663E+02  0.00000000000E+00 0. -1.
        -14    1    5    5    0    0  0.21651805880E+02  0.45988522995E+02  0.65746711698E+03  0.65942911284E+03  0.00000000000E+00 0.  1.
          5    1    4    4  501    0  0.24102521142E+02  0.43596374593E+02 -0.18617662721E+02  0.53344776391E+02  0.41800000000E+01 0. -1.
         -5    1    4    4    0  501 -0.12580621546E+02 -0.77068207576E+02 -0.60158750692E+02  0.98662699854E+02  0.41800000000E+01 0. -1.
</event>
<event>
11    1  0.8041700E-009  0.2208929E+03  0.7561462E-02  0.1040660E+00
         22   -1    0    0    0    0  0.00000000000E+00  0.00000000000E+00  0.42394179180E+03  0.42394179180E+03  0.00000000000E+00 0. -1.
         22   -1    0    0    0    0 -0.00000000000E+00 -0.00000000000E+00 -0.16552931900E+04  0.16552931900E+04  0.00000000000E+00 0. -1.
         24    2    1    2    0    0 -0.30268802631E+02 -0.24817124904E+01 -0.14210063688E+04  0.14236069677E+04  0.80469490953E+02 0.  0.
         25    2    1    2    0    0  0.79334085496E+02 -0.17216284713E+03 -0.14595180913E+03  0.26997197782E+03  0.12509594385E+03 0.  0.
        -24    2    1    2    0    0 -0.49065282866E+02  0.17464455962E+03  0.33560677971E+03  0.38565603631E+03  0.56484896822E+02 0.  0.
        -11    1    3    3    0    0  0.14310485758E+02 -0.29295610261E+02 -0.42879251802E+03  0.43003028532E+03  0.00000000000E+00 0.  1.
         12    1    3    3    0    0 -0.44579288389E+02  0.26813897771E+02 -0.99221385075E+03  0.99357668234E+03  0.00000000000E+00 0. -1.
         13    1    5    5    0    0 -0.15633841974E+02  0.12848685261E+03  0.26497103877E+03  0.29489479429E+03  0.00000000000E+00 0. -1.
        -14    1    5    5    0    0 -0.33431440891E+02  0.46157707006E+02  0.70635740940E+02  0.90761242027E+02  0.00000000000E+00 0.  1.
          5    1    4    4  501    0  0.89064498679E+02 -0.60169998854E+02 -0.38053839899E+02  0.11409855748E+03  0.41800000000E+01 0. -1.
         -5    1    4    4    0  501 -0.97304131834E+01 -0.11199284827E+03 -0.10789796923E+03  0.15587342034E+03  0.41800000000E+01 0. -1.
</event>
<event>
11    1  0.8041700E-009  0.3380048E+03  0.7561462E-02  0.9852772E-01
         22   -1    0    0    0    0  0.00000000000E+00  0.00000000000E+00  0.87877032880E+03  0.87877032880E+03  0.00000000000E+00 0. -1.
         22   -1    0    0    0    0 -0.00000000000E+00 -0.00000000000E+00 -0.16083653567E+04  0.16083653567E+04  0.00000000000E+00 0. -1.
        -24    2    1    2    0    0 -0.12948324386E+03  0.28123675692E+03 -0.90261214581E+03  0.95760235525E+03  0.80209482875E+02 0.  0.
         25    2    1    2    0    0  0.15218928519E+03 -0.28309932215E+03 -0.63210028094E+03  0.72007168968E+03  0.12508264624E+03 0.  0.
         24    2    1    2    0    0 -0.22706041327E+02  0.18625652241E+01  0.80511739885E+03  0.80946164057E+03  0.80592109774E+02 0.  0.
        -13    1    5    5    0    0 -0.34868701284E+02 -0.32256853714E+02  0.46694700474E+03  0.46935683246E+03  0.00000000000E+00 0.  1.
         14    1    5    5    0    0  0.12162659957E+02  0.34119418938E+02  0.33817039411E+03  0.34010480811E+03  0.00000000000E+00 0. -1.
         13    1    3    3    0    0 -0.94876535266E+02  0.11513958689E+03 -0.38520522857E+03  0.41308806510E+03  0.00000000000E+00 0. -1.
        -14    1    3    3    0    0 -0.34606708596E+02  0.16609717003E+03 -0.51740691723E+03  0.54451429015E+03  0.00000000000E+00 0.  1.
          5    1    4    4  501    0  0.70429934197E+01 -0.11434343439E+03 -0.29080374068E+03  0.31258328928E+03  0.41800000000E+01 0. -1.
         -5    1    4    4    0  501  0.14514629177E+03 -0.16875588776E+03 -0.34129654026E+03  0.40748840040E+03  0.41800000000E+01 0. -1.
</event>
<event>
11    1  0.8041700E-009  0.1485886E+03  0.7561462E-02  0.1098330E+00
         22   -1    0    0    0    0  0.00000000000E+00  0.00000000000E+00  0.65937372357E+03  0.65937372357E+03  0.00000000000E+00 0.  1.
         22   -1    0    0    0    0 -0.00000000000E+00 -0.00000000000E+00 -0.31099018555E+03  0.31099018555E+03  0.00000000000E+00 0.  1.
         24    2    1    2    0    0 -0.80557480194E+02  0.41952995590E+01 -0.26483997940E+03  0.28770871365E+03  0.78287809209E+02 0.  0.
         25    2    1    2    0    0  0.73458261641E+02  0.50831723394E+02  0.17118634124E+03  0.23007353331E+03  0.12509631087E+03 0.  0.
        -24    2    1    2    0    0  0.70992185533E+01 -0.55027022953E+02  0.44203717618E+03  0.45258166216E+03  0.79717774960E+02 0.  0.
        -13    1    3    3    0    0 -0.74895036957E+02  0.33868769078E+02 -0.19253489740E+03  0.20934671432E+03  0.00000000000E+00 0.  1.
         14    1    3    3    0    0 -0.56624432363E+01 -0.29673469519E+02 -0.72305081999E+02  0.78361999334E+02  0.00000000000E+00 0. -1.
         11    1    5    5    0    0 -0.12223691264E+01 -0.36146031257E+02  0.60493297524E+02  0.70480272468E+02  0.00000000000E+00 0. -1.
        -12    1    5    5    0    0  0.83215876797E+01 -0.18880991697E+02  0.38154387865E+03  0.38210138970E+03  0.00000000000E+00 0.  1.
          5    1    4    4  501    0  0.80968187636E+02  0.79811284465E+02  0.95371282526E+02  0.14845484993E+03  0.41800000000E+01 0.  1.
         -5    1    4    4    0  501 -0.75099259954E+01 -0.28979561070E+02  0.75815058713E+02  0.81618683376E+02  0.41800000000E+01 0.  1.
</event>
<event>
11    1  0.8041700E-009  0.2083574E+03  0.7561462E-02  0.1048766E+00
         22   -1    0    0    0    0  0.00000000000E+00  0.00000000000E+00  0.69631679267E+03  0.69631679267E+03  0.00000000000E+00 0. -1.
         22   -1    0    0    0    0 -0.00000000000E+00 -0.00000000000E+00 -0.93971813988E+03  0.93971813988E+03  0.00000000000E+00 0.  1.
         24    2    1    2    0    0 -0.50009324644E+02 -0.21247292006E+02 -0.80056112518E+03  0.80700035296E+03  0.86017873453E+02 0.  0.
         25    2    1    2    0    0  0.19903360803E+03  0.81736008638E+02  0.60918724494E+01  0.24895707772E+03  0.12508942164E+03 0.  0.
        -24    2    1    2    0    0 -0.14902428338E+03 -0.60488716633E+02  0.55106790553E+03  0.58007750187E+03  0.83348364067E+02 0.  0.
        -11    1    3    3    0    0 -0.62031728777E+02 -0.40075418022E+02 -0.70525662282E+03  0.70911274036E+03  0.00000000000E+00 0.  1.
         12    1    3    3    0    0  0.12022404133E+02  0.18828126016E+02 -0.95304502363E+02  0.97887612603E+02  0.00000000000E+00 0. -1.
         11    1    5    5    0    0 -0.10385446207E+03 -0.78220495378E+02  0.44147373778E+03  0.46022087777E+03  0.00000000000E+00 0. -1.
        -12    1    5    5    0    0 -0.45169821314E+02  0.17731778745E+02  0.10959416775E+03  0.11985662409E+03  0.00000000000E+00 0.  1.
          5    1    4    4  501    0  0.84812229326E+02  0.76723388351E+02  0.51974529691E+02  0.12569175271E+03  0.41800000000E+01 0. -1.
         -5    1    4    4    0  501  0.11422137870E+03  0.50126202879E+01 -0.45882657242E+02  0.12326532501E+03  0.41800000000E+01 0. -1.
</event>
<event>
11    1  0.8041700E-009  0.1598654E+03  0.7561462E-02  0.1087204E+00
         22   -1    0    0    0    0  0.00000000000E+00  0.00000000000E+00  0.13758096529E+03  0.13758096529E+03  0.00000000000E+00 0.  1.
         22   -1    0    0    0    0 -0.00000000000E+00 -0.00000000000E+00 -0.14816808943E+04  0.14816808943E+04  0.00000000000E+00 0. -1.
         24    2    1    2    0    0  0.53235779111E+02  0.15211307087E+02 -0.75395044273E+03  0.76032886073E+03  0.81198979795E+02 0.  0.
         25    2    1    2    0    0 -0.14231616516E+03  0.24617140507E+02 -0.67784251626E+03  0.70425616010E+03  0.12508544165E+03 0.  0.
        -24    2    1    2    0    0  0.89080386047E+02 -0.39828447594E+02  0.87693030000E+02  0.15467683875E+03  0.81934342729E+02 0.  0.
        -11    1    3    3    0    0  0.33626558267E+02  0.33140340812E+02 -0.19088984791E+03  0.19664170881E+03  0.00000000000E+00 0.  1.
         12    1    3    3    0    0  0.19609220844E+02 -0.17929033725E+02 -0.56306059482E+03  0.56368715191E+03  0.00000000000E+00 0. -1.
         11    1    5    5    0    0 -0.67774643173E+00  0.13497318035E+02  0.35435186837E+02  0.37924786098E+02  0.00000000000E+00 0. -1.
        -12    1    5    5    0    0  0.89758132478E+02 -0.53325765629E+02  0.52257843162E+02  0.11675205265E+03  0.00000000000E+00 0.  1.
          5    1    4    4  501    0 -0.37903986354E+02  0.52515517861E+02 -0.41479388457E+03  0.41984048266E+03  0.41800000000E+01 0. -1.
         -5    1    4    4    0  501 -0.10441217880E+03 -0.27898377353E+02 -0.26304863169E+03  0.28441567744E+03  0.41800000000E+01 0. -1.
</event>
<event>
11    1  0.8041700E-009  0.1383972E+03  0.7561462E-02  0.1109361E+00
         22   -1    0    0    0    0  0.00000000000E+00  0.00000000000E+00  0.19002844479E+03  0.19002844479E+03  0.00000000000E+00 0. -1.
         22   -1    0    0    0    0 -0.00000000000E+00 -0.00000000000E+00 -0.44221880702E+03  0.44221880702E+03  0.00000000000E+00 0. -1.
        -24    2    1    2    0    0  0.55774827104E+02 -0.33996288938E+02 -0.27966567562E+03  0.29800974764E+03  0.79563437387E+02 0.  0.
         25    2    1    2    0    0 -0.80841415531E+00  0.58926961666E+02 -0.10016431577E+03  0.17074337044E+03  0.12508944021E+03 0.  0.
         24    2    1    2    0    0 -0.54966412949E+02 -0.24930672728E+02  0.12763962916E+03  0.16349413372E+03  0.82435501056E+02 0.  0.
        -11    1    5    5    0    0 -0.56357351301E+02  0.15498776995E+02  0.54519347298E+02  0.79929483695E+02  0.00000000000E+00 0.  1.
         12    1    5    5    0    0  0.13909383525E+01 -0.40429449723E+02  0.73120281865E+02  0.83564650029E+02  0.00000000000E+00 0. -1.
         11    1    3    3    0    0  0.56940451819E+00 -0.19013311262E+02 -0.19443225627E+03  0.19536051931E+03  0.00000000000E+00 0. -1.
        -12    1    3    3    0    0  0.55205422586E+02 -0.14982977676E+02 -0.85233419351E+02  0.10264922833E+03  0.00000000000E+00 0.  1.
          5    1    4    4  501    0 -0.20795816975E+01  0.44465773202E+02 -0.12990612410E+03  0.13738487226E+03  0.41800000000E+01 0. -1.
         -5    1    4    4    0  501  0.12711675422E+01  0.14461188464E+02  0.29741808327E+02  0.33358498186E+02  0.41800000000E+01 0. -1.
</event>
<event>
11    1  0.8041700E-009  0.1611471E+03  0.7561462E-02  0.1086003E+00
         22   -1    0    0    0    0  0.00000000000E+00  0.00000000000E+00  0.71347654004E+03  0.71347654004E+03  0.00000000000E+00 0. -1.
         22   -1    0    0    0    0 -0.00000000000E+00 -0.00000000000E+00 -0.21564851872E+03  0.21564851872E+03  0.00000000000E+00 0.  1.
         24    2    1    2    0    0  0.64876047835E+02  0.87982748586E+02 -0.14316249009E+03  0.19697819648E+03  0.79718540433E+02 0.  0.
         25    2    1    2    0    0 -0.32805905458E+02 -0.58911657774E+02  0.78811591343E+02  0.16249890404E+03  0.12509123083E+03 0.  0.
        -24    2    1    2    0    0 -0.32070142377E+02 -0.29071090812E+02  0.56217892007E+03  0.56964795824E+03  0.81117419892E+02 0.  0.
        -11    1    3    3    0    0  0.47182278517E+02  0.58154136223E+02 -0.14397572562E+03  0.16228703132E+03  0.00000000000E+00 0.  1.
         12    1    3    3    0    0  0.17693769318E+02  0.29828612363E+02  0.81323553442E+00  0.34691165161E+02  0.00000000000E+00 0. -1.
         13    1    5    5    0    0  0.18191942201E+02  0.21510156577E+01  0.31317762016E+03  0.31371291877E+03  0.00000000000E+00 0. -1.
        -14    1    5    5    0    0 -0.50262084579E+02 -0.31222106470E+02  0.24900129990E+03  0.25593503948E+03  0.00000000000E+00 0.  1.
          5    1    4    4  501    0 -0.21794340590E+01 -0.88158686788E+02  0.81103713980E+02  0.11988322990E+03  0.41800000000E+01 0.  1.
         -5    1    4    4    0  501 -0.30626471399E+02  0.29247029013E+02 -0.22921226378E+01  0.42615674143E+02  0.41800000000E+01 0.  1.
</event>
<event>
11    1  0.8041700E-009  0.2175501E+03  0.7561462E-02  0.1042763E+00
         22   -1    0    0    0    0  0.00000000000E+00  0.00000000000E+00  0.12653695335E+03  0.12653695335E+03  0.00000000000E+00 0. -1.
         22   -1    0    0    0    0 -0.00000000000E+00 -0.00000000000E+00 -0.10134459861E+04  0.10134459861E+04  0.00000000000E+00 0. -1.
         24    2    1    2    0    0 -0.10521606437E+02  0.17924766008E+03 -0.63778090259E+03  0.66747735326E+03  0.80753387354E+02 0.  0.
         25    2    1    2    0    0  0.43799337774E+02 -0.17114752193E+03 -0.30777140532E+03  0.37627098929E+03  0.12508702252E+03 0.  0.
        -24    2    1    2    0    0 -0.33277731337E+02 -0.81001381530E+01  0.58643275111E+02  0.96234596928E+02  0.68183900513E+02 0.  0.
        -11    1    3    3    0    0 -0.33009798859E+02  0.11461666517E+03 -0.30014116591E+03  0.32297267102E+03  0.00000000000E+00 0.  1.
         12    1    3    3    0    0  0.22488192421E+02  0.64630994915E+02 -0.33763973668E+03  0.34450468224E+03  0.00000000000E+00 0. -1.
         11    1    5    5    0    0 -0.90651885165E+01  0.12509491133E+02  0.62338556385E+02  0.64224299322E+02  0.00000000000E+00 0. -1.
        -12    1    5    5    0    0 -0.24212542820E+02 -0.20609629286E+02 -0.36952812746E+01  0.32010297606E+02  0.00000000000E+00 0.  1.
          5    1    4    4  501    0 -0.48970981001E+01 -0.10488424175E+03 -0.26149605374E+03  0.28181970169E+03  0.41800000000E+01 0.  1.
         -5    1    4    4    0  501  0.48696435874E+02 -0.66263280181E+02 -0.46275351574E+02  0.94451287607E+02  0.41800000000E+01 0.  1.
</event>
<event>
11    1  0.8041700E-009  0.1772071E+03  0.7561462E-02  0.1071925E+00
         22   -1    0    0    0    0  0.00000000000E+00  0.00000000000E+00  0.12813067560E+04  0.12813067560E+04  0.00000000000E+00 0. -1.
         22   -1    0    0    0    0 -0.00000000000E+00 -0.00000000000E+00 -0.19537322976E+03  0.19537322976E+03  0.00000000000E+00 0.  1.
        -24    2    1    2    0    0  0.68560277814E-01  0.78839261954E+02 -0.13780487581E+03  0.17842429894E+03  0.81421205664E+02 0.  0.
         25    2    1    2    0    0  0.20372215316E+02 -0.19051066074E+03  0.38395621149E+03  0.44696623783E+03  0.12508839437E+03 0.  0.
         24    2    1    2    0    0 -0.20440775594E+02  0.11167139878E+03  0.83978219052E+03  0.85128944896E+03  0.81063381241E+02 0.  0.
        -13    1    5    5    0    0 -0.47966819656E+02  0.54857419739E+02  0.35401035458E+03  0.36143254341E+03  0.00000000000E+00 0.  1.
         14    1    5    5    0    0  0.27526044062E+02  0.56813979046E+02  0.48577183594E+03  0.48985690555E+03  0.00000000000E+00 0. -1.
         11    1    3    3    0    0 -0.14993572070E+02  0.43041686047E+02 -0.12532859318E+02  0.47270143895E+02  0.00000000000E+00 0. -1.
        -12    1    3    3    0    0  0.15062132348E+02  0.35797575907E+02 -0.12527201649E+03  0.13115415505E+03  0.00000000000E+00 0.  1.
          5    1    4    4  501    0  0.49400028582E+02 -0.18706475142E+03  0.29134486129E+03  0.34976118230E+03  0.41800000000E+01 0.  1.
         -5    1    4    4    0  501 -0.29027813265E+02 -0.34459093234E+01  0.92611350200E+02  0.97205055526E+02  0.41800000000E+01 0.  1.
</event>
<event>
11    1  0.8041700E-009  0.1278658E+03  0.7561462E-02  0.1121919E+00
         22   -1    0    0    0    0  0.00000000000E+00  0.00000000000E+00  0.11085196350E+04  0.11085196350E+04  0.00000000000E+00 0. -1.
         22   -1    0    0    0    0 -0.00000000000E+00 -0.00000000000E+00 -0.87983604039E+02  0.87983604039E+02  0.00000000000E+00 0. -1.
        -24    2    1    2    0    0  0.24983868629E+02 -0.83861879180E+01 -0.50492581089E+02  0.96572888052E+02  0.77989102586E+02 0.  0.
         25    2    1    2    0    0 -0.25580925591E+02  0.14295150725E+02  0.32587505260E+03  0.35028569117E+03  0.12508709141E+03 0.  0.
         24    2    1    2    0    0  0.59705696216E+00 -0.59089628066E+01  0.74515355944E+03  0.74964465982E+03  0.81719131947E+02 0.  0.
        -11    1    5    5    0    0 -0.32327110888E+02  0.63278994689E+01  0.15574418289E+03  0.15918961936E+03  0.00000000000E+00 0.  1.
         12    1    5    5    0    0  0.32924167850E+02 -0.12236862276E+02  0.58940937655E+03  0.59045504045E+03  0.00000000000E+00 0. -1.
         13    1    3    3    0    0  0.14705733772E+02 -0.40668531613E+02 -0.44712216010E+02  0.62204262956E+02  0.00000000000E+00 0. -1.
        -14    1    3    3    0    0  0.10278134857E+02  0.32282343695E+02 -0.57803650785E+01  0.34368625096E+02  0.00000000000E+00 0.  1.
          5    1    4    4  501    0 -0.73645427529E+02  0.27054813085E+02  0.19953275381E+03  0.21444440807E+03  0.41800000000E+01 0. -1.
         -5    1    4    4    0  501  0.48064501938E+02 -0.12759662360E+02  0.12634229879E+03  0.13584128310E+03  0.41800000000E+01 0. -1.
</event>
<event>
11    1  0.8041700E-009  0.1384968E+03  0.7561462E-02  0.1109249E+00
         22   -1    0    0    0    0  0.00000000000E+00  0.00000000000E+00  0.13232293991E+04  0.13232293991E+04  0.00000000000E+00 0.  1.
         22   -1    0    0    0    0 -0.00000000000E+00 -0.00000000000E+00 -0.11017716608E+03  0.11017716608E+03  0.00000000000E+00 0.  1.
        -24    2    1    2    0    0  0.56138968183E+02  0.43302335166E+02 -0.67732126168E+02  0.12691621091E+03  0.80581683377E+02 0.  0.
         25    2    1    2    0    0  0.11303510570E+02 -0.61763988854E+02  0.53965481100E+03  0.55750999349E+03  0.12509004012E+03 0.  0.
         24    2    1    2    0    0 -0.67442478752E+02  0.18461653688E+02  0.74112954820E+03  0.74898036078E+03  0.82518198175E+02 0.  0.
        -13    1    5    5    0    0 -0.83425927067E+01 -0.14190372272E+02  0.44278213394E+03  0.44308800893E+03  0.00000000000E+00 0.  1.
         14    1    5    5    0    0 -0.59099886046E+02  0.32652025960E+02  0.29834741426E+03  0.30589235186E+03  0.00000000000E+00 0. -1.
         13    1    3    3    0    0  0.22752877689E+02 -0.21838611678E+02 -0.82545056910E+01  0.32599927413E+02  0.00000000000E+00 0. -1.
        -14    1    3    3    0    0  0.33386090493E+02  0.65140946844E+02 -0.59477620477E+02  0.94316283492E+02  0.00000000000E+00 0.  1.
          5    1    4    4  501    0  0.14248843165E+01  0.21435801441E+02  0.15830797640E+02  0.27011301943E+02  0.41800000000E+01 0.  1.
         -5    1    4    4    0  501  0.98786262533E+01 -0.83199790295E+02  0.52382401336E+03  0.53049869155E+03  0.41800000000E+01 0.  1.
</event>
<event>
11    1  0.8041700E-009  0.1560135E+03  0.7561462E-02  0.1090888E+00
         22   -1    0    0    0    0  0.00000000000E+00  0.00000000000E+00  0.15834226664E+03  0.15834226664E+03  0.00000000000E+00 0. -1.
         22   -1    0    0    0    0 -0.00000000000E+00 -0.00000000000E+00 -0.18490260824E+04  0.18490260824E+04  0.00000000000E+00 0.  1.
        -24    2    1    2    0    0  0.14311118154E+02 -0.93278766858E+02 -0.17218591561E+04  0.17263281228E+04  0.80647986382E+02 0.  0.
         25    2    1    2    0    0 -0.72943705689E+02  0.50118385152E+02 -0.30255106461E+02  0.15618800692E+03  0.12508671116E+03 0.  0.
         24    2    1    2    0    0  0.58632587536E+02  0.43160381706E+02  0.61430446819E+02  0.12485221929E+03  0.80707979749E+02 0.  0.
        -11    1    5    5    0    0 -0.20742987959E+01  0.40371578591E+02  0.29808050393E+01  0.40534581189E+02  0.00000000000E+00 0.  1.
         12    1    5    5    0    0  0.60706886332E+02  0.27888031149E+01  0.58449641780E+02  0.84317638102E+02  0.00000000000E+00 0. -1.
         11    1    3    3    0    0 -0.22648848915E+02 -0.11165048435E+02 -0.17071884817E+03  0.17257622601E+03  0.00000000000E+00 0. -1.
        -12    1    3    3    0    0  0.36959967069E+02 -0.82113718423E+02 -0.15511403079E+04  0.15537518968E+04  0.00000000000E+00 0.  1.
          5    1    4    4  501    0 -0.57748082382E+02  0.60858166455E+02  0.32902132365E+02  0.90214079595E+02  0.41800000000E+01 0.  1.
         -5    1    4    4    0  501 -0.15195623307E+02 -0.10739781303E+02 -0.63157238826E+02  0.65973927322E+02  0.41800000000E+01 0.  1.
</event>
<event>
11    1  0.8041700E-009  0.1349418E+03  0.7561462E-02  0.1113342E+00
         22   -1    0    0    0    0  0.00000000000E+00  0.00000000000E+00  0.21152607915E+04  0.21152607915E+04  0.00000000000E+00 0. -1.
         22   -1    0    0    0    0 -0.00000000000E+00 -0.00000000000E+00 -0.45735523977E+02  0.45735523977E+02  0.00000000000E+00 0.  1.
         24    2    1    2    0    0  0.19455780892E+02  0.11667134446E+02  0.63178624519E+02  0.10290090590E+03  0.77989796791E+02 0.  0.
         25    2    1    2    0    0 -0.58640501047E+02  0.19696399351E+02  0.17395255807E+03  0.22301057305E+03  0.12509023431E+03 0.  0.
        -24    2    1    2    0    0  0.39184720155E+02 -0.31363533797E+02  0.18323940849E+04  0.18350848365E+04  0.85727248914E+02 0.  0.
        -11    1    3    3    0    0  0.23641636976E+02  0.17079268518E+02 -0.89039029861E+01  0.30494391294E+02  0.00000000000E+00 0.  1.
         12    1    3    3    0    0 -0.41858560846E+01 -0.54121340720E+01  0.72082527505E+02  0.72406514610E+02  0.00000000000E+00 0. -1.
         11    1    5    5    0    0 -0.49998857212E+01  0.25501825176E+02  0.63044101366E+03  0.63097639706E+03  0.00000000000E+00 0. -1.
        -12    1    5    5    0    0  0.44184605876E+02 -0.56865358972E+02  0.12019530713E+04  0.12041084395E+04  0.00000000000E+00 0.  1.
          5    1    4    4  501    0 -0.37543445330E+02  0.68933188461E+02  0.66854121282E+02  0.10319031297E+03  0.41800000000E+01 0. -1.
         -5    1    4    4    0  501 -0.21097055717E+02 -0.49236789110E+02  0.10709843679E+03  0.11982026008E+03  0.41800000000E+01 0. -1.
</event>
<event>
11    1  0.8041700E-009  0.1632360E+03  0.7561462E-02  0.1084073E+00
         22   -1    0    0    0    0  0.00000000000E+00  0.00000000000E+00  0.14730407624E+04  0.14730407624E+04  0.00000000000E+00 0.  1.
         22   -1    0    0    0    0 -0.00000000000E+00 -0.00000000000E+00 -0.34708852917E+03  0.34708852917E+03  0.00000000000E+00 0. -1.
        -24    2    1    2    0    0  0.86434989675E+02  0.58255263667E+02 -0.29823218525E+03  0.32485920735E+03  0.75672882183E+02 0.  0.
         25    2    1    2    0    0 -0.82520737135E+02 -0.83378626954E+02  0.18186023129E+03  0.24996648818E+03  0.12509370087E+03 0.  0.
         24    2    1    2    0    0 -0.39142525396E+01  0.25123363288E+02  0.12423241871E+04  0.12453035960E+04  0.82250565233E+02 0.  0.
        -11    1    5    5    0    0  0.19790379413E+02  0.36928570334E+02  0.10816992065E+04  0.10825103010E+04  0.00000000000E+00 0.  1.
         12    1    5    5    0    0 -0.23704631953E+02 -0.11805207046E+02  0.16062498067E+03  0.16279329502E+03  0.00000000000E+00 0. -1.
         13    1    3    3    0    0  0.38845220367E+02 -0.14262456733E+02 -0.81207735991E+02  0.91143102878E+02  0.00000000000E+00 0. -1.
        -14    1    3    3    0    0  0.47589769308E+02  0.72517720400E+02 -0.21702444926E+03  0.23371610448E+03  0.00000000000E+00 0.  1.
          5    1    4    4  501    0 -0.34672125853E+02 -0.10020330222E+03  0.16533458041E+03  0.19645827538E+03  0.41800000000E+01 0.  1.
         -5    1    4    4    0  501 -0.47848611283E+02  0.16824675262E+02  0.16525650877E+02  0.53508212793E+02  0.41800000000E+01 0.  1.
</event>
<event>
11    1  0.8041700E-009  0.1474789E+03  0.7561462E-02  0.1099483E+00
         22   -1    0    0    0    0  0.00000000000E+00  0.00000000000E+00  0.49931781099E+03  0.49931781099E+03  0.00000000000E+00 0.  1.
         22   -1    0    0    0    0 -0.00000000000E+00 -0.00000000000E+00 -0.99708373807E+03  0.99708373807E+03  0.00000000000E+00 0. -1.
        -24    2    1    2    0    0  0.56582854414E+02 -0.52508406016E+02 -0.93332922392E+03  0.93998045147E+03  0.80629131334E+02 0.  0.
         25    2    1    2    0    0 -0.62325193670E+02  0.11221367379E+03  0.97645523050E+02  0.20408661571E+03  0.12506142566E+03 0.  0.
         24    2    1    2    0    0  0.57423392556E+01 -0.59705267774E+02  0.33791777379E+03  0.35233448188E+03  0.79708668389E+02 0.  0.
        -13    1    5    5    0    0  0.30214789463E+02 -0.65193174596E+02  0.28268238159E+03  0.29167175450E+03  0.00000000000E+00 0.  1.
         14    1    5    5    0    0 -0.24472450208E+02  0.54879068224E+01  0.55235392209E+02  0.60662727378E+02  0.00000000000E+00 0. -1.
         11    1    3    3    0    0  0.45991203137E+02  0.84959930627E+01 -0.51111750613E+03  0.51325283997E+03  0.00000000000E+00 0. -1.
        -12    1    3    3    0    0  0.10591651277E+02 -0.61004399078E+02 -0.42221171779E+03  0.42672761150E+03  0.00000000000E+00 0.  1.
          5    1    4    4  501    0  0.20056017465E+02  0.69524611639E+02  0.46123370811E+01  0.72626864957E+02  0.41800000000E+01 0.  1.
         -5    1    4    4    0  501 -0.82381211135E+02  0.42689062150E+02  0.93033185969E+02  0.13145975075E+03  0.41800000000E+01 0.  1.
</event>
<event>
11    1  0.8041700E-009  0.1358139E+03  0.7561462E-02  0.1112325E+00
         22   -1    0    0    0    0  0.00000000000E+00  0.00000000000E+00  0.14288566152E+03  0.14288566152E+03  0.00000000000E+00 0. -1.
         22   -1    0    0    0    0 -0.00000000000E+00 -0.00000000000E+00 -0.67242537374E+03  0.67242537374E+03  0.00000000000E+00 0. -1.
         24    2    1    2    0    0 -0.71875527246E+01  0.52653696152E+02 -0.57766740887E+03  0.58524127269E+03  0.77353987302E+02 0.  0.
         25    2    1    2    0    0 -0.14274622766E+02 -0.50304311273E+02  0.82887847998E+01  0.13583420611E+03  0.12509172238E+03 0.  0.
        -24    2    1    2    0    0  0.21462175490E+02 -0.23493848788E+01  0.39838911854E+02  0.94235556465E+02  0.82626004493E+02 0.  0.
        -13    1    3    3    0    0 -0.18001217020E+01  0.10350324043E+02 -0.62283736517E+01  0.12213201230E+02  0.00000000000E+00 0.  1.
         14    1    3    3    0    0 -0.53874310226E+01  0.42303372108E+02 -0.57143903522E+03  0.57302807146E+03  0.00000000000E+00 0. -1.
         11    1    5    5    0    0  0.43116198068E+02  0.13551046786E+02  0.48224224579E+02  0.66092459790E+02  0.00000000000E+00 0. -1.
        -12    1    5    5    0    0 -0.21654022578E+02 -0.15900431665E+02 -0.83853127253E+01  0.28143096675E+02  0.00000000000E+00 0.  1.
          5    1    4    4  501    0 -0.31988966245E+02 -0.34052712124E+02 -0.52456928164E+02  0.70371037201E+02  0.41800000000E+01 0.  1.
         -5    1    4    4    0  501  0.17714343479E+02 -0.16251599149E+02  0.60745712963E+02  0.65463168906E+02  0.41800000000E+01 0.  1.
</event>
<event>
11    1  0.8041700E-009  0.1710673E+03  0.7561462E-02  0.1077107E+00
         22   -1    0    0    0    0  0.00000000000E+00  0.00000000000E+00  0.14705655784E+03  0.14705655784E+03  0.00000000000E+00 0.  1.
         22   -1    0    0    0    0 -0.00000000000E+00 -0.00000000000E+00 -0.17563500518E+04  0.17563500518E+04  0.00000000000E+00 0. -1.
         24    2    1    2    0    0 -0.84379891439E+02  0.73056611603E+02 -0.14444516083E+04  0.14510417536E+04  0.81390953891E+02 0.  0.
         25    2    1    2    0    0  0.13955279413E+03 -0.12385971238E+03 -0.23285986649E+03  0.32355420352E+03  0.12508954590E+03 0.  0.
        -24    2    1    2    0    0 -0.55172902688E+02  0.50803100776E+02  0.68017980891E+02  0.12881065247E+03  0.79628727390E+02 0.  0.
        -11    1    3    3    0    0  0.96047485695E+01  0.22507836505E+02 -0.13129813240E+03  0.13355917592E+03  0.00000000000E+00 0.  1.
         12    1    3    3    0    0 -0.93984640009E+02  0.50548775098E+02 -0.13131534759E+04  0.13174825777E+04  0.00000000000E+00 0. -1.
         13    1    5    5    0    0 -0.30411536136E+02  0.65444215910E+02  0.23665605279E+02  0.75946479836E+02  0.00000000000E+00 0. -1.
        -14    1    5    5    0    0 -0.24761366552E+02 -0.14641115134E+02  0.44352375612E+02  0.52864172635E+02  0.00000000000E+00 0.  1.
          5    1    4    4  501    0  0.83413230558E+02 -0.95913027799E+02 -0.61971121896E+02  0.14147426721E+03  0.41800000000E+01 0. -1.
         -5    1    4    4    0  501  0.56139563570E+02 -0.27946684580E+02 -0.17088874460E+03  0.18207993631E+03  0.41800000000E+01 0. -1.
</event>
<event>
11    1  0.8041700E-009  0.1646249E+03  0.7561462E-02  0.1082806E+00
         22   -1    0    0    0    0  0.00000000000E+00  0.00000000000E+00  0.57078988009E+03  0.57078988009E+03  0.00000000000E+00 0. -1.
         22   -1    0    0    0    0 -0.00000000000E+00 -0.00000000000E+00 -0.77360409859E+03  0.77360409859E+03  0.00000000000E+00 0. -1.
         24    2    1    2    0    0 -0.76882415287E+02  0.72450662402E+02 -0.71328371767E+03  0.72570455417E+03  0.81935546589E+02 0.  0.
         25    2    1    2    0    0  0.14206485432E+03 -0.78752851169E+02  0.18130824729E+03  0.27368750568E+03  0.12509091025E+03 0.  0.
        -24    2    1    2    0    0 -0.65182439036E+02  0.63021887669E+01  0.32916125187E+03  0.34500191884E+03  0.79942018504E+02 0.  0.
        -11    1    3    3    0    0 -0.99607609731E+01  0.13542532959E+02 -0.17628099826E+02  0.24359122759E+02  0.00000000000E+00 0.  1.
         12    1    3    3    0    0 -0.66921654314E+02  0.58908129443E+02 -0.69565561784E+03  0.70134543141E+03  0.00000000000E+00 0. -1.
         13    1    5    5    0    0 -0.29748118120E+02  0.45338835111E+01  0.29228487419E+03  0.29382980501E+03  0.00000000000E+00 0. -1.
        -14    1    5    5    0    0 -0.35434320915E+02  0.17683052558E+01  0.36876377681E+02  0.51172113822E+02  0.00000000000E+00 0.  1.
          5    1    4    4  501    0  0.96556502782E+01 -0.69229413212E+02  0.44254035221E+02  0.82836195406E+02  0.41800000000E+01 0.  1.
         -5    1    4    4    0  501  0.13240920404E+03 -0.95234379574E+01  0.13705421207E+03  0.19085131027E+03  0.41800000000E+01 0.  1.
</event>
<event>
11    1  0.8041700E-009  0.1390790E+03  0.7561462E-02  0.1108591E+00
         22   -1    0    0    0    0  0.00000000000E+00  0.00000000000E+00  0.33637163164E+03  0.33637163164E+03  0.00000000000E+00 0.  1.
         22   -1    0    0    0    0 -0.00000000000E+00 -0.00000000000E+00 -0.30528445977E+03  0.30528445977E+03  0.00000000000E+00 0. -1.
        -24    2    1    2    0    0  0.13978132144E+01  0.58978064108E+02 -0.24277544566E+03  0.26397755392E+03  0.85228317082E+02 0.  0.
         25    2    1    2    0    0 -0.14891834684E+01 -0.82717913568E+02  0.86076523373E+02  0.17291938749E+03  0.12508987090E+03 0.  0.
         24    2    1    2    0    0  0.91370254045E-01  0.23739849459E+02  0.18778609416E+03  0.20475915000E+03  0.78096757595E+02 0.  0.
        -13    1    5    5    0    0 -0.15170828783E+01  0.19747724775E+02  0.19519154702E+03  0.19619381795E+03  0.00000000000E+00 0.  1.
         14    1    5    5    0    0  0.16084531323E+01  0.39921246845E+01 -0.74054528606E+01  0.85653320453E+01  0.00000000000E+00 0. -1.
         11    1    3    3    0    0 -0.16752640289E+02  0.47133683919E+02 -0.23603945005E+03  0.24128169656E+03  0.00000000000E+00 0. -1.
        -12    1    3    3    0    0  0.18150453504E+02  0.11844380189E+02 -0.67359956084E+01  0.22695857360E+02  0.00000000000E+00 0.  1.
          5    1    4    4  501    0 -0.64815932326E+00 -0.25143464205E+02  0.10814736192E+03  0.11111227742E+03  0.41800000000E+01 0.  1.
         -5    1    4    4    0  501 -0.84102414515E+00 -0.57574449362E+02 -0.22070838549E+02  0.61807110070E+02  0.41800000000E+01 0.  1.
</event>
<event>
11    1  0.8041700E-009  0.1880516E+03  0.7561462E-02  0.1063310E+00
         22   -1    0    0    0    0  0.00000000000E+00  0.00000000000E+00  0.77572539421E+03  0.77572539421E+03  0.00000000000E+00 0.  1.
         22   -1    0    0    0    0 -0.00000000000E+00 -0.00000000000E+00 -0.11232957194E+04  0.11232957194E+04  0.00000000000E+00 0. -1.
         24    2    1    2    0    0  0.13650021074E+03 -0.30268780595E+02 -0.10464888974E+04  0.10588050365E+04  0.79878571815E+02 0.  0.
         25    2    1    2    0    0 -0.16665114601E+03 -0.29751945166E+02  0.10179547846E+03  0.23380885698E+03  0.12508588833E+03 0.  0.
        -24    2    1    2    0    0  0.30150935271E+02  0.60020725761E+02  0.59712309377E+03  0.60640722014E+03  0.81622062619E+02 0.  0.
        -13    1    3    3    0    0  0.46327028695E+02 -0.32190738633E+02 -0.20921639553E+03  0.21668857238E+03  0.00000000000E+00 0.  1.
         14    1    3    3    0    0  0.90173182048E+02  0.19219580381E+01 -0.83727250188E+03  0.84211646409E+03  0.00000000000E+00 0. -1.
         11    1    5    5    0    0 -0.21761359847E+02 -0.36949754639E+01  0.89975477023E+02  0.92643381262E+02  0.00000000000E+00 0. -1.
        -12    1    5    5    0    0  0.51912295118E+02  0.63715701225E+02  0.50714761675E+03  0.51376383888E+03  0.00000000000E+00 0.  1.
          5    1    4    4  501    0 -0.39607336137E+01  0.27620967246E+02  0.43147828243E+02  0.51553978745E+02  0.41800000000E+01 0. -1.
         -5    1    4    4    0  501 -0.16269041240E+03 -0.57372912412E+02  0.58647650213E+02  0.18225487824E+03  0.41800000000E+01 0. -1.
</event>
<event>
11    1  0.8041700E-009  0.1524673E+03  0.7561462E-02  0.1094384E+00
         22   -1    0    0    0    0  0.00000000000E+00  0.00000000000E+00  0.25168199589E+04  0.25168199589E+04  0.00000000000E+00 0. -1.
         22   -1    0    0    0    0 -0.00000000000E+00 -0.00000000000E+00 -0.51414568962E+03  0.51414568962E+03  0.00000000000E+00 0.  1.
         24    2    1    2    0    0  0.15038688232E+02  0.58243809405E+01 -0.48484781158E+03  0.49173526916E+03  0.80411995329E+02 0.  0.
         25    2    1    2    0    0  0.14493258995E+02 -0.87799322656E+02  0.21848578037E+03  0.26702809898E+03  0.12509673778E+03 0.  0.
        -24    2    1    2    0    0 -0.29531947227E+02  0.81974941715E+02  0.22690363005E+04  0.22722022804E+04  0.82373800913E+02 0.  0.
        -13    1    3    3    0    0  0.17881863166E+02 -0.31988726167E+02 -0.34135560503E+03  0.34331718383E+03  0.00000000000E+00 0.  1.
         14    1    3    3    0    0 -0.28431749334E+01  0.37813107108E+02 -0.14349220655E+03  0.14841808533E+03  0.00000000000E+00 0. -1.
         11    1    5    5    0    0 -0.34582733971E+02  0.97114758043E+02  0.18598292042E+04  0.18626840608E+04  0.00000000000E+00 0. -1.
        -12    1    5    5    0    0  0.50507867442E+01 -0.15139816328E+02  0.40920709629E+03  0.40951821954E+03  0.00000000000E+00 0.  1.
          5    1    4    4  501    0 -0.13646267050E+01 -0.74651729887E+02  0.23083762057E+03  0.24264835143E+03  0.41800000000E+01 0. -1.
         -5    1    4    4    0  501  0.15857885700E+02 -0.13147592769E+02 -0.12351840192E+02  0.24379747550E+02  0.41800000000E+01 0. -1.
</event>
<event>
11    1  0.8041700E-009  0.3241381E+03  0.7561462E-02  0.9904631E-01
         22   -1    0    0    0    0  0.00000000000E+00  0.00000000000E+00  0.30504897184E+04  0.30504897184E+04  0.00000000000E+00 0. -1.
         22   -1    0    0    0    0 -0.00000000000E+00 -0.00000000000E+00 -0.22167239931E+03  0.22167239931E+03  0.00000000000E+00 0.  1.
        -24    2    1    2    0    0 -0.10132669796E+03  0.30895898501E+01 -0.99298568417E+02  0.16284865506E+03  0.79892637213E+02 0.  0.
         25    2    1    2    0    0  0.43124831912E+02  0.29233861377E+03  0.23369095940E+03  0.39696360354E+03  0.12508805620E+03 0.  0.
         24    2    1    2    0    0  0.58201866050E+02 -0.29542820362E+03  0.26944249282E+04  0.27123498591E+04  0.79061901329E+02 0.  0.
        -11    1    5    5    0    0  0.57016648030E+02 -0.10670100934E+03  0.11896879692E+04  0.11958233429E+04  0.00000000000E+00 0.  1.
         12    1    5    5    0    0  0.11852180196E+01 -0.18872719429E+03  0.15047369590E+04  0.15165265162E+04  0.00000000000E+00 0. -1.
         13    1    3    3    0    0 -0.64288039683E+02  0.39898875117E+02 -0.47736195573E+02  0.89462934502E+02  0.00000000000E+00 0. -1.
        -14    1    3    3    0    0 -0.37038658278E+02 -0.36809285267E+02 -0.51562372844E+02  0.73385720561E+02  0.00000000000E+00 0.  1.
          5    1    4    4  501    0  0.73697195344E+02  0.90890983110E+02  0.84866975958E+02  0.14461093811E+03  0.41800000000E+01 0.  1.
         -5    1    4    4    0  501 -0.30572363433E+02  0.20144763066E+03  0.14882398344E+03  0.25235266544E+03  0.41800000000E+01 0.  1.
</event>
<event>
11    1  0.8041700E-009  0.1446031E+03  0.7561462E-02  0.1102524E+00
         22   -1    0    0    0    0  0.00000000000E+00  0.00000000000E+00  0.69998437832E+03  0.69998437832E+03  0.00000000000E+00 0.  1.
         22   -1    0    0    0    0 -0.00000000000E+00 -0.00000000000E+00 -0.59415861572E+03  0.59415861572E+03  0.00000000000E+00 0.  1.
        -24    2    1    2    0    0 -0.72194925635E+01 -0.73067285921E+02 -0.56104005598E+03  0.57140296318E+03  0.79652071993E+02 0.  0.
         25    2    1    2    0    0  0.29484948986E+02  0.37797873517E+02  0.16350745105E+03  0.21137780016E+03  0.12509135219E+03 0.  0.
         24    2    1    2    0    0 -0.22265456422E+02  0.35269412404E+02  0.50335836753E+03  0.51136223071E+03  0.79887438527E+02 0.  0.
        -13    1    5    5    0    0 -0.43241921473E+02  0.36827104536E+02  0.45624140136E+03  0.45976332576E+03  0.00000000000E+00 0.  1.
         14    1    5    5    0    0  0.20976465051E+02 -0.15576921324E+01  0.47116966166E+02  0.51598904945E+02  0.00000000000E+00 0. -1.
         13    1    3    3    0    0  0.14200993014E+02 -0.83637151356E+01 -0.19244230764E+02  0.25336936499E+02  0.00000000000E+00 0. -1.
        -14    1    3    3    0    0 -0.21420485577E+02 -0.64703570785E+02 -0.54179582521E+03  0.54606602668E+03  0.00000000000E+00 0.  1.
          5    1    4    4  501    0  0.73367546680E+02  0.40529328284E+02  0.75391894457E+02  0.11281326831E+03  0.41800000000E+01 0. -1.
         -5    1    4    4    0  501 -0.43882597695E+02 -0.27314547672E+01  0.88115556592E+02  0.98564531852E+02  0.41800000000E+01 0. -1.
</event>
<event>
11    1  0.8041700E-009  0.1616063E+03  0.7561462E-02  0.1085576E+00
         22   -1    0    0    0    0  0.00000000000E+00  0.00000000000E+00  0.18964214250E+03  0.18964214250E+03  0.00000000000E+00 0.  1.
         22   -1    0    0    0    0 -0.00000000000E+00 -0.00000000000E+00 -0.13436428691E+04  0.13436428691E+04  0.00000000000E+00 0.  1.
         24    2    1    2    0    0 -0.29035347381E+00 -0.10220773905E+03 -0.12192897982E+04  0.12260500498E+04  0.78003888167E+02 0.  0.
         25    2    1    2    0    0  0.72707065698E+01  0.10431104281E+03 -0.45955416959E+02  0.16938999753E+03  0.12508962423E+03 0.  0.
        -24    2    1    2    0    0 -0.69803530960E+01 -0.21033037552E+01  0.11124448854E+03  0.13784496421E+03  0.81072490473E+02 0.  0.
        -11    1    3    3    0    0  0.67478951037E+01 -0.11433239752E+03 -0.10789830671E+04  0.10850446490E+04  0.00000000000E+00 0.  1.
         12    1    3    3    0    0 -0.70382485775E+01  0.12124658472E+02 -0.14030673104E+03  0.14100540082E+03  0.00000000000E+00 0. -1.
         11    1    5    5    0    0 -0.15388865465E+02  0.24243064864E+02  0.64068093930E+01  0.29420920804E+02  0.00000000000E+00 0. -1.
        -12    1    5    5    0    0  0.84085123694E+01 -0.26346368620E+02  0.10483767915E+03  0.10842404341E+03  0.00000000000E+00 0.  1.
          5    1    4    4  501    0  0.59757108915E+02  0.85450139709E+02 -0.14889666375E+02  0.10541258467E+03  0.41800000000E+01 0.  1.
         -5    1    4    4    0  501 -0.52486402346E+02  0.18860903097E+02 -0.31065750584E+02  0.63977412859E+02  0.41800000000E+01 0.  1.
</event>
<event>
11    1  0.8041700E-009  0.1306804E+03  0.7561462E-02  0.1118436E+00
         22   -1    0    0    0    0  0.00000000000E+00  0.00000000000E+00  0.60183165558E+03  0.60183165558E+03  0.00000000000E+00 0. -1.
         22   -1    0    0    0    0 -0.00000000000E+00 -0.00000000000E+00 -0.24771817911E+03  0.24771817911E+03  0.00000000000E+00 0.  1.
        -24    2    1    2    0    0  0.47469297182E+02 -0.46991147349E+01 -0.99136647110E+02  0.13692442442E+03  0.81515687735E+02 0.  0.
         25    2    1    2    0    0 -0.13127546077E+02  0.30954674140E+02 -0.92465954756E+02  0.15914772492E+03  0.12509005252E+03 0.  0.
         24    2    1    2    0    0 -0.34341751105E+02 -0.26255559405E+02  0.54571607834E+03  0.55347768536E+03  0.81625974796E+02 0.  0.
        -13    1    5    5    0    0  0.54655864376E+01  0.14727759265E+02  0.24266633556E+02  0.28907594715E+02  0.00000000000E+00 0.  1.
         14    1    5    5    0    0 -0.39807337542E+02 -0.40983318670E+02  0.52144944478E+03  0.52457009064E+03  0.00000000000E+00 0. -1.
         11    1    3    3    0    0  0.53058031013E+02 -0.33494835969E+02 -0.52415844011E+02  0.81758665565E+02  0.00000000000E+00 0. -1.
        -12    1    3    3    0    0 -0.55887338310E+01  0.28795721234E+02 -0.46720803100E+02  0.55165758850E+02  0.00000000000E+00 0.  1.
          5    1    4    4  501    0  0.44901566981E+02  0.29516225778E+02 -0.84757284301E+02  0.10044216218E+03  0.41800000000E+01 0. -1.
         -5    1    4    4    0  501 -0.58029113059E+02  0.14384483619E+01 -0.77086704549E+01  0.58705562737E+02  0.41800000000E+01 0. -1.
</event>
<event>
11    1  0.8041700E-009  0.1599021E+03  0.7561462E-02  0.1087169E+00
         22   -1    0    0    0    0  0.00000000000E+00  0.00000000000E+00  0.80216400158E+02  0.80216400158E+02  0.00000000000E+00 0.  1.
         22   -1    0    0    0    0 -0.00000000000E+00 -0.00000000000E+00 -0.14319204990E+04  0.14319204990E+04  0.00000000000E+00 0.  1.
        -24    2    1    2    0    0 -0.10016768301E+03  0.17149170605E+02 -0.12004158530E+04  0.12073051886E+04  0.79119779198E+02 0.  0.
         25    2    1    2    0    0  0.83138771608E+02 -0.20782582038E+01 -0.16185733635E+03  0.22081789556E+03  0.12508545546E+03 0.  0.
         24    2    1    2    0    0  0.17028911406E+02 -0.15070912402E+02  0.10569090524E+02  0.84013815003E+02  0.80184158115E+02 0.  0.
        -13    1    5    5    0    0 -0.18144645233E+02 -0.35332562751E+02 -0.60009415375E+01  0.40170006728E+02  0.00000000000E+00 0.  1.
         14    1    5    5    0    0  0.35173556639E+02  0.20261650349E+02  0.16570032062E+02  0.43843808275E+02  0.00000000000E+00 0. -1.
         13    1    3    3    0    0  0.11904135502E+02  0.75504353957E+01 -0.22150888818E+03  0.22195698921E+03  0.00000000000E+00 0. -1.
        -14    1    3    3    0    0 -0.11207181852E+03  0.95987352097E+01 -0.97890696484E+03  0.98534819938E+03  0.00000000000E+00 0.  1.
          5    1    4    4  501    0  0.20362460635E+02  0.26286754788E+02 -0.14627750041E+03  0.15006732758E+03  0.41800000000E+01 0. -1.
         -5    1    4    4    0  501  0.62776310973E+02 -0.28365012992E+02 -0.15579835935E+02  0.70750567978E+02  0.41800000000E+01 0. -1.
</event>
<event>
11    1  0.8041700E-009  0.1401151E+03  0.7561462E-02  0.1107430E+00
         22   -1    0    0    0    0  0.00000000000E+00  0.00000000000E+00  0.71801374374E+03  0.71801374374E+03  0.00000000000E+00 0. -1.
         22   -1    0    0    0    0 -0.00000000000E+00 -0.00000000000E+00 -0.12364713524E+04  0.12364713524E+04  0.00000000000E+00 0. -1.
        -24    2    1    2    0    0  0.16023017822E+02  0.26841647055E+02 -0.11557007169E+04  0.11594541521E+04  0.87821254063E+02 0.  0.
         25    2    1    2    0    0  0.44760598021E+02 -0.63601855446E+01 -0.16951691441E+02  0.13408236005E+03  0.12508699508E+03 0.  0.
         24    2    1    2    0    0 -0.60783615843E+02 -0.20481461511E+02  0.65419479969E+03  0.66094858397E+03  0.69051115076E+02 0.  0.
        -13    1    5    5    0    0 -0.67379253503E+02 -0.33787164590E+02  0.45502119439E+03  0.46122209795E+03  0.00000000000E+00 0.  1.
         14    1    5    5    0    0  0.65956376595E+01  0.13305703079E+02  0.19917360530E+03  0.19972648602E+03  0.00000000000E+00 0. -1.
         11    1    3    3    0    0 -0.52957726928E+01  0.56311336706E+02 -0.74696397784E+03  0.74910226006E+03  0.00000000000E+00 0. -1.
        -12    1    3    3    0    0  0.21318790515E+02 -0.29469689651E+02 -0.40873673909E+03  0.41035189206E+03  0.00000000000E+00 0.  1.
          5    1    4    4  501    0  0.29461136282E+01 -0.62425084054E+02 -0.34610129382E+01  0.62729751436E+02  0.41800000000E+01 0. -1.
         -5    1    4    4    0  501  0.41814484393E+02  0.56064898509E+02 -0.13490678503E+02  0.71352608616E+02  0.41800000000E+01 0. -1.
</event>
<event>
11    1  0.8041700E-009  0.1439648E+03  0.7561462E-02  0.1103210E+00
         22   -1    0    0    0    0  0.00000000000E+00  0.00000000000E+00  0.21072788459E+03  0.21072788459E+03  0.00000000000E+00 0.  1.
         22   -1    0    0    0    0 -0.00000000000E+00 -0.00000000000E+00 -0.95970513688E+03  0.95970513688E+03  0.00000000000E+00 0. -1.
        -24    2    1    2    0    0 -0.71254265731E+02  0.18092323400E+02 -0.86321870807E+03  0.87093525683E+03  0.89315066359E+02 0.  0.
         25    2    1    2    0    0  0.41268525742E+02 -0.15612167248E+01 -0.30010879824E+02  0.13511201463E+03  0.12509626283E+03 0.  0.
         24    2    1    2    0    0  0.29985739989E+02 -0.16531106675E+02  0.14425233560E+03  0.16438575001E+03  0.71003636450E+02 0.  0.
        -13    1    5    5    0    0  0.13976976175E+02 -0.20117680461E+02  0.14585892085E+03  0.14790166233E+03  0.00000000000E+00 0.  1.
         14    1    5    5    0    0  0.16008763815E+02  0.35865737860E+01 -0.16065852452E+01  0.16484087677E+02  0.00000000000E+00 0. -1.
         11    1    3    3    0    0 -0.32359156406E+02  0.51554821786E+02 -0.57217172167E+03  0.57540029000E+03  0.00000000000E+00 0. -1.
        -12    1    3    3    0    0 -0.38895109325E+02 -0.33462498387E+02 -0.29104698640E+03  0.29553496683E+03  0.00000000000E+00 0.  1.
          5    1    4    4  501    0  0.93116338582E+01 -0.62215934559E+02 -0.13859392508E+02  0.64552956546E+02  0.41800000000E+01 0.  1.
         -5    1    4    4    0  501  0.31956891884E+02  0.60654717834E+02 -0.16151487316E+02  0.70559058079E+02  0.41800000000E+01 0.  1.
</event>
<event>
11    1  0.8041700E-009  0.1793665E+03  0.7561462E-02  0.1070156E+00
         22   -1    0    0    0    0  0.00000000000E+00  0.00000000000E+00  0.14463537207E+03  0.14463537207E+03  0.00000000000E+00 0. -1.
         22   -1    0    0    0    0 -0.00000000000E+00 -0.00000000000E+00 -0.20932586663E+04  0.20932586663E+04  0.00000000000E+00 0.  1.
        -24    2    1    2    0    0 -0.63956401964E+02  0.11300299752E+03 -0.18743609329E+04  0.18805652555E+04  0.80228888914E+02 0.  0.
         25    2    1    2    0    0  0.76251624824E+02 -0.86787925059E+02 -0.16108043536E+03  0.23439297933E+03  0.12508680137E+03 0.  0.
         24    2    1    2    0    0 -0.12295222860E+02 -0.26215072461E+02  0.86818073986E+02  0.12293580358E+03  0.82081857327E+02 0.  0.
        -13    1    5    5    0    0 -0.24784575253E+02 -0.37846654387E+02  0.12857285419E+02  0.47031417235E+02  0.00000000000E+00 0.  1.
         14    1    5    5    0    0  0.12489352393E+02  0.11631581926E+02  0.73960788566E+02  0.75904386346E+02  0.00000000000E+00 0. -1.
         13    1    3    3    0    0 -0.98095384909E+01  0.13746143745E+01 -0.62093599483E+03  0.62101499683E+03  0.00000000000E+00 0. -1.
        -14    1    3    3    0    0 -0.54146863473E+02  0.11162838315E+03 -0.12534249381E+04  0.12595502587E+04  0.00000000000E+00 0.  1.
          5    1    4    4  501    0  0.31104603097E+02 -0.10259256308E+03 -0.15115971882E+03  0.18536305815E+03  0.41800000000E+01 0.  1.
         -5    1    4    4    0  501  0.45147021727E+02  0.15804638022E+02 -0.99207165375E+01  0.49029921175E+02  0.41800000000E+01 0.  1.
</event>
<event>
11    1  0.8041700E-009  0.1348900E+03  0.7561462E-02  0.1113403E+00
         22   -1    0    0    0    0  0.00000000000E+00  0.00000000000E+00  0.36730873467E+03  0.36730873467E+03  0.00000000000E+00 0.  1.
         22   -1    0    0    0    0 -0.00000000000E+00 -0.00000000000E+00 -0.26193208921E+03  0.26193208921E+03  0.00000000000E+00 0. -1.
        -24    2    1    2    0    0  0.19571275811E+02  0.22381043981E+01 -0.20238737005E+03  0.21899751841E+03  0.81309418689E+02 0.  0.
         25    2    1    2    0    0 -0.37062967630E+02 -0.47796958320E+02  0.71588956246E+02  0.15630495755E+03  0.12509215924E+03 0.  0.
         24    2    1    2    0    0  0.17491691819E+02  0.45558853922E+02  0.23617505926E+03  0.25393834792E+03  0.79526457696E+02 0.  0.
        -13    1    5    5    0    0  0.34636958341E+02  0.43717534685E+02  0.22824020291E+03  0.23495644691E+03  0.00000000000E+00 0.  1.
         14    1    5    5    0    0 -0.17145266522E+02  0.18413192376E+01  0.79348563595E+01  0.18981901014E+02  0.00000000000E+00 0. -1.
         13    1    3    3    0    0  0.10942204802E+02 -0.25207260889E+02 -0.18118968667E+03  0.18326167195E+03  0.00000000000E+00 0. -1.
        -14    1    3    3    0    0  0.86290710087E+01  0.27445365287E+02 -0.21197683373E+02  0.35735846465E+02  0.00000000000E+00 0.  1.
          5    1    4    4  501    0  0.26709396570E+02 -0.65100092273E+02  0.22889322750E+02  0.74113476339E+02  0.41800000000E+01 0. -1.
         -5    1    4    4    0  501 -0.63772364200E+02  0.17303133953E+02  0.48699633496E+02  0.82191481206E+02  0.41800000000E+01 0. -1.
</event>
<event>
11    1  0.8041700E-009  0.1663146E+03  0.7561462E-02  0.1081284E+00
         22   -1    0    0    0    0  0.00000000000E+00  0.00000000000E+00  0.56374998829E+03  0.56374998829E+03  0.00000000000E+00 0.  1.
         22   -1    0    0    0    0 -0.00000000000E+00 -0.00000000000E+00 -0.12002254337E+04  0.12002254337E+04  0.00000000000E+00 0. -1.
         24    2    1    2    0    0  0.39077168701E+02  0.18466928932E+02 -0.11251879763E+04  0.11304943922E+04  0.10050639852E+03 0.  0.
         25    2    1    2    0    0 -0.20628284890E+02  0.93049067746E+02  0.37857305778E+02  0.16175316393E+03  0.12508898950E+03 0.  0.
        -24    2    1    2    0    0 -0.18448883812E+02 -0.11151599668E+03  0.45085522510E+03  0.47172786591E+03  0.80501966739E+02 0.  0.
        -11    1    3    3    0    0 -0.25449655355E+01  0.49023679354E+02 -0.32993831024E+03  0.33357021233E+03  0.00000000000E+00 0.  1.
         12    1    3    3    0    0  0.41622134237E+02 -0.30556750421E+02 -0.79524966609E+03  0.79692417987E+03  0.00000000000E+00 0. -1.
         11    1    5    5    0    0 -0.46179022116E+02 -0.36844078413E+02  0.19746211913E+03  0.20610986558E+03  0.00000000000E+00 0. -1.
        -12    1    5    5    0    0  0.27730138305E+02 -0.74671918265E+02  0.25339310597E+03  0.26561800033E+03  0.00000000000E+00 0.  1.
          5    1    4    4  501    0 -0.63768910685E+02  0.56700120606E+02  0.56229811491E+02  0.10227727874E+03  0.41800000000E+01 0.  1.
         -5    1    4    4    0  501  0.43140625795E+02  0.36348947140E+02 -0.18372505713E+02  0.59475885184E+02  0.41800000000E+01 0.  1.
</event>
<event>
11    1  0.8041700E-009  0.2244905E+03  0.7561462E-02  0.1038440E+00
         22   -1    0    0    0    0  0.00000000000E+00  0.00000000000E+00  0.19059195176E+04  0.19059195176E+04  0.00000000000E+00 0.  1.
         22   -1    0    0    0    0 -0.00000000000E+00 -0.00000000000E+00 -0.18466403803E+03  0.18466403803E+03  0.00000000000E+00 0.  1.
         24    2    1    2    0    0  0.17611503966E+02 -0.56490374907E+02 -0.11425286782E+03  0.15892400656E+03  0.93283409707E+02 0.  0.
         25    2    1    2    0    0 -0.20200561192E+02 -0.13822462751E+03  0.17374555180E+03  0.25563529258E+03  0.12509106969E+03 0.  0.
        -24    2    1    2    0    0  0.25890572255E+01  0.19471500241E+03  0.16617627956E+04  0.16760242565E+04  0.98392500543E+02 0.  0.
        -13    1    3    3    0    0 -0.82706270301E+01 -0.31503178338E+02 -0.11831822897E+03  0.12271942317E+03  0.00000000000E+00 0.  1.
         14    1    3    3    0    0  0.25882130996E+02 -0.24987196568E+02  0.40653611457E+01  0.36204583391E+02  0.00000000000E+00 0. -1.
         11    1    5    5    0    0 -0.31213474317E+02  0.18553068620E+02  0.19693248670E+03  0.20025209525E+03  0.00000000000E+00 0. -1.
        -12    1    5    5    0    0  0.33802531543E+02  0.17616193379E+03  0.14648303089E+04  0.14757721613E+04  0.00000000000E+00 0.  1.
          5    1    4    4  501    0  0.11275763344E+02 -0.79345642752E+01  0.10302368315E+03  0.10402620746E+03  0.41800000000E+01 0.  1.
         -5    1    4    4    0  501 -0.31476324536E+02 -0.13029006323E+03  0.70721868653E+02  0.15160908511E+03  0.41800000000E+01 0.  1.
</event>
<event>
11    1  0.8041700E-009  0.1556731E+03  0.7561462E-02  0.1091219E+00
         22   -1    0    0    0    0  0.00000000000E+00  0.00000000000E+00  0.80343374474E+02  0.80343374474E+02  0.00000000000E+00 0. -1.
         22   -1    0    0    0    0 -0.00000000000E+00 -0.00000000000E+00 -0.82070398464E+03  0.82070398464E+03  0.00000000000E+00 0.  1.
         24    2    1    2    0    0 -0.81863513272E+02 -0.33065523340E+02 -0.56116065635E+03  0.57374926153E+03  0.80572757395E+02 0.  0.
         25    2    1    2    0    0  0.11095365312E+03  0.40469176599E+02 -0.16697918790E+03  0.23974017218E+03  0.12507930911E+03 0.  0.
        -24    2    1    2    0    0 -0.29090139845E+02 -0.74036532591E+01 -0.12220765908E+02  0.87557925401E+02  0.81338753760E+02 0.  0.
        -13    1    3    3    0    0  0.32162896678E+01 -0.98275210918E+01 -0.25312653935E+03  0.25333765929E+03  0.00000000000E+00 0.  1.
         14    1    3    3    0    0 -0.85079802940E+02 -0.23238002248E+02 -0.30803411700E+03  0.32041160224E+03  0.00000000000E+00 0. -1.
         11    1    5    5    0    0 -0.52486083133E+02  0.12542823067E+02  0.12810740699E+01  0.53979185655E+02  0.00000000000E+00 0. -1.
        -12    1    5    5    0    0  0.23395943288E+02 -0.19946476326E+02 -0.13501839978E+02  0.33578739746E+02  0.00000000000E+00 0.  1.
          5    1    4    4  501    0  0.22264070367E+02  0.39686113903E+02 -0.13950006459E+03  0.14679379036E+03  0.41800000000E+01 0.  1.
         -5    1    4    4    0  501  0.88689582750E+02  0.78306269613E+00 -0.27479123313E+02  0.92946381821E+02  0.41800000000E+01 0.  1.
</event>
<event>
11    1  0.8041700E-009  0.1500205E+03  0.7561462E-02  0.1096858E+00
         22   -1    0    0    0    0  0.00000000000E+00  0.00000000000E+00  0.26665280358E+03  0.26665280358E+03  0.00000000000E+00 0. -1.
         22   -1    0    0    0    0 -0.00000000000E+00 -0.00000000000E+00 -0.23458175026E+04  0.23458175026E+04  0.00000000000E+00 0.  1.
         24    2    1    2    0    0 -0.25124072275E+02 -0.54694480914E+02 -0.21382089374E+04  0.21405035196E+04  0.78709288453E+02 0.  0.
         25    2    1    2    0    0  0.62835264334E+02  0.12473786986E+03 -0.15020791028E+03  0.24024441133E+03  0.12508858558E+03 0.  0.
        -24    2    1    2    0    0 -0.37711192058E+02 -0.70043388950E+02  0.20925214865E+03  0.23172237527E+03  0.59838007520E+02 0.  0.
        -11    1    3    3    0    0 -0.37607377996E+02 -0.69888428870E+02 -0.17416768077E+04  0.17434841008E+04  0.00000000000E+00 0.  1.
         12    1    3    3    0    0  0.12483305720E+02  0.15193947956E+02 -0.39653212972E+03  0.39701941877E+03  0.00000000000E+00 0. -1.
         11    1    5    5    0    0 -0.10326942420E+02 -0.24777787468E+02  0.14960303089E+03  0.15199227395E+03  0.00000000000E+00 0. -1.
        -12    1    5    5    0    0 -0.27384249639E+02 -0.45265601482E+02  0.59649117767E+02  0.79730101318E+02  0.00000000000E+00 0.  1.
          5    1    4    4  501    0 -0.27782556935E+02  0.80143953309E+02 -0.53635170915E+02  0.10044464984E+03  0.41800000000E+01 0.  1.
         -5    1    4    4    0  501  0.90617821269E+02  0.44593916556E+02 -0.96572739366E+02  0.13979976149E+03  0.41800000000E+01 0.  1.
</event>
<event>
11    1  0.8041700E-009  0.1644300E+03  0.7561462E-02  0.1082983E+00
         22   -1    0    0    0    0  0.00000000000E+00  0.00000000000E+00  0.36316716436E+03  0.36316716436E+03  0.00000000000E+00 0. -1.
         22   -1    0    0    0    0 -0.00000000000E+00 -0.00000000000E+00 -0.21594599799E+04  0.21594599799E+04  0.00000000000E+00 0.  1.
         24    2    1    2    0    0 -0.35060591220E+02 -0.10290914215E+03 -0.20444067002E+04  0.20488757971E+04  0.80459553148E+02 0.  0.
         25    2    1    2    0    0  0.11479312716E+02  0.64525320581E+02 -0.59167863242E+02  0.15311261427E+03  0.12508934803E+03 0.  0.
        -24    2    1    2    0    0  0.23581278504E+02  0.38383821565E+02  0.30728174782E+03  0.32063873293E+03  0.79735375200E+02 0.  0.
        -13    1    3    3    0    0 -0.48441351938E+02 -0.88695991776E+02 -0.19418353534E+04  0.19444634435E+04  0.00000000000E+00 0.  1.
         14    1    3    3    0    0  0.13380760718E+02 -0.14213150370E+02 -0.10257134678E+03  0.10441235358E+03  0.00000000000E+00 0. -1.
         11    1    5    5    0    0  0.14376524714E+02 -0.20089528759E+02  0.16018332662E+03  0.16207705499E+03  0.00000000000E+00 0. -1.
        -12    1    5    5    0    0  0.92047537907E+01  0.58473350325E+02  0.14709842120E+03  0.15856167794E+03  0.00000000000E+00 0.  1.
          5    1    4    4  501    0  0.42055010539E+02  0.86736078505E+02 -0.20019998812E+02  0.98539555400E+02  0.41800000000E+01 0. -1.
         -5    1    4    4    0  501 -0.30575697823E+02 -0.22210757925E+02 -0.39147864430E+02  0.54573058869E+02  0.41800000000E+01 0. -1.
</event>
<event>
11    1  0.8041700E-009  0.1552188E+03  0.7561462E-02  0.1091662E+00
         22   -1    0    0    0    0  0.00000000000E+00  0.00000000000E+00  0.65101018494E+03  0.65101018494E+03  0.00000000000E+00 0.  1.
         22   -1    0    0    0    0 -0.00000000000E+00 -0.00000000000E+00 -0.72760390930E+03  0.72760390930E+03  0.00000000000E+00 0. -1.
         24    2    1    2    0    0  0.17980015202E+01 -0.72726876051E+01 -0.64766678655E+03  0.65295128404E+03  0.82565053972E+02 0.  0.
         25    2    1    2    0    0  0.44943826428E+02  0.85870661143E+02  0.18004080086E+02  0.15926003934E+03  0.12508355308E+03 0.  0.
        -24    2    1    2    0    0 -0.46741827948E+02 -0.78597973538E+02  0.55306898210E+03  0.56640277087E+03  0.81020737859E+02 0.  0.
        -11    1    3    3    0    0 -0.31878425923E+02 -0.11198341504E+00 -0.51173838016E+03  0.51273035439E+03  0.00000000000E+00 0.  1.
         12    1    3    3    0    0  0.33676427444E+02 -0.71607041901E+01 -0.13592840638E+03  0.14022092965E+03  0.00000000000E+00 0. -1.
         11    1    5    5    0    0 -0.52747804298E+02 -0.15915876620E+02  0.18663387646E+03  0.19459663365E+03  0.00000000000E+00 0. -1.
        -12    1    5    5    0    0  0.60059763496E+01 -0.62682096919E+02  0.36643510564E+03  0.37180613721E+03  0.00000000000E+00 0.  1.
          5    1    4    4  501    0  0.47993215843E+02  0.11636876837E+03  0.60339124824E+01  0.12609091766E+03  0.41800000000E+01 0. -1.
         -5    1    4    4    0  501 -0.30493894146E+01 -0.30498107222E+02  0.11970167603E+02  0.33169121670E+02  0.41800000000E+01 0. -1.
</event>
<event>
11    1  0.8041700E-009  0.1347484E+03  0.7561462E-02  0.1113569E+00
         22   -1    0    0    0    0  0.00000000000E+00  0.00000000000E+00  0.26586858646E+03  0.26586858646E+03  0.00000000000E+00 0. -1.
         22   -1    0    0    0    0 -0.00000000000E+00 -0.00000000000E+00 -0.16393668904E+03  0.16393668904E+03  0.00000000000E+00 0.  1.
        -24    2    1    2    0    0 -0.37239399101E+02  0.34671787490E+01 -0.86444788054E+02  0.12494374827E+03  0.82094120834E+02 0.  0.
         25    2    1    2    0    0  0.75753133628E+02 -0.15395316819E+01  0.93227744165E+02  0.17342822703E+03  0.12508009528E+03 0.  0.
         24    2    1    2    0    0 -0.38513734527E+02 -0.19276470670E+01  0.95148941312E+02  0.13143330021E+03  0.82063193945E+02 0.  0.
        -13    1    5    5    0    0 -0.67997719514E+01 -0.30478972759E+02  0.49080597057E+01  0.31611607506E+02  0.00000000000E+00 0.  1.
         14    1    5    5    0    0 -0.31713962576E+02  0.28551325692E+02  0.90240881606E+02  0.99821692703E+02  0.00000000000E+00 0. -1.
         11    1    3    3    0    0  0.49583749530E+01 -0.32037085157E+02 -0.18115736475E+02  0.37136777130E+02  0.00000000000E+00 0. -1.
        -12    1    3    3    0    0 -0.42197774054E+02  0.35504263906E+02 -0.68329051579E+02  0.87806971137E+02  0.00000000000E+00 0.  1.
          5    1    4    4  501    0 -0.12634009504E+02  0.44052913229E+02  0.37401444067E+02  0.59301077380E+02  0.41800000000E+01 0. -1.
         -5    1    4    4    0  501  0.88387143132E+02 -0.45592444911E+02  0.55826300097E+02  0.11412714965E+03  0.41800000000E+01 0. -1.
</event>
<event>
11    1  0.8041700E-009  0.1422975E+03  0.7561462E-02  0.1105020E+00
         22   -1    0    0    0    0  0.00000000000E+00  0.00000000000E+00  0.33201900333E+03  0.33201900333E+03  0.00000000000E+00 0. -1.
         22   -1    0    0    0    0 -0.00000000000E+00 -0.00000000000E+00 -0.17492396166E+03  0.17492396166E+03  0.00000000000E+00 0.  1.
        -24    2    1    2    0    0  0.60323965789E+02  0.69637064066E+01 -0.35146698381E+02  0.10716272767E+03  0.81000529246E+02 0.  0.
         25    2    1    2    0    0 -0.78848518834E+02 -0.59056265733E+01 -0.39651552981E+02  0.15320522928E+03  0.12509049236E+03 0.  0.
         24    2    1    2    0    0  0.18524553045E+02 -0.10580798333E+01  0.23189329303E+03  0.24657500804E+03  0.81734060471E+02 0.  0.
        -13    1    5    5    0    0  0.17008276815E+02  0.31248409128E+02  0.19175760836E+03  0.19503006157E+03  0.00000000000E+00 0.  1.
         14    1    5    5    0    0  0.15162762300E+01 -0.32306488962E+02  0.40135684664E+02  0.51544946465E+02  0.00000000000E+00 0. -1.
         11    1    3    3    0    0 -0.21492887683E+01  0.15151984266E+02  0.18782055599E+02  0.24227415915E+02  0.00000000000E+00 0. -1.
        -12    1    3    3    0    0  0.62473254557E+02 -0.81882778595E+01 -0.53928753980E+02  0.82935311750E+02  0.00000000000E+00 0.  1.
          5    1    4    4  501    0  0.34141882222E+02  0.24679606761E+01 -0.11902291600E+02  0.36481445927E+02  0.41800000000E+01 0.  1.
         -5    1    4    4    0  501 -0.11299040106E+03 -0.83735872494E+01 -0.27749261381E+02  0.11672378336E+03  0.41800000000E+01 0.  1.
</event>
<event>
11    1  0.8041700E-009  0.1506827E+03  0.7561462E-02  0.1096183E+00
         22   -1    0    0    0    0  0.00000000000E+00  0.00000000000E+00  0.39987684314E+03  0.39987684314E+03  0.00000000000E+00 0. -1.
         22   -1    0    0    0    0 -0.00000000000E+00 -0.00000000000E+00 -0.18133761863E+04  0.18133761863E+04  0.00000000000E+00 0. -1.
        -24    2    1    2    0    0  0.42764862965E+01 -0.38623843714E+02 -0.17661379685E+04  0.17682401258E+04  0.76939777588E+02 0.  0.
         25    2    1    2    0    0 -0.85009553993E+02  0.40522388957E+02  0.18531906363E+03  0.24261063345E+03  0.12509226930E+03 0.  0.
         24    2    1    2    0    0  0.80733067696E+02 -0.18985452427E+01  0.16731956170E+03  0.20240227012E+03  0.80308222053E+02 0.  0.
        -13    1    5    5    0    0 -0.14500961592E+02 -0.10746358998E+02  0.31109558200E+02  0.35966188709E+02  0.00000000000E+00 0.  1.
         14    1    5    5    0    0  0.95234029288E+02  0.88478137557E+01  0.13621000350E+03  0.16643608141E+03  0.00000000000E+00 0. -1.
         13    1    3    3    0    0  0.30808103716E+01 -0.56780393668E+02 -0.83955925645E+03  0.84148276845E+03  0.00000000000E+00 0. -1.
        -14    1    3    3    0    0  0.11956759249E+01  0.18156549953E+02 -0.92657871200E+03  0.92675735739E+03  0.00000000000E+00 0.  1.
          5    1    4    4  501    0  0.12981883496E+01  0.84553302889E+00  0.13492527496E+03  0.13499889793E+03  0.41800000000E+01 0. -1.
         -5    1    4    4    0  501 -0.86307742342E+02  0.39676855928E+02  0.50393788675E+02  0.10761173552E+03  0.41800000000E+01 0. -1.
</event>
<event>
11    1  0.8041700E-009  0.1497514E+03  0.7561462E-02  0.1097133E+00
         22   -1    0    0    0    0  0.00000000000E+00  0.00000000000E+00  0.14172960915E+03  0.14172960915E+03  0.00000000000E+00 0.  1.
         22   -1    0    0    0    0 -0.00000000000E+00 -0.00000000000E+00 -0.10548130393E+04  0.10548130393E+04  0.00000000000E+00 0.  1.
         24    2    1    2    0    0 -0.22106296813E+02 -0.77275923908E+02 -0.91259509350E+03  0.91946960083E+03  0.78321678922E+02 0.  0.
         25    2    1    2    0    0  0.49335274037E+02  0.11649627764E+03 -0.27894504626E+02  0.18008449228E+03  0.12508784514E+03 0.  0.
        -24    2    1    2    0    0 -0.27228977224E+02 -0.39220353730E+02  0.27406167965E+02  0.96988555350E+02  0.79850037440E+02 0.  0.
        -11    1    3    3    0    0 -0.40779992749E+02 -0.12807319330E+02 -0.45088272106E+03  0.45290425410E+03  0.00000000000E+00 0.  1.
         12    1    3    3    0    0  0.18673695936E+02 -0.64468604578E+02 -0.46171237244E+03  0.46656534672E+03  0.00000000000E+00 0. -1.
         13    1    5    5    0    0 -0.36513187749E+02 -0.17150781865E+01 -0.15097101189E+02  0.39548411309E+02  0.00000000000E+00 0. -1.
        -14    1    5    5    0    0  0.92842105253E+01 -0.37505275544E+02  0.42503269154E+02  0.57440144041E+02  0.00000000000E+00 0.  1.
          5    1    4    4  501    0  0.75600063484E+02  0.77805222963E+02 -0.59197269914E+02  0.12365602082E+03  0.41800000000E+01 0.  1.
         -5    1    4    4    0  501 -0.26264789447E+02  0.38691054675E+02  0.31302765288E+02  0.56428471459E+02  0.41800000000E+01 0.  1.
</event>
<event>
11    1  0.8041700E-009  0.1349028E+03  0.7561462E-02  0.1113388E+00
         22   -1    0    0    0    0  0.00000000000E+00  0.00000000000E+00  0.14537808501E+04  0.14537808501E+04  0.00000000000E+00 0. -1.
         22   -1    0    0    0    0 -0.00000000000E+00 -0.00000000000E+00 -0.59981399360E+03  0.59981399360E+03  0.00000000000E+00 0.  1.
         24    2    1    2    0    0 -0.37920151336E+02  0.35289269225E+02 -0.50602019943E+03  0.51509056231E+03  0.81108413528E+02 0.  0.
         25    2    1    2    0    0  0.19197851372E+02 -0.33130880884E+02 -0.39399244885E+02  0.13662210326E+03  0.12508831215E+03 0.  0.
        -24    2    1    2    0    0  0.18722299964E+02 -0.21583883417E+01  0.13993863008E+04  0.14018821781E+04  0.81464343626E+02 0.  0.
        -13    1    3    3    0    0 -0.60011684062E+02  0.41217234332E+02 -0.35973747498E+03  0.36703039865E+03  0.00000000000E+00 0.  1.
         14    1    3    3    0    0  0.22091532726E+02 -0.59279651063E+01 -0.14628272445E+03  0.14806016366E+03  0.00000000000E+00 0. -1.
         11    1    5    5    0    0 -0.16546667117E+02 -0.32857876743E+02  0.58819666423E+03  0.58934603423E+03  0.00000000000E+00 0. -1.
        -12    1    5    5    0    0  0.35268967081E+02  0.30699488401E+02  0.81118963655E+03  0.81253614386E+03  0.00000000000E+00 0.  1.
          5    1    4    4  501    0  0.13027899372E+02  0.24582946552E+02 -0.66664838209E+02  0.72358278563E+02  0.41800000000E+01 0.  1.
         -5    1    4    4    0  501  0.61699520000E+01 -0.57713827436E+02  0.27265593323E+02  0.64263824694E+02  0.41800000000E+01 0.  1.
</event>
<event>
11    1  0.8041700E-009  0.1676793E+03  0.7561462E-02  0.1080069E+00
         22   -1    0    0    0    0  0.00000000000E+00  0.00000000000E+00  0.11917143542E+04  0.11917143542E+04  0.00000000000E+00 0.  1.
         22   -1    0    0    0    0 -0.00000000000E+00 -0.00000000000E+00 -0.13793732479E+04  0.13793732479E+04  0.00000000000E+00 0.  1.
        -24    2    1    2    0    0  0.58108291710E+02  0.10313825492E+02 -0.11867291805E+04  0.11912117378E+04  0.84713090304E+02 0.  0.
         25    2    1    2    0    0  0.40887337130E+02  0.43817945728E+02 -0.16044452216E+03  0.21211300474E+03  0.12513071319E+03 0.  0.
         24    2    1    2    0    0 -0.98995628840E+02 -0.54131771220E+02  0.11595148090E+04  0.11677628597E+04  0.80405976041E+02 0.  0.
        -11    1    5    5    0    0 -0.94917042729E+02 -0.65587958831E+02  0.11295150360E+04  0.11353921093E+04  0.00000000000E+00 0.  1.
         12    1    5    5    0    0 -0.40785861119E+01  0.11456187611E+02  0.29999772954E+02  0.32370750324E+02  0.00000000000E+00 0. -1.
         13    1    3    3    0    0  0.22377683720E+02 -0.12812987195E+02 -0.89066337004E+02  0.92724030094E+02  0.00000000000E+00 0. -1.
        -14    1    3    3    0    0  0.35730607990E+02  0.23126812687E+02 -0.10976628435E+04  0.10984877077E+04  0.00000000000E+00 0.  1.
          5    1    4    4  501    0  0.12876822933E+02  0.85614066678E+01  0.20264816759E+02  0.25831094659E+02  0.41800000000E+01 0.  1.
         -5    1    4    4    0  501  0.28010514197E+02  0.35256539060E+02 -0.18070933891E+03  0.18628191008E+03  0.41800000000E+01 0.  1.
</event>
<event>
11    1  0.8041700E-009  0.1828560E+03  0.7561462E-02  0.1067356E+00
         22   -1    0    0    0    0  0.00000000000E+00  0.00000000000E+00  0.21774374329E+04  0.21774374329E+04  0.00000000000E+00 0.  1.
         22   -1    0    0    0    0 -0.00000000000E+00 -0.00000000000E+00 -0.89090926743E+02  0.89090926743E+02  0.00000000000E+00 0.  1.
        -24    2    1    2    0    0  0.70379448920E+01  0.57009571025E+01 -0.22374131541E+02  0.11175294683E+03  0.10911501172E+03 0.  0.
         25    2    1    2    0    0 -0.86554178712E+02 -0.11097783156E+03  0.46291148138E+03  0.49974238208E+03  0.12509078267E+03 0.  0.
         24    2    1    2    0    0  0.79516233820E+02  0.10527687446E+03  0.16478091563E+04  0.16550330307E+04  0.80332219063E+02 0.  0.
        -13    1    5    5    0    0  0.21305572518E+02  0.47176194506E+02  0.10863007116E+04  0.10875333360E+04  0.00000000000E+00 0.  1.
         14    1    5    5    0    0  0.58210661302E+02  0.58100679953E+02  0.56150844471E+03  0.56749969478E+03  0.00000000000E+00 0. -1.
         13    1    3    3    0    0 -0.14933839414E+02 -0.35426436289E+02  0.24538450230E+02  0.45609072425E+02  0.00000000000E+00 0. -1.
        -14    1    3    3    0    0  0.21971784306E+02  0.41127393391E+02 -0.46912581771E+02  0.66143874404E+02  0.00000000000E+00 0.  1.
          5    1    4    4  501    0 -0.45031706988E+02 -0.91362897526E+02  0.13797665332E+03  0.17155192491E+03  0.41800000000E+01 0. -1.
         -5    1    4    4    0  501 -0.41522471724E+02 -0.19614934035E+02  0.32493482806E+03  0.32819045717E+03  0.41800000000E+01 0. -1.
</event>
<event>
11    1  0.8041700E-009  0.1731665E+03  0.7561462E-02  0.1075308E+00
         22   -1    0    0    0    0  0.00000000000E+00  0.00000000000E+00  0.23093247684E+04  0.23093247684E+04  0.00000000000E+00 0. -1.
         22   -1    0    0    0    0 -0.00000000000E+00 -0.00000000000E+00 -0.27383883022E+03  0.27383883022E+03  0.00000000000E+00 0. -1.
        -24    2    1    2    0    0  0.10500314573E+03 -0.50885145255E+02 -0.19887738496E+03  0.24413475668E+03  0.80215999322E+02 0.  0.
         25    2    1    2    0    0 -0.15851896845E+03  0.48647761850E+01  0.14919676908E+03  0.25112964777E+03  0.12511792308E+03 0.  0.
         24    2    1    2    0    0  0.53515822717E+02  0.46020369070E+02  0.20851665540E+04  0.20878991941E+04  0.80135318292E+02 0.  0.
        -11    1    5    5    0    0 -0.19452295821E+02  0.16001790903E+02  0.32990631492E+03  0.33086647722E+03  0.00000000000E+00 0.  1.
         12    1    5    5    0    0  0.72968118538E+02  0.30018578168E+02  0.17552602391E+04  0.17570327169E+04  0.00000000000E+00 0. -1.
         13    1    3    3    0    0  0.18561087563E+02 -0.48636995944E+01 -0.11071928477E+03  0.11236961140E+03  0.00000000000E+00 0. -1.
        -14    1    3    3    0    0  0.86442058170E+02 -0.46021445661E+02 -0.88158100187E+02  0.13176514528E+03  0.00000000000E+00 0.  1.
          5    1    4    4  501    0 -0.16630696451E+03 -0.13701735829E+02  0.15698106738E+03  0.22914247080E+03  0.41800000000E+01 0.  1.
         -5    1    4    4    0  501  0.77879960607E+01  0.18566512014E+02 -0.77842982938E+01  0.21987176966E+02  0.41800000000E+01 0.  1.
</event>
<event>
11    1  0.8041700E-009  0.1333976E+03  0.7561462E-02  0.1115163E+00
         22   -1    0    0    0    0  0.00000000000E+00  0.00000000000E+00  0.12336671979E+04  0.12336671979E+04  0.00000000000E+00 0.  1.
         22   -1    0    0    0    0 -0.00000000000E+00 -0.00000000000E+00 -0.25589438407E+03  0.25589438407E+03  0.00000000000E+00 0. -1.
         24    2    1    2    0    0 -0.34506733745E+02  0.31571485954E+02 -0.20076631655E+03  0.22207077004E+03  0.82588374765E+02 0.  0.
         25    2    1    2    0    0  0.60573518561E+02  0.53634337586E+01  0.71080869919E+02  0.15616836015E+03  0.12505258522E+03 0.  0.
        -24    2    1    2    0    0 -0.26066784816E+02 -0.36934919713E+02  0.11074582604E+04  0.11113224518E+04  0.80809204981E+02 0.  0.
        -11    1    3    3    0    0  0.70853958299E+01 -0.27341122931E+01  0.51743153357E+01  0.91897629616E+01  0.00000000000E+00 0.  1.
         12    1    3    3    0    0 -0.41592129575E+02  0.34305598247E+02 -0.20594063188E+03  0.21288100708E+03  0.00000000000E+00 0. -1.
         11    1    5    5    0    0 -0.64925580228E+01 -0.30696200206E+02  0.13311477535E+03  0.13676239773E+03  0.00000000000E+00 0. -1.
        -12    1    5    5    0    0 -0.19574226793E+02 -0.62387195069E+01  0.97434348508E+03  0.97456005402E+03  0.00000000000E+00 0.  1.
          5    1    4    4  501    0  0.78000453799E+02  0.38087569139E+02  0.79654689918E+02  0.11788585896E+03  0.41800000000E+01 0. -1.
         -5    1    4    4    0  501 -0.17426935239E+02 -0.32724135380E+02 -0.85738199994E+01  0.38282501193E+02  0.41800000000E+01 0. -1.
</event>
<event>
11    1  0.8041700E-009  0.1384977E+03  0.7561462E-02  0.1109248E+00
         22   -1    0    0    0    0  0.00000000000E+00  0.00000000000E+00  0.35441974169E+03  0.35441974169E+03  0.00000000000E+00 0. -1.
         22   -1    0    0    0    0 -0.00000000000E+00 -0.00000000000E+00 -0.67343465499E+03  0.67343465499E+03  0.00000000000E+00 0.  1.
        -24    2    1    2    0    0  0.19177337312E+02  0.55374168126E+02 -0.58843134393E+03  0.59607119674E+03  0.74935681077E+02 0.  0.
         25    2    1    2    0    0 -0.40872931493E+02 -0.65523278939E+02 -0.29967108373E+01  0.14703890695E+03  0.12509022051E+03 0.  0.
         24    2    1    2    0    0  0.21695594181E+02  0.10149110813E+02  0.27241314148E+03  0.28474429299E+03  0.79351682307E+02 0.  0.
        -11    1    5    5    0    0  0.33877003239E+02 -0.10906021235E+02  0.52116893958E+02  0.63109137877E+02  0.00000000000E+00 0.  1.
         12    1    5    5    0    0 -0.12181409058E+02  0.21055132048E+02  0.22029624752E+03  0.22163515511E+03  0.00000000000E+00 0. -1.
         13    1    3    3    0    0 -0.62007359850E+01  0.38820171624E+02 -0.11239978865E+03  0.11907630889E+03  0.00000000000E+00 0. -1.
        -14    1    3    3    0    0  0.25378073297E+02  0.16553996502E+02 -0.47603155529E+03  0.47699488785E+03  0.00000000000E+00 0.  1.
          5    1    4    4  501    0 -0.60438995024E+02  0.14361771207E+02  0.11791809387E+02  0.63369170425E+02  0.41800000000E+01 0.  1.
         -5    1    4    4    0  501  0.19566063531E+02 -0.79885050146E+02 -0.14788520224E+02  0.83669736521E+02  0.41800000000E+01 0.  1.
</event>
<event>
11    1  0.8041700E-009  0.1685876E+03  0.7561462E-02  0.1079267E+00
         22   -1    0    0    0    0  0.00000000000E+00  0.00000000000E+00  0.93438417587E+03  0.93438417587E+03  0.00000000000E+00 0.  1.
         22   -1    0    0    0    0 -0.00000000000E+00 -0.00000000000E+00 -0.13922386997E+03  0.13922386997E+03  0.00000000000E+00 0.  1.
         24    2    1    2    0    0  0.21994705070E+02  0.62087996063E+02 -0.81199454456E+02  0.13235138693E+03  0.81147100459E+02 0.  0.
         25    2    1    2    0    0 -0.44735412281E+02 -0.15540750534E+03  0.41044860240E+03  0.45855045394E+03  0.12509082210E+03 0.  0.
        -24    2    1    2    0    0  0.22740707211E+02  0.93319509274E+02  0.46591115796E+03  0.48270620496E+03  0.81892628626E+02 0.  0.
        -11    1    3    3    0    0  0.20041628767E+01  0.59721012488E+02 -0.91850519611E+02  0.10957706856E+03  0.00000000000E+00 0.  1.
         12    1    3    3    0    0  0.19990542193E+02  0.23669835757E+01  0.10651065155E+02  0.22774318373E+02  0.00000000000E+00 0. -1.
         11    1    5    5    0    0  0.41243714708E+02  0.67878272075E+02  0.20406677245E+03  0.21897888355E+03  0.00000000000E+00 0. -1.
        -12    1    5    5    0    0 -0.18503007497E+02  0.25441237199E+02  0.26184438551E+03  0.26372732141E+03  0.00000000000E+00 0.  1.
          5    1    4    4  501    0 -0.95155214331E+01 -0.15433246836E+03  0.38492222246E+03  0.41483930104E+03  0.41800000000E+01 0.  1.
         -5    1    4    4    0  501 -0.35219890848E+02 -0.10750369771E+01  0.25526379933E+02  0.43711152906E+02  0.41800000000E+01 0.  1.
</event>
<event>
11    1  0.8041700E-009  0.1662927E+03  0.7561462E-02  0.1081304E+00
         22   -1    0    0    0    0  0.00000000000E+00  0.00000000000E+00  0.26176004410E+03  0.26176004410E+03  0.00000000000E+00 0. -1.
         22   -1    0    0    0    0 -0.00000000000E+00 -0.00000000000E+00 -0.72026312829E+03  0.72026312829E+03  0.00000000000E+00 0. -1.
        -24    2    1    2    0    0  0.32245671145E+01 -0.29802480732E+02 -0.53952564445E+03  0.54799375175E+03  0.91162740439E+02 0.  0.
         25    2    1    2    0    0  0.18018428705E+02  0.13372547026E+03 -0.10025266704E+03  0.20953448583E+03  0.12508772256E+03 0.  0.
         24    2    1    2    0    0 -0.21242995819E+02 -0.10392298953E+03  0.18127522729E+03  0.22449493481E+03  0.79284393804E+02 0.  0.
        -13    1    5    5    0    0 -0.11134291441E+02  0.66736102642E+00 -0.37048111909E+01  0.11753443861E+02  0.00000000000E+00 0.  1.
         14    1    5    5    0    0 -0.10108704379E+02 -0.10459035056E+03  0.18498003848E+03  0.21274149095E+03  0.00000000000E+00 0. -1.
         11    1    3    3    0    0  0.43899504745E+02 -0.22817014881E+02 -0.20276897617E+03  0.20871760918E+03  0.00000000000E+00 0. -1.
        -12    1    3    3    0    0 -0.40674937630E+02 -0.69854658511E+01 -0.33675666828E+03  0.33927614257E+03  0.00000000000E+00 0.  1.
          5    1    4    4  501    0 -0.31831094972E+02 -0.18507815022E-01 -0.47451572686E+02  0.57291736751E+02  0.41800000000E+01 0.  1.
         -5    1    4    4    0  501  0.49849523676E+02  0.13374397808E+03 -0.52801094350E+02  0.15224274908E+03  0.41800000000E+01 0.  1.
</event>
<event>
11    1  0.8041700E-009  0.1915533E+03  0.7561462E-02  0.1060663E+00
         22   -1    0    0    0    0  0.00000000000E+00  0.00000000000E+00  0.86313223521E+02  0.86313223521E+02  0.00000000000E+00 0. -1.
         22   -1    0    0    0    0 -0.00000000000E+00 -0.00000000000E+00 -0.14039002000E+04  0.14039002000E+04  0.00000000000E+00 0.  1.
         24    2    1    2    0    0 -0.47053019977E+02 -0.13809970473E+03 -0.10240181065E+04  0.10373230643E+04  0.78361611356E+02 0.  0.
         25    2    1    2    0    0  0.86997895962E+02  0.11860115408E+03 -0.30861752661E+03  0.36404343380E+03  0.12509187148E+03 0.  0.
        -24    2    1    2    0    0 -0.39944875985E+02  0.19498550642E+02  0.15048656601E+02  0.88846925463E+02  0.75442213012E+02 0.  0.
        -13    1    3    3    0    0 -0.45801367290E+02 -0.79265903412E+02 -0.81669901197E+03  0.82181392349E+03  0.00000000000E+00 0.  1.
         14    1    3    3    0    0 -0.12516526867E+01 -0.58833801314E+02 -0.20731909451E+03  0.21550914078E+03  0.00000000000E+00 0. -1.
         13    1    5    5    0    0  0.20018615296E+02  0.17253856709E+02  0.11245284693E+02  0.28721019438E+02  0.00000000000E+00 0. -1.
        -14    1    5    5    0    0 -0.59963491281E+02  0.22446939331E+01  0.38033719076E+01  0.60125906025E+02  0.00000000000E+00 0.  1.
          5    1    4    4  501    0 -0.30082489800E+02  0.37630693231E+02 -0.55494912910E+02  0.73608308121E+02  0.41800000000E+01 0. -1.
         -5    1    4    4    0  501  0.11708038576E+03  0.80970460853E+02 -0.25312261370E+03  0.29043512568E+03  0.41800000000E+01 0. -1.
</event>
<event>
11    1  0.8073179E-009  0.1648761E+03  0.7561462E-02  0.1082579E+00
         22   -1    0    0    0    0  0.00000000000E+00  0.00000000000E+00  0.80423667739E+03  0.80423667739E+03  0.00000000000E+00 0.  1.
         22   -1    0    0    0    0 -0.00000000000E+00 -0.00000000000E+00 -0.21653742728E+03  0.21653742728E+03  0.00000000000E+00 0.  1.
         24    2    1    2    0    0  0.11535861315E+02  0.41120133454E+02 -0.11080993891E+03  0.14356359837E+03  0.80670457681E+02 0.  0.
         25    2    1    2    0    0 -0.11118992257E+03 -0.76086644749E+02  0.19035573873E+02  0.18482962078E+03  0.12508900534E+03 0.  0.
        -24    2    1    2    0    0  0.99654061253E+02  0.34966511295E+02  0.67947361515E+03  0.69238088553E+03  0.80952505346E+02 0.  0.
        -11    1    3    3    0    0 -0.35131586015E+01  0.60617252343E+02 -0.99264123377E+02  0.11636219212E+03  0.00000000000E+00 0.  1.
         12    1    3    3    0    0  0.15049019916E+02 -0.19497118889E+02 -0.11545815536E+02  0.27201406247E+02  0.00000000000E+00 0. -1.
         13    1    5    5    0    0 -0.37056814971E+01  0.97320911829E+01  0.97728975974E+01  0.14281288513E+02  0.00000000000E+00 0. -1.
        -14    1    5    5    0    0  0.10335974275E+03  0.25234420112E+02  0.66970071755E+03  0.67809959701E+03  0.00000000000E+00 0.  1.
          5    1    4    4  501    0  0.18929541643E+02 -0.13024159773E+02 -0.24417219566E+02  0.33788005208E+02  0.41800000000E+01 0.  1.
         -5    1    4    4    0  501 -0.13011946421E+03 -0.63062484977E+02  0.43452793439E+02  0.15104161558E+03  0.41800000000E+01 0.  1.
</event>
<event>
11    1  0.8041700E-009  0.1706728E+03  0.7561462E-02  0.1077448E+00
         22   -1    0    0    0    0  0.00000000000E+00  0.00000000000E+00  0.82445160782E+03  0.82445160782E+03  0.00000000000E+00 0. -1.
         22   -1    0    0    0    0 -0.00000000000E+00 -0.00000000000E+00 -0.22419311252E+04  0.22419311252E+04  0.00000000000E+00 0. -1.
        -24    2    1    2    0    0  0.72769179951E+02 -0.89645769243E+02 -0.21664458486E+04  0.21709128279E+04  0.77737856534E+02 0.  0.
         25    2    1    2    0    0 -0.16682009399E+03  0.84067483476E+02  0.12086086265E+03  0.25524686056E+03  0.12508927279E+03 0.  0.
         24    2    1    2    0    0  0.94050914037E+02  0.55782857670E+01  0.62810546852E+03  0.64022304452E+03  0.80575278138E+02 0.  0.
        -13    1    5    5    0    0 -0.11696181623E+02 -0.10179205006E+02  0.51279088975E+02  0.53572024838E+02  0.00000000000E+00 0.  1.
         14    1    5    5    0    0  0.10574709566E+03  0.15757490773E+02  0.57682637954E+03  0.58665101968E+03  0.00000000000E+00 0. -1.
         13    1    3    3    0    0  0.48616438661E+02 -0.10090538562E+03 -0.16695454222E+04  0.16732983511E+04  0.00000000000E+00 0. -1.
        -14    1    3    3    0    0  0.24152741290E+02  0.11259616376E+02 -0.49690042637E+03  0.49761447688E+03  0.00000000000E+00 0.  1.
          5    1    4    4  501    0 -0.13895939694E+03  0.17085727691E+02  0.38192524322E+02  0.14518187698E+03  0.41800000000E+01 0.  1.
         -5    1    4    4    0  501 -0.27860697045E+02  0.66981755784E+02  0.82668338328E+02  0.11006498358E+03  0.41800000000E+01 0.  1.
</event>
<event>
11    1  0.8041700E-009  0.1257896E+03  0.7561462E-02  0.1124553E+00
         22   -1    0    0    0    0  0.00000000000E+00  0.00000000000E+00  0.77779177511E+02  0.77779177511E+02  0.00000000000E+00 0.  1.
         22   -1    0    0    0    0 -0.00000000000E+00 -0.00000000000E+00 -0.13242337077E+04  0.13242337077E+04  0.00000000000E+00 0.  1.
        -24    2    1    2    0    0  0.47729047127E+00 -0.31030519530E+02 -0.98596031355E+03  0.98924369727E+03  0.74311719989E+02 0.  0.
         25    2    1    2    0    0  0.80500131066E+00  0.41683771269E+02 -0.29498908324E+03  0.32311623620E+03  0.12508940025E+03 0.  0.
         24    2    1    2    0    0 -0.12822917819E+01 -0.10653251739E+02  0.34494866587E+02  0.89652951757E+02  0.82052543490E+02 0.  0.
        -11    1    5    5    0    0  0.28408085438E+02  0.13346309476E+02  0.40253412423E+02  0.51043907634E+02  0.00000000000E+00 0.  1.
         12    1    5    5    0    0 -0.29690377220E+02 -0.23999561215E+02 -0.57585458365E+01  0.38609044123E+02  0.00000000000E+00 0. -1.
         11    1    3    3    0    0 -0.51693171464E+01 -0.18746700954E+02 -0.57774717270E+02  0.60959647244E+02  0.00000000000E+00 0. -1.
        -12    1    3    3    0    0  0.56466076177E+01 -0.12283818576E+02 -0.92818559628E+03  0.92828405002E+03  0.00000000000E+00 0.  1.
          5    1    4    4  501    0 -0.34048229614E+01  0.84442602624E+02 -0.15460776202E+03  0.17624749200E+03  0.41800000000E+01 0.  1.
         -5    1    4    4    0  501  0.42098242720E+01 -0.42758831356E+02 -0.14038132121E+03  0.14686874421E+03  0.41800000000E+01 0.  1.
</event>
<event>
11    1  0.8041700E-009  0.2061256E+03  0.7561462E-02  0.1050274E+00
         22   -1    0    0    0    0  0.00000000000E+00  0.00000000000E+00  0.17512616985E+03  0.17512616985E+03  0.00000000000E+00 0.  1.
         22   -1    0    0    0    0 -0.00000000000E+00 -0.00000000000E+00 -0.29439180611E+04  0.29439180611E+04  0.00000000000E+00 0.  1.
        -24    2    1    2    0    0  0.14859439347E+02  0.61517177382E+02 -0.27088029072E+04  0.27107536026E+04  0.81035413789E+02 0.  0.
         25    2    1    2    0    0 -0.14449624291E+03 -0.11357133884E+03  0.28323092197E+02  0.22411515675E+03  0.12509113762E+03 0.  0.
         24    2    1    2    0    0  0.12963680357E+03  0.52054161457E+02 -0.88312076299E+02  0.18417547158E+03  0.81278809962E+02 0.  0.
        -11    1    5    5    0    0  0.82261946686E+02  0.13875530914E+02 -0.85569945360E+01  0.83861674120E+02  0.00000000000E+00 0.  1.
         12    1    5    5    0    0  0.47374856881E+02  0.38178630542E+02 -0.79755081763E+02  0.10031379746E+03  0.00000000000E+00 0. -1.
         11    1    3    3    0    0  0.20482230781E+02  0.32998927924E+02 -0.42629025767E+03  0.42805587814E+03  0.00000000000E+00 0. -1.
        -12    1    3    3    0    0 -0.56227914343E+01  0.28518249457E+02 -0.22825126495E+04  0.22826977245E+04  0.00000000000E+00 0.  1.
          5    1    4    4  501    0 -0.39205574166E+01 -0.67430912765E+01  0.45795297044E+02  0.46642487946E+02  0.41800000000E+01 0.  1.
         -5    1    4    4    0  501 -0.14057568550E+03 -0.10682824756E+03 -0.17472204847E+02  0.17747266880E+03  0.41800000000E+01 0.  1.
</event>
<event>
11    1  0.8041700E-009  0.1350130E+03  0.7561462E-02  0.1113259E+00
         22   -1    0    0    0    0  0.00000000000E+00  0.00000000000E+00  0.41211980459E+03  0.41211980459E+03  0.00000000000E+00 0.  1.
         22   -1    0    0    0    0 -0.00000000000E+00 -0.00000000000E+00 -0.17528774782E+03  0.17528774782E+03  0.00000000000E+00 0.  1.
         24    2    1    2    0    0  0.41777126242E+02  0.31822115208E+02 -0.85539232917E+02  0.12782296725E+03  0.79144016162E+02 0.  0.
         25    2    1    2    0    0 -0.58685583687E+02  0.10314344161E+02  0.16084034742E+02  0.13948709382E+03  0.12509024638E+03 0.  0.
        -24    2    1    2    0    0  0.16908457444E+02 -0.42136459369E+02  0.30628725495E+03  0.32009749135E+03  0.81173544212E+02 0.  0.
        -11    1    3    3    0    0  0.35193622472E+01  0.14795677123E+02 -0.84580045255E+02  0.85936499972E+02  0.00000000000E+00 0.  1.
         12    1    3    3    0    0  0.38257763995E+02  0.17026438085E+02 -0.95918766273E+00  0.41886467274E+02  0.00000000000E+00 0. -1.
         13    1    5    5    0    0 -0.62864554594E+00  0.14507243895E+02  0.92890521809E+01  0.17237801805E+02  0.00000000000E+00 0. -1.
        -14    1    5    5    0    0  0.17537102990E+02 -0.56643703264E+02  0.29699820277E+03  0.30285968954E+03  0.00000000000E+00 0.  1.
          5    1    4    4  501    0 -0.56743472504E+02 -0.20164749611E+02  0.60472507780E+02  0.85444926098E+02  0.41800000000E+01 0.  1.
         -5    1    4    4    0  501 -0.19421111822E+01  0.30479093773E+02 -0.44388473038E+02  0.54042167718E+02  0.41800000000E+01 0.  1.
</event>
<event>
11    1  0.8041700E-009  0.1373961E+03  0.7561462E-02  0.1110501E+00
         22   -1    0    0    0    0  0.00000000000E+00  0.00000000000E+00  0.21516605191E+03  0.21516605191E+03  0.00000000000E+00 0. -1.
         22   -1    0    0    0    0 -0.00000000000E+00 -0.00000000000E+00 -0.28069640610E+03  0.28069640610E+03  0.00000000000E+00 0. -1.
         24    2    1    2    0    0  0.50231985172E+02  0.24401238122E+02 -0.13714752687E+03  0.16879342945E+03  0.81012992443E+02 0.  0.
         25    2    1    2    0    0 -0.55439124669E+02 -0.21546773341E+02 -0.76527369978E+02  0.15825082965E+03  0.12509646975E+03 0.  0.
        -24    2    1    2    0    0  0.52071394962E+01 -0.28544647807E+01  0.14814454266E+03  0.16881819891E+03  0.80731137063E+02 0.  0.
        -13    1    3    3    0    0  0.27355916927E+02 -0.15768467559E+02 -0.94082209199E+01  0.32947008680E+02  0.00000000000E+00 0.  1.
         14    1    3    3    0    0  0.22876068245E+02  0.40169705681E+02 -0.12773930595E+03  0.13584642077E+03  0.00000000000E+00 0. -1.
         13    1    5    5    0    0  0.58576317198E+01  0.38796502099E+02  0.75024578728E+02  0.84665033147E+02  0.00000000000E+00 0. -1.
        -14    1    5    5    0    0 -0.65049222361E+00 -0.41650966879E+02  0.73119963933E+02  0.84153165761E+02  0.00000000000E+00 0.  1.
          5    1    4    4  501    0 -0.63984924441E+02 -0.64762102450E+02 -0.66663936594E+02  0.11291480555E+03  0.41800000000E+01 0.  1.
         -5    1    4    4    0  501  0.85457997720E+01  0.43215329109E+02 -0.98634333842E+01  0.45336024107E+02  0.41800000000E+01 0.  1.
</event>
<event>
11    1  0.8041700E-009  0.1384746E+03  0.7561462E-02  0.1109274E+00
         22   -1    0    0    0    0  0.00000000000E+00  0.00000000000E+00  0.40030401203E+03  0.40030401203E+03  0.00000000000E+00 0. -1.
         22   -1    0    0    0    0 -0.00000000000E+00 -0.00000000000E+00 -0.15510016001E+03  0.15510016001E+03  0.00000000000E+00 0.  1.
        -24    2    1    2    0    0 -0.89728202981E+01  0.16218384940E+02 -0.85582242668E+02  0.11746759069E+03  0.78299215119E+02 0.  0.
         25    2    1    2    0    0  0.37704480582E+02  0.37590510124E+02  0.59216212507E+02  0.14830078714E+03  0.12510751110E+03 0.  0.
         24    2    1    2    0    0 -0.28731660284E+02 -0.53808895063E+02  0.27156988219E+03  0.28963579421E+03  0.80111090904E+02 0.  0.
        -11    1    5    5    0    0  0.23335329365E+02 -0.55626131844E+00  0.98378982152E+02  0.10111019312E+03  0.00000000000E+00 0.  1.
         12    1    5    5    0    0 -0.52066989649E+02 -0.53252633745E+02  0.17319090004E+03  0.18852560109E+03  0.00000000000E+00 0. -1.
         11    1    3    3    0    0  0.31278836618E+02 -0.21966578743E+01 -0.16530169436E+02  0.35446261123E+02  0.00000000000E+00 0. -1.
        -12    1    3    3    0    0 -0.40251656916E+02  0.18415042814E+02 -0.69052073232E+02  0.82021329567E+02  0.00000000000E+00 0.  1.
          5    1    4    4  501    0  0.48020462467E+02  0.87434194723E+01 -0.27540144713E+02  0.56199147417E+02  0.41800000000E+01 0.  1.
         -5    1    4    4    0  501 -0.10315981885E+02  0.28847090651E+02  0.86756357220E+02  0.92101639722E+02  0.41800000000E+01 0.  1.
</event>
<event>
11    1  0.8041700E-009  0.1758026E+03  0.7561462E-02  0.1073090E+00
         22   -1    0    0    0    0  0.00000000000E+00  0.00000000000E+00  0.30894972141E+04  0.30894972141E+04  0.00000000000E+00 0. -1.
         22   -1    0    0    0    0 -0.00000000000E+00 -0.00000000000E+00 -0.11840212049E+03  0.11840212049E+03  0.00000000000E+00 0. -1.
         24    2    1    2    0    0  0.10034899760E+03 -0.58693033191E+02  0.20376704734E+02  0.14336188010E+03  0.81379512811E+02 0.  0.
         25    2    1    2    0    0 -0.13684372308E+03  0.34192237035E+02  0.10214497378E+03  0.21442872238E+03  0.12510302831E+03 0.  0.
        -24    2    1    2    0    0  0.36494725473E+02  0.24500796156E+02  0.28485734151E+04  0.28501087322E+04  0.82565910895E+02 0.  0.
        -11    1    3    3    0    0  0.36748723418E+02 -0.15021419453E+02  0.47204807548E+02  0.61679863577E+02  0.00000000000E+00 0.  1.
         12    1    3    3    0    0  0.63600274185E+02 -0.43671613738E+02 -0.26828102815E+02  0.81682016524E+02  0.00000000000E+00 0. -1.
         11    1    5    5    0    0  0.54318526470E+02  0.39206941413E+02  0.17297560622E+04  0.17310527783E+04  0.00000000000E+00 0. -1.
        -12    1    5    5    0    0 -0.17823800997E+02 -0.14706145257E+02  0.11188173529E+04  0.11190559538E+04  0.00000000000E+00 0.  1.
          5    1    4    4  501    0 -0.71575756431E+02 -0.41732749745E+02  0.71827779206E+02  0.10973337494E+03  0.41800000000E+01 0.  1.
         -5    1    4    4    0  501 -0.65267966645E+02  0.75924986780E+02  0.30317194576E+02  0.10469534744E+03  0.41800000000E+01 0.  1.
</event>
<event>
11    1  0.8041700E-009  0.2598951E+03  0.7561462E-02  0.1018756E+00
         22   -1    0    0    0    0  0.00000000000E+00  0.00000000000E+00  0.22433119365E+04  0.22433119365E+04  0.00000000000E+00 0. -1.
         22   -1    0    0    0    0 -0.00000000000E+00 -0.00000000000E+00 -0.20139476097E+03  0.20139476097E+03  0.00000000000E+00 0. -1.
        -24    2    1    2    0    0 -0.20904648725E+03  0.93624172959E+02 -0.13438814720E+02  0.24393604093E+03  0.82814677044E+02 0.  0.
         25    2    1    2    0    0  0.17157728201E+03 -0.15828027208E+03  0.17561399975E+03  0.31777076153E+03  0.12508625721E+03 0.  0.
         24    2    1    2    0    0  0.37469205235E+02  0.64656099121E+02  0.18797419905E+04  0.18829998950E+04  0.81696396698E+02 0.  0.
        -11    1    5    5    0    0 -0.72123585867E+01 -0.15829084341E+02  0.41826294124E+03  0.41862449288E+03  0.00000000000E+00 0.  1.
         12    1    5    5    0    0  0.44681563822E+02  0.80485183462E+02  0.14614790493E+04  0.14643754021E+04  0.00000000000E+00 0. -1.
         13    1    3    3    0    0 -0.13653298815E+03  0.99684410903E+02 -0.22755832723E+02  0.17057569157E+03  0.00000000000E+00 0. -1.
        -14    1    3    3    0    0 -0.72513499096E+02 -0.60602379443E+01  0.93170180028E+01  0.73360349370E+02  0.00000000000E+00 0.  1.
          5    1    4    4  501    0  0.18571934615E+03 -0.15675113993E+03  0.14315877216E+03  0.28208952807E+03  0.41800000000E+01 0. -1.
         -5    1    4    4    0  501 -0.14142064135E+02 -0.15291321510E+01  0.32455227590E+02  0.35681233458E+02  0.41800000000E+01 0. -1.
</event>
<event>
11    1  0.8041700E-009  0.2363516E+03  0.7561462E-02  0.1031432E+00
         22   -1    0    0    0    0  0.00000000000E+00  0.00000000000E+00  0.19625707685E+03  0.19625707685E+03  0.00000000000E+00 0. -1.
         22   -1    0    0    0    0 -0.00000000000E+00 -0.00000000000E+00 -0.27201205736E+04  0.27201205736E+04  0.00000000000E+00 0.  1.
         24    2    1    2    0    0 -0.44601710585E+02  0.13481919533E+02 -0.19923032425E+04  0.19944967261E+04  0.81079625991E+02 0.  0.
         25    2    1    2    0    0  0.94585967688E+02 -0.20534052298E+03 -0.63437961678E+03  0.68497856595E+03  0.12508757719E+03 0.  0.
        -24    2    1    2    0    0 -0.49984257103E+02  0.19185860345E+03  0.10281936253E+03  0.23690235836E+03  0.79011115741E+02 0.  0.
        -13    1    3    3    0    0 -0.65469041264E+02  0.24399281262E+02 -0.14497776239E+04  0.14514601886E+04  0.00000000000E+00 0.  1.
         14    1    3    3    0    0  0.20867330679E+02 -0.10917361729E+02 -0.54252561864E+03  0.54303653759E+03  0.00000000000E+00 0. -1.
         11    1    5    5    0    0 -0.98698974007E+01  0.98273463653E+02  0.91177482307E+02  0.13441882983E+03  0.00000000000E+00 0. -1.
        -12    1    5    5    0    0 -0.40114359702E+02  0.93585139794E+02  0.11641880220E+02  0.10248352853E+03  0.00000000000E+00 0.  1.
          5    1    4    4  501    0  0.65573432373E+02 -0.20971802668E+02 -0.13008593498E+03  0.14723964962E+03  0.41800000000E+01 0.  1.
         -5    1    4    4    0  501  0.29012535314E+02 -0.18436872031E+03 -0.50429368180E+03  0.53773891633E+03  0.41800000000E+01 0.  1.
</event>
<event>
11    1  0.8041700E-009  0.1589525E+03  0.7561462E-02  0.1088067E+00
         22   -1    0    0    0    0  0.00000000000E+00  0.00000000000E+00  0.12705104153E+04  0.12705104153E+04  0.00000000000E+00 0. -1.
         22   -1    0    0    0    0 -0.00000000000E+00 -0.00000000000E+00 -0.99591251196E+03  0.99591251196E+03  0.00000000000E+00 0.  1.
        -24    2    1    2    0    0 -0.78419881127E+02 -0.57830833791E+02 -0.94409907116E+03  0.95251372637E+03  0.80406838492E+02 0.  0.
         25    2    1    2    0    0  0.15774231293E+03  0.91060576187E+01  0.18813699160E+03  0.27569708193E+03  0.12509114998E+03 0.  0.
         24    2    1    2    0    0 -0.79322431805E+02  0.48724776173E+02  0.10305599829E+04  0.10382121190E+04  0.84642622743E+02 0.  0.
        -13    1    5    5    0    0 -0.10984298220E+02 -0.91151242063E+01  0.25916305412E+02  0.29587077971E+02  0.00000000000E+00 0.  1.
         14    1    5    5    0    0 -0.68338133585E+02  0.57839900379E+02  0.10046436775E+04  0.10086250410E+04  0.00000000000E+00 0. -1.
         11    1    3    3    0    0  0.56729398734E+01 -0.25895573817E+02 -0.93931843328E+02  0.97600994776E+02  0.00000000000E+00 0. -1.
        -12    1    3    3    0    0 -0.84092821000E+02 -0.31935259975E+02 -0.85016722783E+03  0.85491273160E+03  0.00000000000E+00 0.  1.
          5    1    4    4  501    0  0.60900480950E+02  0.56179977673E+02  0.38914920633E+02  0.91634610923E+02  0.41800000000E+01 0.  1.
         -5    1    4    4    0  501  0.96841831982E+02 -0.47073920054E+02  0.14922207097E+03  0.18406247101E+03  0.41800000000E+01 0.  1.
</event>
<event>
11    1  0.8041700E-009  0.2021288E+03  0.7561462E-02  0.1053028E+00
         22   -1    0    0    0    0  0.00000000000E+00  0.00000000000E+00  0.11749286170E+04  0.11749286170E+04  0.00000000000E+00 0. -1.
         22   -1    0    0    0    0 -0.00000000000E+00 -0.00000000000E+00 -0.19782397966E+04  0.19782397966E+04  0.00000000000E+00 0.  1.
        -24    2    1    2    0    0  0.32205077184E+02 -0.67567069089E+02 -0.18066838050E+04  0.18100229015E+04  0.80461524694E+02 0.  0.
         25    2    1    2    0    0 -0.17032772046E+03 -0.11139806456E+02 -0.93876575674E+02  0.23150693209E+03  0.12508805099E+03 0.  0.
         24    2    1    2    0    0  0.13812264327E+03  0.78706875546E+02  0.10972492010E+04  0.11116385800E+04  0.80696261073E+02 0.  0.
        -13    1    5    5    0    0  0.39099851906E+02  0.64946750305E+02  0.38340791358E+03  0.39083053487E+03  0.00000000000E+00 0.  1.
         14    1    5    5    0    0  0.99022791368E+02  0.13760125241E+02  0.71384128743E+03  0.72080804512E+03  0.00000000000E+00 0. -1.
         11    1    3    3    0    0  0.13824830391E+02 -0.10767279529E+02 -0.12543004687E+04  0.12544228657E+04  0.00000000000E+00 0. -1.
        -12    1    3    3    0    0  0.18380246793E+02 -0.56799789560E+02 -0.55238333627E+03  0.55560003578E+03  0.00000000000E+00 0.  1.
          5    1    4    4  501    0 -0.15054467409E+03 -0.92283167456E+01 -0.16821236494E+02  0.15181991676E+03  0.41800000000E+01 0.  1.
         -5    1    4    4    0  501 -0.19783046369E+02 -0.19114897108E+01 -0.77055339180E+02  0.79687015333E+02  0.41800000000E+01 0.  1.
</event>
<event>
11    1  0.8041700E-009  0.1475542E+03  0.7561462E-02  0.1099404E+00
         22   -1    0    0    0    0  0.00000000000E+00  0.00000000000E+00  0.18064743901E+03  0.18064743901E+03  0.00000000000E+00 0. -1.
         22   -1    0    0    0    0 -0.00000000000E+00 -0.00000000000E+00 -0.14390767755E+04  0.14390767755E+04  0.00000000000E+00 0.  1.
        -24    2    1    2    0    0  0.12145875973E+02 -0.52766526806E+02 -0.41932965451E+03  0.43053337836E+03  0.81177595889E+02 0.  0.
         25    2    1    2    0    0 -0.38763543278E+01  0.10845744790E+03 -0.99315829840E+03  0.10068706555E+04  0.12508823694E+03 0.  0.
         24    2    1    2    0    0 -0.82695216449E+01 -0.55690921094E+02  0.15405861645E+03  0.18232018066E+03  0.79603563322E+02 0.  0.
        -13    1    5    5    0    0 -0.20114429783E+02  0.98130335388E+01  0.78470242858E+02  0.81599417442E+02  0.00000000000E+00 0.  1.
         14    1    5    5    0    0  0.11844908138E+02 -0.65503954633E+02  0.75588373593E+02  0.10072076322E+03  0.00000000000E+00 0. -1.
         13    1    3    3    0    0 -0.12913520502E+02  0.14391139975E+02 -0.39257622245E+02  0.43760996628E+02  0.00000000000E+00 0. -1.
        -14    1    3    3    0    0  0.25059396474E+02 -0.67157666781E+02 -0.38007203226E+03  0.38677238173E+03  0.00000000000E+00 0.  1.
          5    1    4    4  501    0 -0.14890974419E+02 -0.15200350639E+01 -0.54651106199E+03  0.54673198635E+03  0.41800000000E+01 0. -1.
         -5    1    4    4    0  501  0.11014620091E+02  0.10997748296E+03 -0.44664723641E+03  0.46013866911E+03  0.41800000000E+01 0. -1.
</event>
<event>
11    1  0.8041700E-009  0.1501660E+03  0.7561462E-02  0.1096709E+00
         22   -1    0    0    0    0  0.00000000000E+00  0.00000000000E+00  0.16795806023E+03  0.16795806023E+03  0.00000000000E+00 0.  1.
         22   -1    0    0    0    0 -0.00000000000E+00 -0.00000000000E+00 -0.14552150892E+04  0.14552150892E+04  0.00000000000E+00 0. -1.
         24    2    1    2    0    0  0.36138509241E+02  0.76196431686E+02 -0.13617569994E+04  0.13668134390E+04  0.81761624963E+02 0.  0.
         25    2    1    2    0    0 -0.29432881996E+00 -0.56940088498E+02 -0.10900923998E+02  0.13787023042E+03  0.12508840867E+03 0.  0.
        -24    2    1    2    0    0 -0.35844180421E+02 -0.19256343188E+02  0.85400894519E+02  0.11848948002E+03  0.71350067043E+02 0.  0.
        -13    1    3    3    0    0 -0.16500688890E+02 -0.70703218190E+01 -0.28257908872E+03  0.28314873047E+03  0.00000000000E+00 0.  1.
         14    1    3    3    0    0  0.52639198131E+02  0.83266753505E+02 -0.10791779107E+04  0.10836647085E+04  0.00000000000E+00 0. -1.
         11    1    5    5    0    0 -0.48279277400E+01 -0.42792954116E+02  0.41430834415E+02  0.59758345430E+02  0.00000000000E+00 0. -1.
        -12    1    5    5    0    0 -0.31016252681E+02  0.23536610928E+02  0.43970060104E+02  0.58731134587E+02  0.00000000000E+00 0.  1.
          5    1    4    4  501    0 -0.21271833099E+02  0.21726326658E+02 -0.40784670453E+02  0.51042980883E+02  0.41800000000E+01 0. -1.
         -5    1    4    4    0  501  0.20977504279E+02 -0.78666415156E+02  0.29883746456E+02  0.86827249533E+02  0.41800000000E+01 0. -1.
</event>
<event>
11    1  0.8041700E-009  0.1583960E+03  0.7561462E-02  0.1088596E+00
         22   -1    0    0    0    0  0.00000000000E+00  0.00000000000E+00  0.91955265907E+02  0.91955265907E+02  0.00000000000E+00 0.  1.
         22   -1    0    0    0    0 -0.00000000000E+00 -0.00000000000E+00 -0.78015787304E+03  0.78015787304E+03  0.00000000000E+00 0.  1.
         24    2    1    2    0    0 -0.16730590859E+02 -0.92637674094E+01 -0.29280284137E+03  0.30350072682E+03  0.77546484180E+02 0.  0.
         25    2    1    2    0    0  0.74077334438E+02  0.85212389566E+02 -0.41002893626E+03  0.44330361752E+03  0.12508303613E+03 0.  0.
        -24    2    1    2    0    0 -0.57346743579E+02 -0.75948622157E+02  0.14629170496E+02  0.12530879460E+03  0.80196254082E+02 0.  0.
        -11    1    3    3    0    0  0.10905627258E+02  0.53512409881E+01 -0.25103518128E+03  0.25132892934E+03  0.00000000000E+00 0.  1.
         12    1    3    3    0    0 -0.27636218117E+02 -0.14615008397E+02 -0.41767660093E+02  0.52171797476E+02  0.00000000000E+00 0. -1.
         13    1    5    5    0    0  0.14317009374E+02  0.17136433347E+01  0.13314168363E+02  0.19626013606E+02  0.00000000000E+00 0. -1.
        -14    1    5    5    0    0 -0.71663752953E+02 -0.77662265491E+02  0.13150021337E+01  0.10568278100E+03  0.00000000000E+00 0.  1.
          5    1    4    4  501    0  0.61874871172E+02 -0.17659066646E+02 -0.17127682011E+03  0.18301246904E+03  0.41800000000E+01 0. -1.
         -5    1    4    4    0  501  0.12202463266E+02  0.10287145621E+03 -0.23875211615E+03  0.26029114848E+03  0.41800000000E+01 0. -1.
</event>
<event>
11    1  0.8041700E-009  0.1366130E+03  0.7561462E-02  0.1111401E+00
         22   -1    0    0    0    0  0.00000000000E+00  0.00000000000E+00  0.55725024593E+03  0.55725024593E+03  0.00000000000E+00 0.  1.
         22   -1    0    0    0    0 -0.00000000000E+00 -0.00000000000E+00 -0.30284980582E+03  0.30284980582E+03  0.00000000000E+00 0. -1.
        -24    2    1    2    0    0 -0.19464332819E+02 -0.36107189482E+02 -0.24102455162E+03  0.25751385022E+03  0.80857647700E+02 0.  0.
         25    2    1    2    0    0  0.33316737066E+02 -0.21108798085E+02  0.46148686833E+02  0.13903767098E+03  0.12508471661E+03 0.  0.
         24    2    1    2    0    0 -0.13852404247E+02  0.57215987567E+02  0.44927630489E+03  0.46354853054E+03  0.97787952678E+02 0.  0.
        -13    1    5    5    0    0 -0.15869881087E+02 -0.15057075289E+02  0.26023186760E+03  0.26114975312E+03  0.00000000000E+00 0.  1.
         14    1    5    5    0    0  0.20174768395E+01  0.72273062856E+02  0.18904443730E+03  0.20239877742E+03  0.00000000000E+00 0. -1.
         11    1    3    3    0    0  0.89720618361E+01 -0.93230424709E+01 -0.20159470238E+03  0.20200950731E+03  0.00000000000E+00 0. -1.
        -12    1    3    3    0    0 -0.28436394655E+02 -0.26784147011E+02 -0.39429849237E+02  0.55504342919E+02  0.00000000000E+00 0.  1.
          5    1    4    4  501    0  0.60142525281E+01 -0.13285734499E+02  0.87440824579E+02  0.88747124898E+02  0.41800000000E+01 0.  1.
         -5    1    4    4    0  501  0.27302484538E+02 -0.78230635861E+01 -0.41292137746E+02  0.50290546084E+02  0.41800000000E+01 0.  1.
</event>
<event>
11    1  0.8041700E-009  0.1967124E+03  0.7561462E-02  0.1056873E+00
         22   -1    0    0    0    0  0.00000000000E+00  0.00000000000E+00  0.22328632144E+04  0.22328632144E+04  0.00000000000E+00 0. -1.
         22   -1    0    0    0    0 -0.00000000000E+00 -0.00000000000E+00 -0.62326410577E+02  0.62326410577E+02  0.00000000000E+00 0.  1.
         24    2    1    2    0    0 -0.49933870680E+02  0.93746843190E+02  0.14928468875E+03  0.19984237637E+03  0.79807236813E+02 0.  0.
         25    2    1    2    0    0 -0.45813300686E+02 -0.20503116698E+03  0.42497238239E+03  0.49029078044E+03  0.12508751195E+03 0.  0.
        -24    2    1    2    0    0  0.95747171366E+02  0.11128432379E+03  0.15962797327E+04  0.16050564681E+04  0.80904631951E+02 0.  0.
        -13    1    3    3    0    0 -0.32815898757E+02  0.62234942109E+02  0.32174477563E+02  0.77364515360E+02  0.00000000000E+00 0.  1.
         14    1    3    3    0    0 -0.17117971923E+02  0.31511901081E+02  0.11711021119E+03  0.12247786101E+03  0.00000000000E+00 0. -1.
         11    1    5    5    0    0  0.70157653837E+02  0.11679780209E+03  0.14555422903E+04  0.14619053258E+04  0.00000000000E+00 0. -1.
        -12    1    5    5    0    0  0.25589517529E+02 -0.55134783010E+01  0.14073744239E+03  0.14315114230E+03  0.00000000000E+00 0.  1.
          5    1    4    4  501    0 -0.12559716271E+02 -0.62470599288E+02  0.26844969802E+03  0.27594027437E+03  0.41800000000E+01 0. -1.
         -5    1    4    4    0  501 -0.33253584415E+02 -0.14256056769E+03  0.15652268436E+03  0.21435050608E+03  0.41800000000E+01 0. -1.
</event>
<event>
11    1  0.8041700E-009  0.1439059E+03  0.7561462E-02  0.1103274E+00
         22   -1    0    0    0    0  0.00000000000E+00  0.00000000000E+00  0.50382418414E+03  0.50382418414E+03  0.00000000000E+00 0.  1.
         22   -1    0    0    0    0 -0.00000000000E+00 -0.00000000000E+00 -0.81460632484E+03  0.81460632484E+03  0.00000000000E+00 0.  1.
         24    2    1    2    0    0 -0.96599302036E+01  0.27229054777E+02 -0.76020616259E+03  0.76485340342E+03  0.79073278682E+02 0.  0.
         25    2    1    2    0    0 -0.47348467837E+02  0.21083789714E+02  0.58371709912E+02  0.14744907346E+03  0.12509024402E+03 0.  0.
        -24    2    1    2    0    0  0.57008398041E+02 -0.48312844491E+02  0.39105231198E+03  0.40612803210E+03  0.80212089888E+02 0.  0.
        -11    1    3    3    0    0  0.33622340033E+02  0.38093690315E+01 -0.37319900717E+03  0.37472986536E+03  0.00000000000E+00 0.  1.
         12    1    3    3    0    0 -0.43282270237E+02  0.23419685746E+02 -0.38700715543E+03  0.39012353806E+03  0.00000000000E+00 0. -1.
         11    1    5    5    0    0  0.54200353000E+02 -0.39156803451E+02  0.14267487485E+03  0.15756602881E+03  0.00000000000E+00 0. -1.
        -12    1    5    5    0    0  0.28080450406E+01 -0.91560410401E+01  0.24837743713E+03  0.24856200329E+03  0.00000000000E+00 0.  1.
          5    1    4    4  501    0  0.10675616063E+02 -0.43027405708E+02  0.28837520569E+01  0.44621909935E+02  0.41800000000E+01 0.  1.
         -5    1    4    4    0  501 -0.58024083900E+02  0.64111195422E+02  0.55487957855E+02  0.10282716352E+03  0.41800000000E+01 0.  1.
</event>
<event>
11    1  0.8041700E-009  0.3464079E+03  0.7561462E-02  0.9822628E-01
         22   -1    0    0    0    0  0.00000000000E+00  0.00000000000E+00  0.79935038232E+03  0.79935038232E+03  0.00000000000E+00 0. -1.
         22   -1    0    0    0    0 -0.00000000000E+00 -0.00000000000E+00 -0.13096348337E+04  0.13096348337E+04  0.00000000000E+00 0.  1.
        -24    2    1    2    0    0  0.31204790522E+02 -0.34608605300E+02 -0.73367157192E+03  0.73902200378E+03  0.75551651909E+02 0.  0.
         25    2    1    2    0    0 -0.75041649976E+02  0.35211190575E+03 -0.46809189838E+03  0.60363061332E+03  0.12508336663E+03 0.  0.
         24    2    1    2    0    0  0.43836859454E+02 -0.31750330045E+03  0.69147901891E+03  0.76633259894E+03  0.79952501911E+02 0.  0.
        -13    1    5    5    0    0  0.43665702137E+02 -0.18560223116E+03  0.32452398355E+03  0.37639168117E+03  0.00000000000E+00 0.  1.
         14    1    5    5    0    0  0.17115731659E+00 -0.13190106928E+03  0.36695503536E+03  0.38994091777E+03  0.00000000000E+00 0. -1.
         11    1    3    3    0    0 -0.16478933973E+02  0.18800565362E+01 -0.49168625806E+02  0.51890689349E+02  0.00000000000E+00 0. -1.
        -12    1    3    3    0    0  0.47683724495E+02 -0.36488661836E+02 -0.68450294612E+03  0.68713131443E+03  0.00000000000E+00 0.  1.
          5    1    4    4  501    0 -0.86934371008E+02  0.31733550276E+03 -0.46031251375E+03  0.56583079528E+03  0.41800000000E+01 0. -1.
         -5    1    4    4    0  501  0.11892721032E+02  0.34776402992E+02 -0.77793846279E+01  0.37799818039E+02  0.41800000000E+01 0. -1.
</event>
<event>
11    1  0.8041700E-009  0.1268561E+03  0.7561462E-02  0.1123193E+00
         22   -1    0    0    0    0  0.00000000000E+00  0.00000000000E+00  0.95597449577E+03  0.95597449577E+03  0.00000000000E+00 0. -1.
         22   -1    0    0    0    0 -0.00000000000E+00 -0.00000000000E+00 -0.58148785581E+02  0.58148785581E+02  0.00000000000E+00 0.  1.
        -24    2    1    2    0    0  0.13966817834E+02  0.55143566258E+01  0.28413308621E+02  0.86211949243E+02  0.79998149705E+02 0.  0.
         25    2    1    2    0    0 -0.36134366428E+02 -0.11634767292E+02  0.13096358494E+03  0.18503851018E+03  0.12508688749E+03 0.  0.
         24    2    1    2    0    0  0.22167548594E+02  0.61204106667E+01  0.73844881663E+03  0.74287282193E+03  0.77617750152E+02 0.  0.
        -13    1    5    5    0    0 -0.11752705591E+02  0.21624606043E+02  0.88607714187E+02  0.91962365610E+02  0.00000000000E+00 0.  1.
         14    1    5    5    0    0  0.33920254185E+02 -0.15504195377E+02  0.64984110244E+03  0.65091045632E+03  0.00000000000E+00 0. -1.
         11    1    3    3    0    0  0.12526493364E+02 -0.17373233654E+02  0.50201144528E+02  0.54579274413E+02  0.00000000000E+00 0. -1.
        -12    1    3    3    0    0  0.14403244700E+01  0.22887590280E+02 -0.21787835907E+02  0.31632674830E+02  0.00000000000E+00 0.  1.
          5    1    4    4  501    0 -0.76596042449E+02 -0.26828031604E+01  0.43651791028E+02  0.88301202775E+02  0.41800000000E+01 0. -1.
         -5    1    4    4    0  501  0.40461676021E+02 -0.89519641320E+01  0.87311793911E+02  0.96737307406E+02  0.41800000000E+01 0. -1.
</event>
<event>
11    1  0.8041700E-009  0.1297618E+03  0.7561462E-02  0.1119562E+00
         22   -1    0    0    0    0  0.00000000000E+00  0.00000000000E+00  0.90449509844E+03  0.90449509844E+03  0.00000000000E+00 0.  1.
         22   -1    0    0    0    0 -0.00000000000E+00 -0.00000000000E+00 -0.36132624279E+03  0.36132624279E+03  0.00000000000E+00 0. -1.
         24    2    1    2    0    0  0.10961818090E+02  0.32191567971E+02 -0.32814973490E+03  0.33992986514E+03  0.81936598591E+02 0.  0.
         25    2    1    2    0    0 -0.24157016974E+02 -0.44991620141E+02  0.15784345206E+03  0.20777139382E+03  0.12508632771E+03 0.  0.
        -24    2    1    2    0    0  0.13195198883E+02  0.12800052170E+02  0.71347513850E+03  0.71812008228E+03  0.79446363729E+02 0.  0.
        -11    1    3    3    0    0 -0.23250690034E+01  0.31852358032E+02 -0.38705463129E+02  0.50180589216E+02  0.00000000000E+00 0.  1.
         12    1    3    3    0    0  0.13286887094E+02  0.33920993936E+00 -0.28944427178E+03  0.28974927592E+03  0.00000000000E+00 0. -1.
         13    1    5    5    0    0 -0.26647622520E+02 -0.14497721561E+02  0.18820400505E+03  0.19063322699E+03  0.00000000000E+00 0. -1.
        -14    1    5    5    0    0  0.39842821403E+02  0.27297773731E+02  0.52527113345E+03  0.52748685529E+03  0.00000000000E+00 0.  1.
          5    1    4    4  501    0  0.41638786602E+02 -0.63143503650E+01  0.10933956971E+03  0.11724450296E+03  0.41800000000E+01 0.  1.
         -5    1    4    4    0  501 -0.65795803576E+02 -0.38677269776E+02  0.48503882351E+02  0.90526890859E+02  0.41800000000E+01 0.  1.
</event>
<event>
11    1  0.8041700E-009  0.2241875E+03  0.7561462E-02  0.1038626E+00
         22   -1    0    0    0    0  0.00000000000E+00  0.00000000000E+00  0.75636396986E+03  0.75636396986E+03  0.00000000000E+00 0.  1.
         22   -1    0    0    0    0 -0.00000000000E+00 -0.00000000000E+00 -0.45034983158E+03  0.45034983158E+03  0.00000000000E+00 0.  1.
         24    2    1    2    0    0  0.16808929226E+03 -0.59835206572E+02 -0.28618322298E+03  0.34689912555E+03  0.81264408397E+02 0.  0.
         25    2    1    2    0    0 -0.19462457490E+03  0.97522218439E+02 -0.93311478691E+01  0.25124098089E+03  0.12508258037E+03 0.  0.
        -24    2    1    2    0    0  0.26535282637E+02 -0.37687011866E+02  0.60152850913E+03  0.60857369500E+03  0.80006017698E+02 0.  0.
        -13    1    3    3    0    0  0.98252959291E+02  0.77128470378E+01 -0.15435529334E+03  0.18313571089E+03  0.00000000000E+00 0.  1.
         14    1    3    3    0    0  0.69836332971E+02 -0.67548053610E+02 -0.13182792964E+03  0.16376341466E+03  0.00000000000E+00 0. -1.
         11    1    5    5    0    0  0.32613006455E+02  0.17025869101E+02  0.21079467929E+03  0.21398103940E+03  0.00000000000E+00 0. -1.
        -12    1    5    5    0    0 -0.60777238179E+01 -0.54712880968E+02  0.39073382984E+03  0.39459265560E+03  0.00000000000E+00 0.  1.
          5    1    4    4  501    0 -0.20410661652E+03  0.89868413436E+02 -0.31830768815E+02  0.22531425362E+03  0.41800000000E+01 0.  1.
         -5    1    4    4    0  501  0.94820416179E+01  0.76538050024E+01  0.22499620946E+02  0.25926727271E+02  0.41800000000E+01 0.  1.
</event>
<event>
11    1  0.8041700E-009  0.1793396E+03  0.7561462E-02  0.1070178E+00
         22   -1    0    0    0    0  0.00000000000E+00  0.00000000000E+00  0.16276909972E+03  0.16276909972E+03  0.00000000000E+00 0. -1.
         22   -1    0    0    0    0 -0.00000000000E+00 -0.00000000000E+00 -0.12105329170E+04  0.12105329170E+04  0.00000000000E+00 0. -1.
         24    2    1    2    0    0 -0.13239497425E+03 -0.17598117621E+02 -0.10536794575E+04  0.10652463966E+04  0.81678413767E+02 0.  0.
         25    2    1    2    0    0  0.88069899577E+02 -0.46510491273E+02 -0.68295936168E+02  0.17387050360E+03  0.12508830526E+03 0.  0.
        -24    2    1    2    0    0  0.44325074676E+02  0.64108608893E+02  0.74211576375E+02  0.13418511657E+03  0.80147747708E+02 0.  0.
        -11    1    3    3    0    0 -0.23571849160E+02  0.12404347679E+02 -0.66536629489E+02  0.71670237741E+02  0.00000000000E+00 0.  1.
         12    1    3    3    0    0 -0.10882312509E+03 -0.30002465300E+02 -0.98714282803E+03  0.99357615884E+03  0.00000000000E+00 0. -1.
         13    1    5    5    0    0 -0.86654447271E+01  0.33836616171E+02  0.63145670195E+02  0.72162193638E+02  0.00000000000E+00 0. -1.
        -14    1    5    5    0    0  0.52990519403E+02  0.30271992722E+02  0.11065906180E+02  0.62022922937E+02  0.00000000000E+00 0.  1.
          5    1    4    4  501    0 -0.44339065253E+01  0.23131202709E+02  0.17551346877E+02  0.29668741852E+02  0.41800000000E+01 0. -1.
         -5    1    4    4    0  501  0.92503806102E+02 -0.69641693982E+02 -0.85847283046E+02  0.14420176175E+03  0.41800000000E+01 0. -1.
</event>
<event>
11    1  0.8041700E-009  0.1291822E+03  0.7561462E-02  0.1120278E+00
         22   -1    0    0    0    0  0.00000000000E+00  0.00000000000E+00  0.45348195050E+03  0.45348195050E+03  0.00000000000E+00 0. -1.
         22   -1    0    0    0    0 -0.00000000000E+00 -0.00000000000E+00 -0.24695866104E+03  0.24695866104E+03  0.00000000000E+00 0.  1.
         24    2    1    2    0    0  0.38162831210E+01 -0.10176274879E+02 -0.12188184922E+03  0.14655008214E+03  0.80645029724E+02 0.  0.
         25    2    1    2    0    0  0.27886670031E+02  0.30166443561E+01 -0.70242636685E+02  0.14617757994E+03  0.12508833023E+03 0.  0.
        -24    2    1    2    0    0 -0.31702953152E+02  0.71596305228E+01  0.39864777537E+03  0.40771294946E+03  0.79078839172E+02 0.  0.
        -11    1    3    3    0    0 -0.18865823337E+01 -0.16443758172E+02 -0.13218087776E+03  0.13321314058E+03  0.00000000000E+00 0.  1.
         12    1    3    3    0    0  0.57028654547E+01  0.62674832935E+01  0.10299028547E+02  0.13336941563E+02  0.00000000000E+00 0. -1.
         13    1    5    5    0    0 -0.28310442433E+02 -0.19454414982E+02  0.35371975329E+03  0.35538376339E+03  0.00000000000E+00 0. -1.
        -14    1    5    5    0    0 -0.33925107187E+01  0.26614045505E+02  0.44928022076E+02  0.52329186070E+02  0.00000000000E+00 0.  1.
          5    1    4    4  501    0  0.30264448559E+02 -0.50943184207E+01 -0.10535888228E+03  0.10981737295E+03  0.41800000000E+01 0.  1.
         -5    1    4    4    0  501 -0.23777785280E+01  0.81109627768E+01  0.35116245593E+02  0.36360206991E+02  0.41800000000E+01 0.  1.
</event>
<event>
11    1  0.8041700E-009  0.1305787E+03  0.7561462E-02  0.1118560E+00
         22   -1    0    0    0    0  0.00000000000E+00  0.00000000000E+00  0.17030344048E+04  0.17030344048E+04  0.00000000000E+00 0.  1.
         22   -1    0    0    0    0 -0.00000000000E+00 -0.00000000000E+00 -0.21868144201E+03  0.21868144201E+03  0.00000000000E+00 0.  1.
        -24    2    1    2    0    0 -0.51420430448E+01  0.36949388781E+02 -0.20121533943E+03  0.21972472267E+03  0.79997768673E+02 0.  0.
         25    2    1    2    0    0  0.28238564379E+02 -0.46783706918E+02  0.66890217750E+03  0.68268750116E+03  0.12508384956E+03 0.  0.
         24    2    1    2    0    0 -0.23096521335E+02  0.98343181376E+01  0.10166661247E+04  0.10193036230E+04  0.68845505214E+02 0.  0.
        -11    1    5    5    0    0 -0.36981960302E+02 -0.28411183962E+01  0.92427832942E+03  0.92502225248E+03  0.00000000000E+00 0.  1.
         12    1    5    5    0    0  0.13885438967E+02  0.12675436534E+02  0.92387795319E+02  0.94281370538E+02  0.00000000000E+00 0. -1.
         13    1    3    3    0    0  0.61684062446E+01  0.50477611222E+01  0.58653910139E+01  0.98960567748E+01  0.00000000000E+00 0. -1.
        -14    1    3    3    0    0 -0.11310449289E+02  0.31901627658E+02 -0.20708073044E+03  0.20982866589E+03  0.00000000000E+00 0.  1.
          5    1    4    4  501    0  0.11811796277E+02 -0.51463166801E+02  0.97032358310E+02  0.11054739720E+03  0.41800000000E+01 0. -1.
         -5    1    4    4    0  501  0.16426768103E+02  0.46794598832E+01  0.57186981919E+03  0.57214010396E+03  0.41800000000E+01 0. -1.
</event>
<event>
11    1  0.8041700E-009  0.1546983E+03  0.7561462E-02  0.1092172E+00
         22   -1    0    0    0    0  0.00000000000E+00  0.00000000000E+00  0.13604846303E+03  0.13604846303E+03  0.00000000000E+00 0.  1.
         22   -1    0    0    0    0 -0.00000000000E+00 -0.00000000000E+00 -0.32810140105E+04  0.32810140105E+04  0.00000000000E+00 0.  1.
        -24    2    1    2    0    0  0.47062106734E+02  0.78124742109E+02 -0.29930007056E+04  0.29954736340E+04  0.80565198394E+02 0.  0.
         25    2    1    2    0    0 -0.53588373165E+02 -0.70184365798E+02 -0.25118110275E+03  0.29417091593E+03  0.12508805882E+03 0.  0.
         24    2    1    2    0    0  0.65262664308E+01 -0.79403763110E+01  0.99216260886E+02  0.12741792356E+03  0.79283157678E+02 0.  0.
        -13    1    5    5    0    0 -0.17022363208E+02 -0.35313586765E+02  0.72779601653E+02  0.82666079357E+02  0.00000000000E+00 0.  1.
         14    1    5    5    0    0  0.23548629639E+02  0.27373210454E+02  0.26436659233E+02  0.44751844206E+02  0.00000000000E+00 0. -1.
         13    1    3    3    0    0 -0.11063143066E+02  0.55079223422E+02 -0.10910494571E+04  0.10924948658E+04  0.00000000000E+00 0. -1.
        -14    1    3    3    0    0  0.58125249800E+02  0.23045518687E+02 -0.19019512485E+04  0.19029787682E+04  0.00000000000E+00 0.  1.
          5    1    4    4  501    0  0.28195666403E+02  0.15687072722E+02 -0.75042414296E+02  0.81791907899E+02  0.41800000000E+01 0. -1.
         -5    1    4    4    0  501 -0.81784039567E+02 -0.85871438520E+02 -0.17613868845E+03  0.21237900803E+03  0.41800000000E+01 0. -1.
</event>
<event>
11    1  0.8041700E-009  0.1690253E+03  0.7561462E-02  0.1078883E+00
         22   -1    0    0    0    0  0.00000000000E+00  0.00000000000E+00  0.16321967738E+04  0.16321967738E+04  0.00000000000E+00 0.  1.
         22   -1    0    0    0    0 -0.00000000000E+00 -0.00000000000E+00 -0.34163397491E+03  0.34163397491E+03  0.00000000000E+00 0.  1.
        -24    2    1    2    0    0  0.11042171860E+03 -0.25249548251E+02 -0.30572205242E+03  0.33635610684E+03  0.82698014809E+02 0.  0.
         25    2    1    2    0    0 -0.12440342109E+03  0.13982961995E+02  0.38862896752E+03  0.42702655850E+03  0.12508985914E+03 0.  0.
         24    2    1    2    0    0  0.13981702496E+02  0.11266586256E+02  0.12076558838E+04  0.12104480834E+04  0.80183569975E+02 0.  0.
        -13    1    5    5    0    0  0.62963315254E+01 -0.17666851724E+02  0.10381170462E+04  0.10382864552E+04  0.00000000000E+00 0.  1.
         14    1    5    5    0    0  0.76853709705E+01  0.28933437980E+02  0.16953883757E+03  0.17216162815E+03  0.00000000000E+00 0. -1.
         11    1    3    3    0    0  0.35843366034E+01 -0.22583671222E+02 -0.11931662673E+03  0.12148797096E+03  0.00000000000E+00 0. -1.
        -12    1    3    3    0    0  0.10683738199E+03 -0.26658770287E+01 -0.18640542569E+03  0.21486813588E+03  0.00000000000E+00 0.  1.
          5    1    4    4  501    0 -0.40847297726E+02  0.64302701696E+02  0.21047780175E+03  0.22387879892E+03  0.41800000000E+01 0. -1.
         -5    1    4    4    0  501 -0.83556123368E+02 -0.50319739701E+02  0.17815116577E+03  0.20314775958E+03  0.41800000000E+01 0. -1.
</event>
<event>
11    1  0.8041700E-009  0.1427283E+03  0.7561462E-02  0.1104549E+00
         22   -1    0    0    0    0  0.00000000000E+00  0.00000000000E+00  0.13158175542E+04  0.13158175542E+04  0.00000000000E+00 0. -1.
         22   -1    0    0    0    0 -0.00000000000E+00 -0.00000000000E+00 -0.30143058389E+03  0.30143058389E+03  0.00000000000E+00 0.  1.
         24    2    1    2    0    0  0.39438155471E+02  0.54307475501E+02 -0.25129469945E+03  0.27202276442E+03  0.79640996894E+02 0.  0.
         25    2    1    2    0    0 -0.24773536175E+02 -0.99400376144E+02  0.13496804788E+03  0.21061421386E+03  0.12509120777E+03 0.  0.
        -24    2    1    2    0    0 -0.14664619296E+02  0.45092900643E+02  0.11307136219E+04  0.11346111599E+04  0.81121936082E+02 0.  0.
        -13    1    3    3    0    0  0.32886797367E+01  0.20675659034E+02 -0.19901353230E+03  0.20011167964E+03  0.00000000000E+00 0.  1.
         14    1    3    3    0    0  0.36149475734E+02  0.33631816467E+02 -0.52281167153E+02  0.71911084775E+02  0.00000000000E+00 0. -1.
         13    1    5    5    0    0 -0.10109106823E+02  0.24547518327E+02  0.10704438816E+04  0.10707730284E+04  0.00000000000E+00 0. -1.
        -14    1    5    5    0    0 -0.45555124726E+01  0.20545382316E+02  0.60269740285E+02  0.63838131414E+02  0.00000000000E+00 0.  1.
          5    1    4    4  501    0  0.31611733924E+02 -0.92340195928E+02  0.11343272238E+03  0.14970126390E+03  0.41800000000E+01 0. -1.
         -5    1    4    4    0  501 -0.56385270099E+02 -0.70601802156E+01  0.21535325494E+02  0.60912949962E+02  0.41800000000E+01 0. -1.
</event>
<event>
11    1  0.8041700E-009  0.1361378E+03  0.7561462E-02  0.1111949E+00
         22   -1    0    0    0    0  0.00000000000E+00  0.00000000000E+00  0.85907902204E+03  0.85907902204E+03  0.00000000000E+00 0.  1.
         22   -1    0    0    0    0 -0.00000000000E+00 -0.00000000000E+00 -0.55095652535E+03  0.55095652535E+03  0.00000000000E+00 0. -1.
        -24    2    1    2    0    0  0.49460201039E+02  0.18298998414E+02 -0.50685128017E+03  0.51607166931E+03  0.81551105566E+02 0.  0.
         25    2    1    2    0    0 -0.80892102296E+02 -0.34734596571E+02  0.12354701920E+03  0.19662494256E+03  0.12508987837E+03 0.  0.
         24    2    1    2    0    0  0.31431901257E+02  0.16435598157E+02  0.69142675765E+03  0.69733893552E+03  0.83381871457E+02 0.  0.
        -13    1    5    5    0    0  0.34148685955E+02 -0.16035956337E+02  0.58051590762E+03  0.58174049510E+03  0.00000000000E+00 0.  1.
         14    1    5    5    0    0 -0.27167846984E+01  0.32471554494E+02  0.11091085004E+03  0.11559844042E+03  0.00000000000E+00 0. -1.
         11    1    3    3    0    0  0.57284531840E+02 -0.17809776378E+02 -0.29813692296E+03  0.30411236502E+03  0.00000000000E+00 0. -1.
        -12    1    3    3    0    0 -0.78243308010E+01  0.36108774792E+02 -0.20871435721E+03  0.21195930429E+03  0.00000000000E+00 0.  1.
          5    1    4    4  501    0 -0.72735297192E+02  0.12348099538E+02  0.12867676912E+03  0.14838491275E+03  0.41800000000E+01 0. -1.
         -5    1    4    4    0  501 -0.81568051041E+01 -0.47082696109E+02 -0.51297499147E+01  0.48240029816E+02  0.41800000000E+01 0. -1.
</event>
<event>
11    1  0.8041700E-009  0.1867685E+03  0.7561462E-02  0.1064296E+00
         22   -1    0    0    0    0  0.00000000000E+00  0.00000000000E+00  0.16068641571E+03  0.16068641571E+03  0.00000000000E+00 0.  1.
         22   -1    0    0    0    0 -0.00000000000E+00 -0.00000000000E+00 -0.18386750435E+04  0.18386750435E+04  0.00000000000E+00 0. -1.
        -24    2    1    2    0    0 -0.18540990649E+02  0.11871744216E+03 -0.11567790275E+04  0.11657484708E+04  0.79963612799E+02 0.  0.
         25    2    1    2    0    0  0.13097054997E+03 -0.18971074943E+03 -0.60231512175E+03  0.65694299870E+03  0.12508854562E+03 0.  0.
         24    2    1    2    0    0 -0.11242955932E+03  0.70993307270E+02  0.81105521472E+02  0.17666998966E+03  0.83388992969E+02 0.  0.
        -11    1    5    5    0    0 -0.10570589683E+03  0.84616679237E+02  0.86356052639E+02  0.16059603624E+03  0.00000000000E+00 0.  1.
         12    1    5    5    0    0 -0.67236624907E+01 -0.13623371966E+02 -0.52505311675E+01  0.16073953421E+02  0.00000000000E+00 0. -1.
         11    1    3    3    0    0 -0.34290859333E+02  0.25867884530E+02 -0.55336293363E+03  0.55502751896E+03  0.00000000000E+00 0. -1.
        -12    1    3    3    0    0  0.15749868684E+02  0.92849557630E+02 -0.60341609386E+03  0.61072095186E+03  0.00000000000E+00 0.  1.
          5    1    4    4  501    0  0.86394574190E+02 -0.18323390662E+03 -0.55785995450E+03  0.59351822905E+03  0.41800000000E+01 0.  1.
         -5    1    4    4    0  501  0.44575975779E+02 -0.64768428122E+01 -0.44455167245E+02  0.63424769643E+02  0.41800000000E+01 0.  1.
</event>
<event>
11    1  0.8041700E-009  0.3353760E+03  0.7561462E-02  0.9862396E-01
         22   -1    0    0    0    0  0.00000000000E+00  0.00000000000E+00  0.32737648979E+03  0.32737648979E+03  0.00000000000E+00 0. -1.
         22   -1    0    0    0    0 -0.00000000000E+00 -0.00000000000E+00 -0.13377191242E+04  0.13377191242E+04  0.00000000000E+00 0.  1.
         24    2    1    2    0    0  0.72030242362E+01  0.57239249833E+02 -0.76417451708E+03  0.77068874039E+03  0.81671455985E+02 0.  0.
         25    2    1    2    0    0 -0.17530428198E+03  0.21368678396E+03 -0.42325601335E+03  0.52075550501E+03  0.12508801000E+03 0.  0.
        -24    2    1    2    0    0  0.16810125774E+03 -0.27092603379E+03  0.17708789603E+03  0.37365136858E+03  0.81217446880E+02 0.  0.
        -11    1    3    3    0    0  0.19763448056E+02  0.47242568204E+02 -0.73937944932E+03  0.74115074324E+03  0.00000000000E+00 0.  1.
         12    1    3    3    0    0 -0.12560423819E+02  0.99966816295E+01 -0.24795067764E+02  0.29537997148E+02  0.00000000000E+00 0. -1.
         11    1    5    5    0    0  0.12277024090E+03 -0.24448486757E+03  0.12898000022E+03  0.30245863019E+03  0.00000000000E+00 0. -1.
        -12    1    5    5    0    0  0.45331016840E+02 -0.26441166220E+02  0.48107895812E+02  0.71192738382E+02  0.00000000000E+00 0.  1.
          5    1    4    4  501    0 -0.29837125759E+02  0.49607656605E+02 -0.19410236584E+02  0.61199700585E+02  0.41800000000E+01 0. -1.
         -5    1    4    4    0  501 -0.14546715622E+03  0.16407912735E+03 -0.40384577676E+03  0.45955580443E+03  0.41800000000E+01 0. -1.
</event>
<event>
11    1  0.8041700E-009  0.1480363E+03  0.7561462E-02  0.1098902E+00
         22   -1    0    0    0    0  0.00000000000E+00  0.00000000000E+00  0.10641013619E+04  0.10641013619E+04  0.00000000000E+00 0. -1.
         22   -1    0    0    0    0 -0.00000000000E+00 -0.00000000000E+00 -0.71362052210E+03  0.71362052210E+03  0.00000000000E+00 0. -1.
        -24    2    1    2    0    0  0.71682837129E+02  0.33449324678E+02 -0.67863986428E+03  0.68817936712E+03  0.82349799488E+02 0.  0.
         25    2    1    2    0    0 -0.72593395757E+02 -0.38258619663E+02  0.16912624167E+03  0.22579632170E+03  0.12508705042E+03 0.  0.
         24    2    1    2    0    0  0.91055862777E+00  0.48092949849E+01  0.85999446240E+03  0.86374619517E+03  0.80268648156E+02 0.  0.
        -13    1    5    5    0    0 -0.16503011025E+02 -0.81850797524E+01  0.47288572623E+02  0.50749916297E+02  0.00000000000E+00 0.  1.
         14    1    5    5    0    0  0.17413569653E+02  0.12994374737E+02  0.81270588977E+03  0.81299627887E+03  0.00000000000E+00 0. -1.
         11    1    3    3    0    0  0.54387229254E+02  0.32628525517E+02 -0.65880141854E+03  0.66184733923E+03  0.00000000000E+00 0. -1.
        -12    1    3    3    0    0  0.17295607875E+02  0.82079916089E+00 -0.19838445745E+02  0.26332027886E+02  0.00000000000E+00 0.  1.
          5    1    4    4  501    0 -0.82288679803E+02 -0.74964049494E+02  0.12462580853E+03  0.16715292427E+03  0.41800000000E+01 0. -1.
         -5    1    4    4    0  501  0.96952840461E+01  0.36705429831E+02  0.44500433148E+02  0.58643397431E+02  0.41800000000E+01 0. -1.
</event>
<event>
11    1  0.8041700E-009  0.1598878E+03  0.7561462E-02  0.1087183E+00
         22   -1    0    0    0    0  0.00000000000E+00  0.00000000000E+00  0.40308512965E+03  0.40308512965E+03  0.00000000000E+00 0.  1.
         22   -1    0    0    0    0 -0.00000000000E+00 -0.00000000000E+00 -0.53069865853E+03  0.53069865853E+03  0.00000000000E+00 0.  1.
         24    2    1    2    0    0  0.35347544960E+02  0.62446702599E+02 -0.46424462657E+03  0.47865919170E+03  0.91883126308E+02 0.  0.
         25    2    1    2    0    0 -0.10607980622E+03  0.13941881718E+02  0.12681374490E+03  0.20778869351E+03  0.12508842433E+03 0.  0.
        -24    2    1    2    0    0  0.70732261260E+02 -0.76388584317E+02  0.20981735279E+03  0.24733590296E+03  0.79457276359E+02 0.  0.
        -11    1    3    3    0    0  0.32853792484E+02  0.71480431759E+02 -0.46247962149E+03  0.46912282411E+03  0.00000000000E+00 0.  1.
         12    1    3    3    0    0  0.24937524758E+01 -0.90337291605E+01 -0.17650050814E+01  0.95363675943E+01  0.00000000000E+00 0. -1.
         11    1    5    5    0    0  0.54305937708E+02 -0.48787327880E+02  0.61123363963E+02  0.95212414391E+02  0.00000000000E+00 0. -1.
        -12    1    5    5    0    0  0.16426323552E+02 -0.27601256437E+02  0.14869398883E+03  0.15212348857E+03  0.00000000000E+00 0.  1.
          5    1    4    4  501    0 -0.30451952184E+01  0.62778204648E+01 -0.23768327140E+02  0.25121505105E+02  0.41800000000E+01 0.  1.
         -5    1    4    4    0  501 -0.10303461100E+03  0.76640612535E+01  0.15058207204E+03  0.18266718841E+03  0.41800000000E+01 0.  1.
</event>
<event>
11    1  0.8041700E-009  0.1403380E+03  0.7561462E-02  0.1107182E+00
         22   -1    0    0    0    0  0.00000000000E+00  0.00000000000E+00  0.96609791791E+03  0.96609791791E+03  0.00000000000E+00 0. -1.
         22   -1    0    0    0    0 -0.00000000000E+00 -0.00000000000E+00 -0.23289889115E+04  0.23289889115E+04  0.00000000000E+00 0. -1.
         24    2    1    2    0    0 -0.50701137467E+02  0.38434006033E+02 -0.23084923913E+04  0.23107640193E+04  0.80283584895E+02 0.  0.
         25    2    1    2    0    0  0.45080761933E+02 -0.44353404820E+02  0.27267440293E+03  0.30659136285E+03  0.12508970439E+03 0.  0.
        -24    2    1    2    0    0  0.56203755333E+01  0.59193987867E+01  0.67292699480E+03  0.67773144726E+03  0.80140790973E+02 0.  0.
        -13    1    3    3    0    0 -0.17175732120E+01 -0.19007967326E+02 -0.19694875402E+03  0.19787133342E+03  0.00000000000E+00 0.  1.
         14    1    3    3    0    0 -0.48983564255E+02  0.57441973359E+02 -0.21115436373E+04  0.21128926858E+04  0.00000000000E+00 0. -1.
         11    1    5    5    0    0  0.15557561241E+02 -0.21013453435E+02  0.57721651309E+03  0.57780836436E+03  0.00000000000E+00 0. -1.
        -12    1    5    5    0    0 -0.99371857082E+01  0.26932852222E+02  0.95710481705E+02  0.99923082903E+02  0.00000000000E+00 0.  1.
          5    1    4    4  501    0  0.82634916895E+02 -0.18245886389E+02  0.11817966274E+03  0.14541439731E+03  0.41800000000E+01 0.  1.
         -5    1    4    4    0  501 -0.37554154962E+02 -0.26107518431E+02  0.15449474019E+03  0.16117696553E+03  0.41800000000E+01 0.  1.
</event>
<event>
11    1  0.8041700E-009  0.1429678E+03  0.7561462E-02  0.1104289E+00
         22   -1    0    0    0    0  0.00000000000E+00  0.00000000000E+00  0.30485333691E+04  0.30485333691E+04  0.00000000000E+00 0. -1.
         22   -1    0    0    0    0 -0.00000000000E+00 -0.00000000000E+00 -0.33714232774E+03  0.33714232774E+03  0.00000000000E+00 0.  1.
         24    2    1    2    0    0 -0.52672964723E+02  0.40921838235E+02 -0.28962764651E+03  0.30832379486E+03  0.82038715226E+02 0.  0.
         25    2    1    2    0    0  0.89791114528E+02 -0.92276690541E+02  0.17910125028E+03  0.25357937355E+03  0.12509120261E+03 0.  0.
        -24    2    1    2    0    0 -0.37118149805E+02  0.51354852305E+02  0.28219174376E+04  0.28237725285E+04  0.80362863942E+02 0.  0.
        -11    1    3    3    0    0  0.18238410849E+01  0.47981219849E+02 -0.17050930468E+03  0.17714103657E+03  0.00000000000E+00 0.  1.
         12    1    3    3    0    0 -0.54496805808E+02 -0.70593816133E+01 -0.11911834183E+03  0.13118275829E+03  0.00000000000E+00 0. -1.
         13    1    5    5    0    0  0.33834954247E+01  0.60528995747E+02  0.17577490749E+04  0.17587941943E+04  0.00000000000E+00 0. -1.
        -14    1    5    5    0    0 -0.40501645230E+02 -0.91741434420E+01  0.10641683627E+04  0.10649783342E+04  0.00000000000E+00 0.  1.
          5    1    4    4  501    0  0.90540793659E+02 -0.57145077156E+02  0.18862461293E+03  0.21693296698E+03  0.41800000000E+01 0. -1.
         -5    1    4    4    0  501 -0.74967913030E+00 -0.35131613384E+02 -0.95233626542E+01  0.36646406564E+02  0.41800000000E+01 0. -1.
</event>
<event>
11    1  0.8041700E-009  0.1626332E+03  0.7561462E-02  0.1084626E+00
         22   -1    0    0    0    0  0.00000000000E+00  0.00000000000E+00  0.11982482869E+03  0.11982482869E+03  0.00000000000E+00 0. -1.
         22   -1    0    0    0    0 -0.00000000000E+00 -0.00000000000E+00 -0.15708399308E+04  0.15708399308E+04  0.00000000000E+00 0. -1.
         24    2    1    2    0    0  0.55618409515E+02  0.20209982168E+02 -0.12742171224E+04  0.12780687521E+04  0.79552556774E+02 0.  0.
         25    2    1    2    0    0 -0.12929766955E+03 -0.79645274733E+02 -0.20682080434E+03  0.28545230621E+03  0.12508763678E+03 0.  0.
        -24    2    1    2    0    0  0.73679260038E+02  0.59435292565E+02  0.30022824615E+02  0.12714370117E+03  0.79391204727E+02 0.  0.
        -11    1    3    3    0    0  0.10994311724E+02  0.41687475522E+02 -0.37132124332E+03  0.37381571161E+03  0.00000000000E+00 0.  1.
         12    1    3    3    0    0  0.44624097790E+02 -0.21477493354E+02 -0.90289587906E+03  0.90425304049E+03  0.00000000000E+00 0. -1.
         13    1    5    5    0    0  0.73102446414E+02  0.15990036513E+02  0.36425511314E+02  0.83225397650E+02  0.00000000000E+00 0. -1.
        -14    1    5    5    0    0  0.57681362431E+00  0.43445256052E+02 -0.64026866993E+01  0.43918303523E+02  0.00000000000E+00 0.  1.
          5    1    4    4  501    0 -0.83109036413E+02 -0.10106780643E+03 -0.19176847952E+03  0.23219482244E+03  0.41800000000E+01 0.  1.
         -5    1    4    4    0  501 -0.46188633141E+02  0.21422531692E+02 -0.15052324815E+02  0.53257483773E+02  0.41800000000E+01 0.  1.
</event>
<event>
11    1  0.8041700E-009  0.2378745E+03  0.7561462E-02  0.1030564E+00
         22   -1    0    0    0    0  0.00000000000E+00  0.00000000000E+00  0.10280126617E+04  0.10280126617E+04  0.00000000000E+00 0. -1.
         22   -1    0    0    0    0 -0.00000000000E+00 -0.00000000000E+00 -0.17627800155E+04  0.17627800155E+04  0.00000000000E+00 0. -1.
        -24    2    1    2    0    0  0.17872352505E+02  0.44168109026E+01 -0.16103123787E+04  0.16125990863E+04  0.83850622230E+02 0.  0.
         25    2    1    2    0    0  0.87745657145E+02  0.16957923379E+03 -0.42276938838E+02  0.23214382285E+03  0.12508796126E+03 0.  0.
         24    2    1    2    0    0 -0.10561800965E+03 -0.17399604469E+03  0.91782196369E+03  0.94604976805E+03  0.10575074021E+03 0.  0.
        -11    1    5    5    0    0 -0.11456339054E+03 -0.14491357279E+03  0.62717130083E+03  0.65381079421E+03  0.00000000000E+00 0.  1.
         12    1    5    5    0    0  0.89453808917E+01 -0.29082471903E+02  0.29065066286E+03  0.29223897384E+03  0.00000000000E+00 0. -1.
         11    1    3    3    0    0  0.33581008748E+02 -0.12970093362E+02 -0.14623290286E+04  0.14627720585E+04  0.00000000000E+00 0. -1.
        -12    1    3    3    0    0 -0.15708656243E+02  0.17386904264E+02 -0.14798335011E+03  0.14982702770E+03  0.00000000000E+00 0.  1.
          5    1    4    4  501    0  0.14457787442E+02  0.54867615610E+02  0.43126467654E+02  0.71392208767E+02  0.41800000000E+01 0. -1.
         -5    1    4    4    0  501  0.73287869704E+02  0.11471161818E+03 -0.85403406492E+02  0.16075161409E+03  0.41800000000E+01 0. -1.
</event>
<event>
11    1  0.8041700E-009  0.1719575E+03  0.7561462E-02  0.1076341E+00
         22   -1    0    0    0    0  0.00000000000E+00  0.00000000000E+00  0.79366591206E+03  0.79366591206E+03  0.00000000000E+00 0. -1.
         22   -1    0    0    0    0 -0.00000000000E+00 -0.00000000000E+00 -0.25437830542E+03  0.25437830542E+03  0.00000000000E+00 0.  1.
         24    2    1    2    0    0 -0.30974431872E+01 -0.13403974903E+02 -0.15574887263E+03  0.17561248899E+03  0.79954826415E+02 0.  0.
         25    2    1    2    0    0 -0.88137769332E+02  0.87421870309E+02  0.14133464027E+02  0.17680033008E+03  0.12509097537E+03 0.  0.
        -24    2    1    2    0    0  0.91235212519E+02 -0.74017895406E+02  0.68090301524E+03  0.69563139842E+03  0.80446339028E+02 0.  0.
        -11    1    3    3    0    0 -0.33380995322E+00 -0.42604825307E+02 -0.12922307771E+03  0.13606574287E+03  0.00000000000E+00 0.  1.
         12    1    3    3    0    0 -0.27636332340E+01  0.29200850405E+02 -0.26525794914E+02  0.39546746122E+02  0.00000000000E+00 0. -1.
         13    1    5    5    0    0 -0.15049471530E+02 -0.10509323850E+02  0.75756785011E+02  0.77948848332E+02  0.00000000000E+00 0. -1.
        -14    1    5    5    0    0  0.10628468405E+03 -0.63508571556E+02  0.60514623023E+03  0.61768255009E+03  0.00000000000E+00 0.  1.
          5    1    4    4  501    0  0.10921661605E+02  0.74077892631E+02 -0.41150817907E+01  0.75108076577E+02  0.41800000000E+01 0.  1.
         -5    1    4    4    0  501 -0.99059430937E+02  0.13343977678E+02  0.18248545818E+02  0.10169225350E+03  0.41800000000E+01 0.  1.
</event>
<event>
11    1  0.8041700E-009  0.1474120E+03  0.7561462E-02  0.1099553E+00
         22   -1    0    0    0    0  0.00000000000E+00  0.00000000000E+00  0.75872055253E+03  0.75872055253E+03  0.00000000000E+00 0.  1.
         22   -1    0    0    0    0 -0.00000000000E+00 -0.00000000000E+00 -0.80100912556E+03  0.80100912556E+03  0.00000000000E+00 0. -1.
         24    2    1    2    0    0  0.77758645705E+02  0.44280688959E+01 -0.69216399984E+03  0.70107924679E+03  0.79718836113E+02 0.  0.
         25    2    1    2    0    0 -0.73900603000E+02 -0.78692379796E+02 -0.31909231875E+02  0.16826137909E+03  0.12505959720E+03 0.  0.
        -24    2    1    2    0    0 -0.38580427051E+01  0.74264310900E+02  0.68178465868E+03  0.69038905221E+03  0.79225313082E+02 0.  0.
        -13    1    3    3    0    0 -0.10878459663E+02  0.12126354710E+02 -0.22024430536E+03  0.22084597214E+03  0.00000000000E+00 0.  1.
         14    1    3    3    0    0  0.88637105368E+02 -0.76982858139E+01 -0.47191969447E+03  0.48023327465E+03  0.00000000000E+00 0. -1.
         13    1    5    5    0    0 -0.36925837160E+02  0.23128695975E+02  0.19490013622E+03  0.19971108414E+03  0.00000000000E+00 0. -1.
        -14    1    5    5    0    0  0.33067794455E+02  0.51135614925E+02  0.48688452246E+03  0.49067796807E+03  0.00000000000E+00 0.  1.
          5    1    4    4  501    0 -0.67554451029E+02 -0.78510498439E+02  0.28397568408E+02  0.10747742326E+03  0.41800000000E+01 0.  1.
         -5    1    4    4    0  501 -0.63461519712E+01 -0.18188135657E+00 -0.60306800284E+02  0.60783955828E+02  0.41800000000E+01 0.  1.
</event>
<event>
11    1  0.8041700E-009  0.1314151E+03  0.7561462E-02  0.1117542E+00
         22   -1    0    0    0    0  0.00000000000E+00  0.00000000000E+00  0.68755394012E+03  0.68755394012E+03  0.00000000000E+00 0.  1.
         22   -1    0    0    0    0 -0.00000000000E+00 -0.00000000000E+00 -0.76411536778E+02  0.76411536778E+02  0.00000000000E+00 0. -1.
         24    2    1    2    0    0  0.11972353717E+02 -0.40015005228E+02 -0.15003661066E+02  0.90223311429E+02  0.78553155143E+02 0.  0.
         25    2    1    2    0    0 -0.13045223553E+02  0.29500011380E+02  0.18840503821E+03  0.22843901743E+03  0.12508995856E+03 0.  0.
        -24    2    1    2    0    0  0.10728698366E+01  0.10514993848E+02  0.43774102620E+03  0.44530314804E+03  0.81030682402E+02 0.  0.
        -13    1    3    3    0    0 -0.10817393220E+02  0.12031565864E+02  0.18250577688E+02  0.24389714209E+02  0.00000000000E+00 0.  1.
         14    1    3    3    0    0  0.22789746937E+02 -0.52046571092E+02 -0.33254238754E+02  0.65833597221E+02  0.00000000000E+00 0. -1.
         11    1    5    5    0    0 -0.23905261363E+02  0.20465028583E+02  0.72017385838E+02  0.78592510958E+02  0.00000000000E+00 0. -1.
        -12    1    5    5    0    0  0.24978131200E+02 -0.99500347357E+01  0.36572364036E+03  0.36671063708E+03  0.00000000000E+00 0.  1.
          5    1    4    4  501    0 -0.19516000332E+02 -0.47270358157E+02  0.87215861543E+02  0.10119011777E+03  0.41800000000E+01 0. -1.
         -5    1    4    4    0  501  0.64707767783E+01  0.76770369537E+02  0.10118917667E+03  0.12724889966E+03  0.41800000000E+01 0. -1.
</event>
<event>
11    1  0.8041700E-009  0.1250981E+03  0.7561462E-02  0.1125443E+00
         22   -1    0    0    0    0  0.00000000000E+00  0.00000000000E+00  0.10678364039E+04  0.10678364039E+04  0.00000000000E+00 0. -1.
         22   -1    0    0    0    0 -0.00000000000E+00 -0.00000000000E+00 -0.11826528614E+04  0.11826528614E+04  0.00000000000E+00 0. -1.
         24    2    1    2    0    0  0.11893221904E+02  0.11973098840E+02 -0.11701838835E+04  0.11729327146E+04  0.78460359158E+02 0.  0.
         25    2    1    2    0    0 -0.77348211043E+01 -0.91531655555E+01  0.49799730489E+03  0.51360834857E+03  0.12509441291E+03 0.  0.
        -24    2    1    2    0    0 -0.41584007998E+01 -0.28199332842E+01  0.55737012099E+03  0.56394820215E+03  0.85737265062E+02 0.  0.
        -11    1    3    3    0    0 -0.12493970295E+02  0.90266711565E-01 -0.30962527396E+02  0.33388404343E+02  0.00000000000E+00 0.  1.
         12    1    3    3    0    0  0.24387192199E+02  0.11882832128E+02 -0.11392213561E+04  0.11395443102E+04  0.00000000000E+00 0. -1.
         13    1    5    5    0    0 -0.41180104569E+02 -0.51481900346E+01  0.40529769498E+03  0.40741689512E+03  0.00000000000E+00 0. -1.
        -14    1    5    5    0    0  0.37021703769E+02  0.23282567503E+01  0.15207242600E+03  0.15653130703E+03  0.00000000000E+00 0.  1.
          5    1    4    4  501    0 -0.15066115447E+02 -0.61011602171E+02  0.16729234287E+03  0.17875570989E+03  0.41800000000E+01 0.  1.
         -5    1    4    4    0  501  0.73312943429E+01  0.51858436616E+02  0.33070496202E+03  0.33485263868E+03  0.41800000000E+01 0.  1.
</event>
<event>
11    1  0.8041700E-009  0.1291045E+03  0.7561462E-02  0.1120374E+00
         22   -1    0    0    0    0  0.00000000000E+00  0.00000000000E+00  0.20362274028E+03  0.20362274028E+03  0.00000000000E+00 0. -1.
         22   -1    0    0    0    0 -0.00000000000E+00 -0.00000000000E+00 -0.28009001803E+03  0.28009001803E+03  0.00000000000E+00 0.  1.
         24    2    1    2    0    0 -0.19318101876E+01  0.21263995317E+02 -0.19026490868E+03  0.20784449647E+03  0.80887019042E+02 0.  0.
         25    2    1    2    0    0 -0.24219178730E+02 -0.36386024544E+02 -0.11745177659E+01  0.13250800562E+03  0.12508589314E+03 0.  0.
        -24    2    1    2    0    0  0.26150988918E+02  0.15122029227E+02  0.11497214870E+03  0.14336025622E+03  0.80131255440E+02 0.  0.
        -13    1    3    3    0    0  0.23832091574E+02  0.27541912485E+02 -0.17158506688E+03  0.17540798359E+03  0.00000000000E+00 0.  1.
         14    1    3    3    0    0 -0.25763901761E+02 -0.62779171680E+01 -0.18679841808E+02  0.32436512881E+02  0.00000000000E+00 0. -1.
         11    1    5    5    0    0 -0.24804327873E+02 -0.11756101503E+02  0.29599615406E+02  0.40368277594E+02  0.00000000000E+00 0. -1.
        -12    1    5    5    0    0  0.50955316791E+02  0.26878130731E+02  0.85372533293E+02  0.10299197863E+03  0.00000000000E+00 0.  1.
          5    1    4    4  501    0 -0.74332959818E+02 -0.15184613855E+02 -0.11843320356E+02  0.76900572497E+02  0.41800000000E+01 0. -1.
         -5    1    4    4    0  501  0.50113781088E+02 -0.21201410690E+02  0.10668802590E+02  0.55607433126E+02  0.41800000000E+01 0. -1.
</event>
<event>
11    1  0.8041700E-009  0.1368194E+03  0.7561462E-02  0.1111163E+00
         22   -1    0    0    0    0  0.00000000000E+00  0.00000000000E+00  0.28635287267E+03  0.28635287267E+03  0.00000000000E+00 0.  1.
         22   -1    0    0    0    0 -0.00000000000E+00 -0.00000000000E+00 -0.84872161971E+03  0.84872161971E+03  0.00000000000E+00 0.  1.
        -24    2    1    2    0    0 -0.20719922127E+02  0.77070525636E+00 -0.70737752724E+03  0.71189589847E+03  0.77349176148E+02 0.  0.
         25    2    1    2    0    0  0.64843189972E+02 -0.32402565110E+02 -0.89680137113E+02  0.17012761235E+03  0.12508521887E+03 0.  0.
         24    2    1    2    0    0 -0.44123267845E+02  0.31631859854E+02  0.23468891732E+03  0.25305098156E+03  0.77514347268E+02 0.  0.
        -11    1    5    5    0    0 -0.63425645807E+02  0.80591278626E+01  0.15044593393E+03  0.16346785960E+03  0.00000000000E+00 0.  1.
         12    1    5    5    0    0  0.19302377962E+02  0.23572731992E+02  0.84242983396E+02  0.89583121959E+02  0.00000000000E+00 0. -1.
         11    1    3    3    0    0  0.25119689566E+01 -0.35818609000E+02 -0.37213927477E+03  0.37386752007E+03  0.00000000000E+00 0. -1.
        -12    1    3    3    0    0 -0.23231891083E+02  0.36589314257E+02 -0.33523825247E+03  0.33802837840E+03  0.00000000000E+00 0.  1.
          5    1    4    4  501    0 -0.23722292600E+02  0.26669034721E+02 -0.10669386700E+02  0.37487235050E+02  0.41800000000E+01 0. -1.
         -5    1    4    4    0  501  0.88565482572E+02 -0.59071599831E+02 -0.79010750413E+02  0.13264037730E+03  0.41800000000E+01 0. -1.
</event>
<event>
11    1  0.8041700E-009  0.1639718E+03  0.7561462E-02  0.1083400E+00
         22   -1    0    0    0    0  0.00000000000E+00  0.00000000000E+00  0.18563582231E+04  0.18563582231E+04  0.00000000000E+00 0. -1.
         22   -1    0    0    0    0 -0.00000000000E+00 -0.00000000000E+00 -0.89423660286E+03  0.89423660286E+03  0.00000000000E+00 0.  1.
        -24    2    1    2    0    0  0.35431269562E+01 -0.12556969523E+02 -0.87254102819E+03  0.87625611546E+03  0.79540573081E+02 0.  0.
         25    2    1    2    0    0  0.10300342693E+03  0.12713304349E+02  0.37825129655E+03  0.41169610798E+03  0.12509319691E+03 0.  0.
         24    2    1    2    0    0 -0.10654655389E+03 -0.15633482672E+00  0.14564113519E+04  0.14626426025E+04  0.82687147015E+02 0.  0.
        -13    1    5    5    0    0 -0.43216768746E+01  0.23800747752E+02  0.14210930616E+03  0.14415341613E+03  0.00000000000E+00 0.  1.
         14    1    5    5    0    0 -0.10222487701E+03 -0.23957082579E+02  0.13143020457E+04  0.13184891864E+04  0.00000000000E+00 0. -1.
         13    1    3    3    0    0 -0.77791073704E+01  0.16640869486E-01 -0.67488778107E+01  0.10298647489E+02  0.00000000000E+00 0. -1.
        -14    1    3    3    0    0  0.11322234327E+02 -0.12573610392E+02 -0.86579215038E+03  0.86595746797E+03  0.00000000000E+00 0.  1.
          5    1    4    4  501    0  0.12322645718E+03 -0.13257748461E+02  0.24787967221E+03  0.27716841800E+03  0.41800000000E+01 0.  1.
         -5    1    4    4    0  501 -0.20223030246E+02  0.25971052810E+02  0.13037162434E+03  0.13452768997E+03  0.41800000000E+01 0.  1.
</event>
<event>
11    1  0.9976115E-009  0.1563347E+03  0.7561462E-02  0.1090576E+00
         22   -1    0    0    0    0  0.00000000000E+00  0.00000000000E+00  0.11063978228E+04  0.11063978228E+04  0.00000000000E+00 0.  1.
         22   -1    0    0    0    0 -0.00000000000E+00 -0.00000000000E+00 -0.33247745102E+03  0.33247745102E+03  0.00000000000E+00 0.  1.
         24    2    1    2    0    0  0.42561559782E+02  0.90013108906E+02 -0.23774042969E+03  0.26880277358E+03  0.76292680066E+02 0.  0.
         25    2    1    2    0    0  0.19745350687E+02 -0.80080928920E+02 -0.35077252382E+01  0.14987126609E+03  0.12508500394E+03 0.  0.
        -24    2    1    2    0    0 -0.62306910469E+02 -0.99321799854E+01  0.10151685267E+04  0.10202012342E+04  0.79136725249E+02 0.  0.
        -13    1    3    3    0    0  0.29311988079E+02  0.86035965635E+02 -0.23820964859E+03  0.25496120628E+03  0.00000000000E+00 0.  1.
         14    1    3    3    0    0  0.13249571703E+02  0.39771432709E+01  0.46921890378E+00  0.13841567298E+02  0.00000000000E+00 0. -1.
         13    1    5    5    0    0  0.12522045924E+02  0.16623957384E+02  0.15843682370E+03  0.15979794961E+03  0.00000000000E+00 0. -1.
        -14    1    5    5    0    0 -0.74828956394E+02 -0.26556137369E+02  0.85673170302E+03  0.86040328457E+03  0.00000000000E+00 0.  1.
          5    1    4    4  501    0  0.30366034229E+01 -0.30365904605E+02 -0.63196670178E+02  0.70303631801E+02  0.41800000000E+01 0.  1.
         -5    1    4    4    0  501  0.16708747264E+02 -0.49715024315E+02  0.59688944940E+02  0.79567634286E+02  0.41800000000E+01 0.  1.
</event>
<event>
11    1  0.8041700E-009  0.1445428E+03  0.7561462E-02  0.1102589E+00
         22   -1    0    0    0    0  0.00000000000E+00  0.00000000000E+00  0.22570950230E+03  0.22570950230E+03  0.00000000000E+00 0. -1.
         22   -1    0    0    0    0 -0.00000000000E+00 -0.00000000000E+00 -0.70036711054E+03  0.70036711054E+03  0.00000000000E+00 0.  1.
        -24    2    1    2    0    0 -0.32662356448E+02  0.33681775213E+02 -0.53174566833E+03  0.53953303061E+03  0.78365450447E+02 0.  0.
         25    2    1    2    0    0  0.50889723178E+01  0.37793950900E+02 -0.11990412751E+03  0.17742342560E+03  0.12509113395E+03 0.  0.
         24    2    1    2    0    0  0.27573384131E+02 -0.71475726113E+02  0.17699218759E+03  0.20912015663E+03  0.80845126660E+02 0.  0.
        -13    1    5    5    0    0  0.19264243505E+02  0.11217974061E+02  0.14459974322E+02  0.26571504987E+02  0.00000000000E+00 0.  1.
         14    1    5    5    0    0  0.83091406253E+01 -0.82693700174E+02  0.16253221327E+03  0.18254865164E+03  0.00000000000E+00 0. -1.
         13    1    3    3    0    0 -0.11607683869E+00 -0.23712686246E+02 -0.19021713526E+03  0.19168949765E+03  0.00000000000E+00 0. -1.
        -14    1    3    3    0    0 -0.32546279610E+02  0.57394461459E+02 -0.34152853306E+03  0.34784353296E+03  0.00000000000E+00 0.  1.
          5    1    4    4  501    0 -0.37907803787E+02 -0.50727059861E+01  0.46920764461E+01  0.38758507651E+02  0.41800000000E+01 0.  1.
         -5    1    4    4    0  501  0.42996776104E+02  0.42866656886E+02 -0.12459620396E+03  0.13866491795E+03  0.41800000000E+01 0.  1.
</event>
<event>
11    1  0.8041700E-009  0.1807173E+03  0.7561462E-02  0.1069064E+00
         22   -1    0    0    0    0  0.00000000000E+00  0.00000000000E+00  0.14501665765E+04  0.14501665765E+04  0.00000000000E+00 0.  1.
         22   -1    0    0    0    0 -0.00000000000E+00 -0.00000000000E+00 -0.57815763889E+03  0.57815763889E+03  0.00000000000E+00 0. -1.
        -24    2    1    2    0    0 -0.12682609229E+03 -0.60903384139E+01 -0.48308985519E+03  0.50638013923E+03  0.83205091891E+02 0.  0.
         25    2    1    2    0    0  0.17034021275E+03  0.33125337277E+02  0.58370204022E+02  0.22174064671E+03  0.12509499444E+03 0.  0.
         24    2    1    2    0    0 -0.43514120457E+02 -0.27034998863E+02  0.12967285887E+04  0.13002034294E+04  0.79997219780E+02 0.  0.
        -13    1    5    5    0    0 -0.51257672437E+01 -0.32140548344E+01  0.10032094669E+04  0.10032277100E+04  0.00000000000E+00 0.  1.
         14    1    5    5    0    0 -0.38388353213E+02 -0.23820944029E+02  0.29351912182E+03  0.29697571940E+03  0.00000000000E+00 0. -1.
         11    1    3    3    0    0 -0.66739130141E+02 -0.32819794423E+02 -0.35138181817E+03  0.35916630206E+03  0.00000000000E+00 0. -1.
        -12    1    3    3    0    0 -0.60086962151E+02  0.26729456009E+02 -0.13170803702E+03  0.14721383717E+03  0.00000000000E+00 0.  1.
          5    1    4    4  501    0  0.17478134955E+03  0.23413283509E+02  0.82720286078E+02  0.19482510137E+03  0.41800000000E+01 0. -1.
         -5    1    4    4    0  501 -0.44411368039E+01  0.97120537680E+01 -0.24350082055E+02  0.26915545334E+02  0.41800000000E+01 0. -1.
</event>
<event>
11    1  0.8041700E-009  0.1790439E+03  0.7561462E-02  0.1070419E+00
         22   -1    0    0    0    0  0.00000000000E+00  0.00000000000E+00  0.44740821823E+03  0.44740821823E+03  0.00000000000E+00 0.  1.
         22   -1    0    0    0    0 -0.00000000000E+00 -0.00000000000E+00 -0.64364081951E+03  0.64364081951E+03  0.00000000000E+00 0. -1.
         24    2    1    2    0    0 -0.67325234388E+02 -0.10670871239E+03 -0.56627054016E+03  0.58602453595E+03  0.82722400808E+02 0.  0.
         25    2    1    2    0    0  0.13574091693E+03  0.11494689284E+03  0.16064682817E+03  0.27035752501E+03  0.12508958079E+03 0.  0.
        -24    2    1    2    0    0 -0.68415682544E+02 -0.82381804490E+01  0.20939111071E+03  0.23466697678E+03  0.80469742831E+02 0.  0.
        -11    1    3    3    0    0 -0.55521956147E+02 -0.86724434323E+02 -0.27199553654E+03  0.29083567013E+03  0.00000000000E+00 0.  1.
         12    1    3    3    0    0 -0.11803278241E+02 -0.19984278071E+02 -0.29427500363E+03  0.29518886582E+03  0.00000000000E+00 0. -1.
         11    1    5    5    0    0 -0.77289102867E+01 -0.20743115555E+02  0.73288021469E+01  0.23317895232E+02  0.00000000000E+00 0. -1.
        -12    1    5    5    0    0 -0.60686772258E+02  0.12504935106E+02  0.20206230856E+03  0.21134908154E+03  0.00000000000E+00 0.  1.
          5    1    4    4  501    0  0.97751500731E+02  0.87054026809E+02  0.17710095143E+03  0.22026343064E+03  0.41800000000E+01 0. -1.
         -5    1    4    4    0  501  0.37989416202E+02  0.27892866034E+02 -0.16454123254E+02  0.50094094373E+02  0.41800000000E+01 0. -1.
</event>
<event>
11    1  0.8041700E-009  0.2082087E+03  0.7561462E-02  0.1048866E+00
         22   -1    0    0    0    0  0.00000000000E+00  0.00000000000E+00  0.36594274832E+03  0.36594274832E+03  0.00000000000E+00 0. -1.
         22   -1    0    0    0    0 -0.00000000000E+00 -0.00000000000E+00 -0.21260110034E+04  0.21260110034E+04  0.00000000000E+00 0. -1.
        -24    2    1    2    0    0  0.16440336621E+03 -0.29640764187E+02 -0.19849344919E+04  0.19935656941E+04  0.80200985248E+02 0.  0.
         25    2    1    2    0    0 -0.16719361495E+03 -0.81132873195E+02 -0.12297683652E+02  0.22435124986E+03  0.12508398097E+03 0.  0.
         24    2    1    2    0    0  0.27902487398E+01  0.11077363738E+03  0.23716392049E+03  0.27403680770E+03  0.81060857189E+02 0.  0.
        -13    1    5    5    0    0 -0.23265868971E+02  0.52342627850E+02  0.49289424222E+02  0.75567841635E+02  0.00000000000E+00 0.  1.
         14    1    5    5    0    0  0.26056117711E+02  0.58431009532E+02  0.18787449626E+03  0.19846896607E+03  0.00000000000E+00 0. -1.
         11    1    3    3    0    0  0.14830500402E+03 -0.48068188607E+02 -0.18387743069E+04  0.18453714739E+04  0.00000000000E+00 0. -1.
        -12    1    3    3    0    0  0.16098362189E+02  0.18427424420E+02 -0.14616018503E+03  0.14819422028E+03  0.00000000000E+00 0.  1.
          5    1    4    4  501    0  0.58469010996E+01 -0.18086108813E+02 -0.33680164814E+02  0.38898836568E+02  0.41800000000E+01 0. -1.
         -5    1    4    4    0  501 -0.17304051605E+03 -0.63046764382E+02  0.21382481162E+02  0.18545241329E+03  0.41800000000E+01 0. -1.
</event>
<event>
11    1  0.8041700E-009  0.1274562E+03  0.7561462E-02  0.1122435E+00
         22   -1    0    0    0    0  0.00000000000E+00  0.00000000000E+00  0.48428568123E+03  0.48428568123E+03  0.00000000000E+00 0.  1.
         22   -1    0    0    0    0 -0.00000000000E+00 -0.00000000000E+00 -0.18461425547E+04  0.18461425547E+04  0.00000000000E+00 0. -1.
        -24    2    1    2    0    0 -0.42537316291E+00 -0.14421859415E+02 -0.18007369097E+04  0.18025892273E+04  0.80413515511E+02 0.  0.
         25    2    1    2    0    0 -0.10260564709E+02  0.34835745239E+02  0.66601170605E+02  0.14630835800E+03  0.12510640016E+03 0.  0.
         24    2    1    2    0    0  0.10685937872E+02 -0.20413885824E+02  0.37227886566E+03  0.38153065058E+03  0.80269343561E+02 0.  0.
        -13    1    5    5    0    0 -0.10845446365E+02 -0.31965934558E+02  0.33659082418E+03  0.33827921544E+03  0.00000000000E+00 0.  1.
         14    1    5    5    0    0  0.21531384237E+02  0.11552048734E+02  0.35688041480E+02  0.43251435142E+02  0.00000000000E+00 0. -1.
         13    1    3    3    0    0  0.46149877379E+01  0.33334973971E+02 -0.76294188634E+03  0.76368373070E+03  0.00000000000E+00 0. -1.
        -14    1    3    3    0    0 -0.50403609008E+01 -0.47756833386E+02 -0.10377950234E+04  0.10389054966E+04  0.00000000000E+00 0.  1.
          5    1    4    4  501    0  0.13979759014E+02 -0.24953909461E+02  0.75688722214E+02  0.81020900575E+02  0.41800000000E+01 0.  1.
         -5    1    4    4    0  501 -0.24240323723E+02  0.59789654700E+02 -0.90875516093E+01  0.65287457429E+02  0.41800000000E+01 0.  1.
</event>
<event>
11    1  0.8041700E-009  0.1635659E+03  0.7561462E-02  0.1083771E+00
         22   -1    0    0    0    0  0.00000000000E+00  0.00000000000E+00  0.13636058745E+04  0.13636058745E+04  0.00000000000E+00 0. -1.
         22   -1    0    0    0    0 -0.00000000000E+00 -0.00000000000E+00 -0.23062614443E+04  0.23062614443E+04  0.00000000000E+00 0. -1.
        -24    2    1    2    0    0  0.10421931157E+02 -0.43842126414E+02 -0.21419981211E+04  0.21439365257E+04  0.79228320452E+02 0.  0.
         25    2    1    2    0    0 -0.82354869535E+02 -0.33864084426E+02 -0.12315210041E+03  0.19683332277E+03  0.12509123217E+03 0.  0.
         24    2    1    2    0    0  0.71932938378E+02  0.77706210840E+02  0.13224946516E+04  0.13290974703E+04  0.79343425140E+02 0.  0.
        -13    1    5    5    0    0 -0.14427949368E+01 -0.75679060434E+00 -0.53407741203E+00  0.17145343189E+01  0.00000000000E+00 0.  1.
         14    1    5    5    0    0  0.73375733315E+02  0.78463001444E+02  0.13230287291E+04  0.13273829360E+04  0.00000000000E+00 0. -1.
         13    1    3    3    0    0  0.19142913902E+02 -0.61901316388E+02 -0.19015309011E+04  0.19026344872E+04  0.00000000000E+00 0. -1.
        -14    1    3    3    0    0 -0.87209827457E+01  0.18059189975E+02 -0.24046722006E+03  0.24130203854E+03  0.00000000000E+00 0.  1.
          5    1    4    4  501    0 -0.90938633402E+02  0.24595464738E+02 -0.74296034635E+02  0.12005059389E+03  0.41800000000E+01 0. -1.
         -5    1    4    4    0  501  0.85837638670E+01 -0.58459549164E+02 -0.48856065778E+02  0.76782728878E+02  0.41800000000E+01 0. -1.
</event>
<event>
11    1  0.8041700E-009  0.2014180E+03  0.7561462E-02  0.1053525E+00
         22   -1    0    0    0    0  0.00000000000E+00  0.00000000000E+00  0.26616677417E+04  0.26616677417E+04  0.00000000000E+00 0. -1.
         22   -1    0    0    0    0 -0.00000000000E+00 -0.00000000000E+00 -0.92073585738E+03  0.92073585738E+03  0.00000000000E+00 0.  1.
         24    2    1    2    0    0 -0.97428975136E+02 -0.12494713702E+03 -0.90092114766E+03  0.91815448292E+03  0.79022452202E+02 0.  0.
         25    2    1    2    0    0  0.45399773994E+02  0.10410831907E+03  0.70538712300E+03  0.72533983495E+03  0.12508877368E+03 0.  0.
        -24    2    1    2    0    0  0.52029201142E+02  0.20838817960E+02  0.19364659090E+04  0.19389092812E+04  0.79546778980E+02 0.  0.
        -11    1    3    3    0    0 -0.51871022468E+02 -0.85205362071E+02 -0.35035380408E+03  0.36427784002E+03  0.00000000000E+00 0.  1.
         12    1    3    3    0    0 -0.45557952668E+02 -0.39741774954E+02 -0.55056734358E+03  0.55387664290E+03  0.00000000000E+00 0. -1.
         13    1    5    5    0    0  0.44651154950E+02  0.31405375647E+02  0.18870835672E+04  0.18878729864E+04  0.00000000000E+00 0. -1.
        -14    1    5    5    0    0  0.73780461918E+01 -0.10566557687E+02  0.49382341756E+02  0.51036294774E+02  0.00000000000E+00 0.  1.
          5    1    4    4  501    0  0.48607338117E+02 -0.13074644459E+02  0.17543704071E+03  0.18256299543E+03  0.41800000000E+01 0.  1.
         -5    1    4    4    0  501 -0.32075641231E+01  0.11718296352E+03  0.52995008229E+03  0.54277683953E+03  0.41800000000E+01 0.  1.
</event>
<event>
11    1  0.8041700E-009  0.1479794E+03  0.7561462E-02  0.1098962E+00
         22   -1    0    0    0    0  0.00000000000E+00  0.00000000000E+00  0.13706839910E+04  0.13706839910E+04  0.00000000000E+00 0. -1.
         22   -1    0    0    0    0 -0.00000000000E+00 -0.00000000000E+00 -0.12050235337E+03  0.12050235337E+03  0.00000000000E+00 0.  1.
         24    2    1    2    0    0 -0.64198954479E+02 -0.35219108984E+02 -0.56643689567E+02  0.12197065496E+03  0.79413107915E+02 0.  0.
         25    2    1    2    0    0  0.10524334301E+03 -0.31579739913E+02  0.21737897448E+03  0.27381658966E+03  0.12509382482E+03 0.  0.
        -24    2    1    2    0    0 -0.41044388528E+02  0.66798848897E+02  0.10894463527E+04  0.10953990998E+04  0.82819709247E+02 0.  0.
        -13    1    3    3    0    0  0.55913497182E+00 -0.26456586841E+02 -0.49633866019E+02  0.56247526836E+02  0.00000000000E+00 0.  1.
         14    1    3    3    0    0 -0.64758089451E+02 -0.87625221428E+01 -0.70098235476E+01  0.65723128119E+02  0.00000000000E+00 0. -1.
         13    1    5    5    0    0 -0.62363940138E+02  0.43778795732E+02  0.91389426737E+03  0.91706519720E+03  0.00000000000E+00 0. -1.
        -14    1    5    5    0    0  0.21319551610E+02  0.23020053165E+02  0.17555208537E+03  0.17833390257E+03  0.00000000000E+00 0.  1.
          5    1    4    4  501    0  0.40287568933E+02 -0.60330371782E+02  0.17851517309E+03  0.19273811609E+03  0.41800000000E+01 0. -1.
         -5    1    4    4    0  501  0.64955774073E+02  0.28750631869E+02  0.38863801391E+02  0.81078473573E+02  0.41800000000E+01 0. -1.
</event>
<event>
11    1  0.8041700E-009  0.1342208E+03  0.7561462E-02  0.1114189E+00
         22   -1    0    0    0    0  0.00000000000E+00  0.00000000000E+00  0.17163492971E+03  0.17163492971E+03  0.00000000000E+00 0.  1.
         22   -1    0    0    0    0 -0.00000000000E+00 -0.00000000000E+00 -0.37841063884E+04  0.37841063884E+04  0.00000000000E+00 0. -1.
         24    2    1    2    0    0 -0.45768472738E+02  0.76249796151E+01 -0.25008141424E+04  0.25028110365E+04  0.88537088215E+02 0.  0.
         25    2    1    2    0    0  0.59547488650E+02  0.21802802308E+02 -0.12672881625E+04  0.12750261862E+04  0.12510484768E+03 0.  0.
        -24    2    1    2    0    0 -0.13779015912E+02 -0.29427781923E+02  0.15563084622E+03  0.17790409550E+03  0.79831392769E+02 0.  0.
        -13    1    3    3    0    0  0.23386945637E+02 -0.14201092239E+02 -0.73054752099E+03  0.73105971074E+03  0.00000000000E+00 0.  1.
         14    1    3    3    0    0 -0.69155418376E+02  0.21826071854E+02 -0.17702666214E+04  0.17717513257E+04  0.00000000000E+00 0. -1.
         13    1    5    5    0    0  0.25769702810E+02  0.22977391308E+01  0.18798031934E+02  0.31980043662E+02  0.00000000000E+00 0. -1.
        -14    1    5    5    0    0 -0.39548718722E+02 -0.31725521054E+02  0.13683281429E+03  0.14592405184E+03  0.00000000000E+00 0.  1.
          5    1    4    4  501    0  0.81831283686E+02  0.94387483938E+01 -0.12018462523E+04  0.12046731239E+04  0.41800000000E+01 0.  1.
         -5    1    4    4    0  501 -0.22283795036E+02  0.12364053914E+02 -0.65441910256E+02  0.70353062253E+02  0.41800000000E+01 0.  1.
</event>
<event>
11    1  0.8041700E-009  0.1535136E+03  0.7561462E-02  0.1093342E+00
         22   -1    0    0    0    0  0.00000000000E+00  0.00000000000E+00  0.14753804522E+04  0.14753804522E+04  0.00000000000E+00 0.  1.
         22   -1    0    0    0    0 -0.00000000000E+00 -0.00000000000E+00 -0.31595386226E+03  0.31595386226E+03  0.00000000000E+00 0. -1.
        -24    2    1    2    0    0  0.17606343070E+02  0.37109555786E+02 -0.29040719762E+03  0.30388334068E+03  0.79508753392E+02 0.  0.
         25    2    1    2    0    0 -0.99145839794E+02 -0.31184693354E+01  0.39637048235E+03  0.42731323510E+03  0.12508964471E+03 0.  0.
         24    2    1    2    0    0  0.81539496724E+02 -0.33991086450E+02  0.10534633052E+04  0.10601377387E+04  0.79391473600E+02 0.  0.
        -13    1    5    5    0    0  0.85391977461E+02 -0.29432233641E+02  0.10484772834E+04  0.10523605181E+04  0.00000000000E+00 0.  1.
         14    1    5    5    0    0 -0.38524807371E+01 -0.45588528090E+01  0.49860217675E+01  0.77772205723E+01  0.00000000000E+00 0. -1.
         13    1    3    3    0    0  0.34669632705E+01  0.22457634703E+02 -0.28017540101E+03  0.28109539399E+03  0.00000000000E+00 0. -1.
        -14    1    3    3    0    0  0.14139379799E+02  0.14651921083E+02 -0.10231796612E+02  0.22787946692E+02  0.00000000000E+00 0.  1.
          5    1    4    4  501    0  0.27576152819E+02  0.10473763116E+02  0.10744379993E+03  0.11149792133E+03  0.41800000000E+01 0. -1.
         -5    1    4    4    0  501 -0.12672199261E+03 -0.13592232452E+02  0.28892668242E+03  0.31581531377E+03  0.41800000000E+01 0. -1.
</event>
<event>
11    1  0.8276170E-009  0.1530758E+03  0.7561462E-02  0.1093777E+00
         22   -1    0    0    0    0  0.00000000000E+00  0.00000000000E+00  0.53300880753E+03  0.53300880753E+03  0.00000000000E+00 0. -1.
         22   -1    0    0    0    0 -0.00000000000E+00 -0.00000000000E+00 -0.10625091568E+04  0.10625091568E+04  0.00000000000E+00 0. -1.
        -24    2    1    2    0    0 -0.92597302152E+02 -0.21187212327E+02 -0.93467514499E+03  0.94299561087E+03  0.81239996984E+02 0.  0.
         25    2    1    2    0    0  0.23165194129E+02  0.29660845943E+02 -0.82009533486E+02  0.15423983437E+03  0.12509184995E+03 0.  0.
         24    2    1    2    0    0  0.69432108023E+02 -0.84736336163E+01  0.48718432924E+03  0.49828251907E+03  0.77744955205E+02 0.  0.
        -11    1    5    5    0    0  0.12395204108E+01  0.20242874314E+02  0.38275274547E+02  0.43316359647E+02  0.00000000000E+00 0.  1.
         12    1    5    5    0    0  0.68192587613E+02 -0.28716507931E+02  0.44890905469E+03  0.45496615942E+03  0.00000000000E+00 0. -1.
         11    1    3    3    0    0 -0.49527886849E+02  0.28998714871E+02 -0.50687495716E+03  0.51011386889E+03  0.00000000000E+00 0. -1.
        -12    1    3    3    0    0 -0.43069415304E+02 -0.50185927198E+02 -0.42780018784E+03  0.43288174197E+03  0.00000000000E+00 0.  1.
          5    1    4    4  501    0  0.15496882906E+02  0.76485971046E+02 -0.70464128529E+02  0.10522795710E+03  0.41800000000E+01 0.  1.
         -5    1    4    4    0  501  0.76683112228E+01 -0.46825125102E+02 -0.11545404957E+02  0.49011877269E+02  0.41800000000E+01 0.  1.
</event>
<event>
11    1  0.8041700E-009  0.1359130E+03  0.7561462E-02  0.1112210E+00
         22   -1    0    0    0    0  0.00000000000E+00  0.00000000000E+00  0.18028616706E+03  0.18028616706E+03  0.00000000000E+00 0. -1.
         22   -1    0    0    0    0 -0.00000000000E+00 -0.00000000000E+00 -0.17659567746E+04  0.17659567746E+04  0.00000000000E+00 0.  1.
        -24    2    1    2    0    0 -0.12685947809E+02 -0.29422109813E+02 -0.16572818448E+04  0.16595302023E+04  0.80192177778E+02 0.  0.
         25    2    1    2    0    0  0.36780324336E+02  0.70516421272E+02 -0.27167659968E+02  0.15070300053E+03  0.12509178508E+03 0.  0.
         24    2    1    2    0    0 -0.24094376527E+02 -0.41094311459E+02  0.98778897196E+02  0.13600973887E+03  0.80449345064E+02 0.  0.
        -11    1    5    5    0    0 -0.62264618253E+00  0.20723753789E+02  0.49116054788E+02  0.53312742354E+02  0.00000000000E+00 0.  1.
         12    1    5    5    0    0 -0.23471730345E+02 -0.61818065248E+02  0.49662842408E+02  0.82696996514E+02  0.00000000000E+00 0. -1.
         11    1    3    3    0    0  0.13621362820E+02 -0.61844485292E+01 -0.59131957772E+02  0.60994896169E+02  0.00000000000E+00 0. -1.
        -12    1    3    3    0    0 -0.26307310629E+02 -0.23237661284E+02 -0.15981498870E+04  0.15985353061E+04  0.00000000000E+00 0.  1.
          5    1    4    4  501    0  0.67529619879E+02  0.18650697223E+02 -0.49916330614E+02  0.86123228747E+02  0.41800000000E+01 0.  1.
         -5    1    4    4    0  501 -0.30749295542E+02  0.51865724049E+02  0.22748670646E+02  0.64579771784E+02  0.41800000000E+01 0.  1.
</event>
<event>
11    1  0.8041700E-009  0.1589627E+03  0.7561462E-02  0.1088057E+00
         22   -1    0    0    0    0  0.00000000000E+00  0.00000000000E+00  0.20690118293E+04  0.20690118293E+04  0.00000000000E+00 0.  1.
         22   -1    0    0    0    0 -0.00000000000E+00 -0.00000000000E+00 -0.29590486940E+03  0.29590486940E+03  0.00000000000E+00 0. -1.
         24    2    1    2    0    0 -0.21801751201E+02  0.95266105061E+02 -0.27119558986E+03  0.29924734009E+03  0.80317964740E+02 0.  0.
         25    2    1    2    0    0  0.29730061575E+02 -0.11304083437E+03  0.71565212964E+03  0.73584466554E+03  0.12508914557E+03 0.  0.
        -24    2    1    2    0    0 -0.79283103742E+01  0.17774729310E+02  0.13286504202E+04  0.13298246931E+04  0.52373431550E+02 0.  0.
        -13    1    3    3    0    0 -0.13788656515E+02  0.16105784266E+02 -0.55133536723E+01  0.21907085704E+02  0.00000000000E+00 0.  1.
         14    1    3    3    0    0 -0.80130946856E+01  0.79160320795E+02 -0.26568223619E+03  0.27734025438E+03  0.00000000000E+00 0. -1.
         11    1    5    5    0    0  0.10185720623E+02  0.27978678616E+02  0.48183774757E+03  0.48275684391E+03  0.00000000000E+00 0. -1.
        -12    1    5    5    0    0 -0.18114030997E+02 -0.10203949306E+02  0.84681267259E+03  0.84706784920E+03  0.00000000000E+00 0.  1.
          5    1    4    4  501    0 -0.35123492963E+02 -0.98392755475E+02  0.44310940330E+03  0.45527816748E+03  0.41800000000E+01 0.  1.
         -5    1    4    4    0  501  0.64853554538E+02 -0.14648078896E+02  0.27254272634E+03  0.28056649806E+03  0.41800000000E+01 0.  1.
</event>
<event>
11    1  0.8041700E-009  0.1408974E+03  0.7561462E-02  0.1106560E+00
         22   -1    0    0    0    0  0.00000000000E+00  0.00000000000E+00  0.30664626410E+03  0.30664626410E+03  0.00000000000E+00 0. -1.
         22   -1    0    0    0    0 -0.00000000000E+00 -0.00000000000E+00 -0.20244294080E+04  0.20244294080E+04  0.00000000000E+00 0.  1.
        -24    2    1    2    0    0 -0.62133711785E+02  0.20356731580E+02 -0.19344090223E+04  0.19372735977E+04  0.82557448182E+02 0.  0.
         25    2    1    2    0    0  0.31580843000E+02 -0.42064674627E+02 -0.23270819274E+02  0.13767979025E+03  0.12508959636E+03 0.  0.
         24    2    1    2    0    0  0.30552868786E+02  0.21707943047E+02  0.23989669765E+03  0.25612228413E+03  0.81507584333E+02 0.  0.
        -11    1    5    5    0    0 -0.32339044075E+01 -0.19111554181E+02  0.13534659263E+02  0.23640994952E+02  0.00000000000E+00 0.  1.
         12    1    5    5    0    0  0.33786773193E+02  0.40819497228E+02  0.22636203839E+03  0.23248128918E+03  0.00000000000E+00 0. -1.
         11    1    3    3    0    0 -0.63542103652E+02  0.33340045359E+02 -0.92467544248E+03  0.92745556847E+03  0.00000000000E+00 0. -1.
        -12    1    3    3    0    0  0.14083918669E+01 -0.12983313779E+02 -0.10097335798E+04  0.10098180293E+04  0.00000000000E+00 0.  1.
          5    1    4    4  501    0  0.33079119492E+02  0.40801158307E+02 -0.78218902818E+01  0.53269287898E+02  0.41800000000E+01 0. -1.
         -5    1    4    4    0  501 -0.14982764926E+01 -0.82865832933E+02 -0.15448928992E+02  0.84410502351E+02  0.41800000000E+01 0. -1.
</event>
<event>
11    1  0.8041700E-009  0.2308714E+03  0.7561462E-02  0.1034613E+00
         22   -1    0    0    0    0  0.00000000000E+00  0.00000000000E+00  0.13247132519E+03  0.13247132519E+03  0.00000000000E+00 0.  1.
         22   -1    0    0    0    0 -0.00000000000E+00 -0.00000000000E+00 -0.20154612060E+04  0.20154612060E+04  0.00000000000E+00 0.  1.
        -24    2    1    2    0    0 -0.30402795526E+02 -0.61250808260E+02 -0.12837756066E+04  0.12882365626E+04  0.82447810954E+02 0.  0.
         25    2    1    2    0    0 -0.14792898148E+03  0.13841490504E+03 -0.60392986992E+03  0.64916963200E+03  0.12509298074E+03 0.  0.
         24    2    1    2    0    0  0.17833177700E+03 -0.77164096783E+02  0.47155957155E+01  0.21052633663E+03  0.80886222871E+02 0.  0.
        -13    1    5    5    0    0  0.16970375009E+03 -0.88673146724E+02  0.16146170449E+02  0.19215355465E+03  0.00000000000E+00 0.  1.
         14    1    5    5    0    0  0.86280269158E+01  0.11509049941E+02 -0.11430574733E+02  0.18372781982E+02  0.00000000000E+00 0. -1.
         11    1    3    3    0    0 -0.27620860545E+02 -0.20003451217E+02 -0.15514458256E+03  0.15884864335E+03  0.00000000000E+00 0. -1.
        -12    1    3    3    0    0 -0.27819349813E+01 -0.41247357043E+02 -0.11286310241E+04  0.11293879192E+04  0.00000000000E+00 0.  1.
          5    1    4    4  501    0 -0.54938314651E+01 -0.17234504920E+02 -0.15978916456E+02  0.24495071241E+02  0.41800000000E+01 0. -1.
         -5    1    4    4    0  501 -0.14243515001E+03  0.15564940996E+03 -0.58795095347E+03  0.62467456076E+03  0.41800000000E+01 0. -1.
</event>
<event>
11    1  0.8041700E-009  0.1397629E+03  0.7561462E-02  0.1107823E+00
         22   -1    0    0    0    0  0.00000000000E+00  0.00000000000E+00  0.29791908433E+03  0.29791908433E+03  0.00000000000E+00 0. -1.
         22   -1    0    0    0    0 -0.00000000000E+00 -0.00000000000E+00 -0.23058403553E+03  0.23058403553E+03  0.00000000000E+00 0.  1.
        -24    2    1    2    0    0  0.77149281624E+01 -0.59430251543E+02 -0.13779801650E+03  0.16571040276E+03  0.69858208641E+02 0.  0.
         25    2    1    2    0    0 -0.47432318381E+02  0.68845352150E+02  0.86798335063E+01  0.15070483322E+03  0.12508836839E+03 0.  0.
         24    2    1    2    0    0  0.39717390219E+02 -0.94151006073E+01  0.19645323179E+03  0.21208788388E+03  0.68711592925E+02 0.  0.
        -11    1    5    5    0    0  0.34304788179E+02  0.24247169807E+02  0.75264710524E+02  0.86194665646E+02  0.00000000000E+00 0.  1.
         12    1    5    5    0    0  0.54126020399E+01 -0.33662270414E+02  0.12118852127E+03  0.12589321823E+03  0.00000000000E+00 0. -1.
         11    1    3    3    0    0  0.87265451679E+01  0.14933527915E+02 -0.20490853947E+02  0.26814882846E+02  0.00000000000E+00 0. -1.
        -12    1    3    3    0    0 -0.10116170056E+01 -0.74363779458E+02 -0.11730716255E+03  0.13889551991E+03  0.00000000000E+00 0.  1.
          5    1    4    4  501    0 -0.21357589907E+02  0.43646515529E+01 -0.53118623882E+02  0.57569587743E+02  0.41800000000E+01 0.  1.
         -5    1    4    4    0  501 -0.26074728474E+02  0.64480700597E+02  0.61798457388E+02  0.93135245477E+02  0.41800000000E+01 0.  1.
</event>
<event>
11    1  0.8041700E-009  0.1640017E+03  0.7561462E-02  0.1083373E+00
         22   -1    0    0    0    0  0.00000000000E+00  0.00000000000E+00  0.46128991959E+03  0.46128991959E+03  0.00000000000E+00 0. -1.
         22   -1    0    0    0    0 -0.00000000000E+00 -0.00000000000E+00 -0.17172768003E+04  0.17172768003E+04  0.00000000000E+00 0.  1.
         24    2    1    2    0    0  0.98416605685E+02  0.33908444710E+02 -0.15809000882E+04  0.15863177654E+04  0.79519513321E+02 0.  0.
         25    2    1    2    0    0 -0.17794185171E+03 -0.21834022717E+02 -0.29158157097E+02  0.22054001657E+03  0.12509066170E+03 0.  0.
        -24    2    1    2    0    0  0.79525246027E+02 -0.12074421993E+02  0.35407136461E+03  0.37170893792E+03  0.79567247487E+02 0.  0.
        -13    1    3    3    0    0  0.81292780592E+02 -0.40313401861E+01 -0.12754643566E+04  0.12780587205E+04  0.00000000000E+00 0.  1.
         14    1    3    3    0    0  0.17123825093E+02  0.37939784896E+02 -0.30543573155E+03  0.30825904491E+03  0.00000000000E+00 0. -1.
         11    1    5    5    0    0  0.86716660281E+02 -0.55005458769E+01  0.35084600112E+03  0.36144564138E+03  0.00000000000E+00 0. -1.
        -12    1    5    5    0    0 -0.71914142539E+01 -0.65738761164E+01  0.32253634910E+01  0.10263296537E+02  0.00000000000E+00 0.  1.
          5    1    4    4  501    0 -0.17212062444E+03  0.18675136255E+02 -0.58987476814E+01  0.17328167155E+03  0.41800000000E+01 0.  1.
         -5    1    4    4    0  501 -0.58212272710E+01 -0.40509158971E+02 -0.23259409415E+02  0.47258345018E+02  0.41800000000E+01 0.  1.
</event>
<event>
11    1  0.8041700E-009  0.2212315E+03  0.7561462E-02  0.1040449E+00
         22   -1    0    0    0    0  0.00000000000E+00  0.00000000000E+00  0.67032948309E+03  0.67032948309E+03  0.00000000000E+00 0. -1.
         22   -1    0    0    0    0 -0.00000000000E+00 -0.00000000000E+00 -0.49371436548E+03  0.49371436548E+03  0.00000000000E+00 0. -1.
        -24    2    1    2    0    0 -0.43643577033E+02 -0.22873620331E+01 -0.39641574347E+03  0.40638949854E+03  0.78083218494E+02 0.  0.
         25    2    1    2    0    0  0.52579225793E+02  0.18332202079E+03  0.10804329903E+03  0.25237460828E+03  0.12509216662E+03 0.  0.
         24    2    1    2    0    0 -0.89356487605E+01 -0.18103465875E+03  0.46498756204E+03  0.50527974176E+03  0.78998677752E+02 0.  0.
        -13    1    5    5    0    0  0.25164438168E+02 -0.17888582416E+02  0.80704796821E+02  0.86408995822E+02  0.00000000000E+00 0.  1.
         14    1    5    5    0    0 -0.34100086929E+02 -0.16314607634E+03  0.38428276522E+03  0.41887074593E+03  0.00000000000E+00 0. -1.
         11    1    3    3    0    0 -0.64486487399E+02 -0.13388459701E+02 -0.29371944634E+03  0.30101307458E+03  0.00000000000E+00 0. -1.
        -12    1    3    3    0    0  0.20842910366E+02  0.11101097668E+02 -0.10269629713E+03  0.10537642396E+03  0.00000000000E+00 0.  1.
          5    1    4    4  501    0  0.68006919889E+00  0.62674987024E+02 -0.22905544666E+02  0.66863688718E+02  0.41800000000E+01 0.  1.
         -5    1    4    4    0  501  0.51899156594E+02  0.12064703376E+03  0.13094884370E+03  0.18551091956E+03  0.41800000000E+01 0.  1.
</event>
<event>
11    1  0.8041700E-009  0.1317546E+03  0.7561462E-02  0.1117132E+00
         22   -1    0    0    0    0  0.00000000000E+00  0.00000000000E+00  0.41019506744E+03  0.41019506744E+03  0.00000000000E+00 0.  1.
         22   -1    0    0    0    0 -0.00000000000E+00 -0.00000000000E+00 -0.55123043535E+03  0.55123043535E+03  0.00000000000E+00 0. -1.
         24    2    1    2    0    0  0.31752131921E+02 -0.24136891482E+02 -0.48177156134E+03  0.48985008191E+03  0.79110543033E+02 0.  0.
         25    2    1    2    0    0 -0.54236884174E+02  0.46972775418E+02  0.27868749409E+02  0.14689941414E+03  0.12511870142E+03 0.  0.
        -24    2    1    2    0    0  0.22484752252E+02 -0.22835883936E+02  0.31286744402E+03  0.32467600675E+03  0.80631446410E+02 0.  0.
        -13    1    3    3    0    0 -0.12074300792E+01  0.34474118928E+01  0.20058522463E+01  0.41672508190E+01  0.00000000000E+00 0.  1.
         14    1    3    3    0    0  0.32959562000E+02 -0.27584303375E+02 -0.48377741359E+03  0.48568283109E+03  0.00000000000E+00 0. -1.
         11    1    5    5    0    0  0.34606364026E+02  0.21523116183E+02  0.15111523641E+03  0.15651408766E+03  0.00000000000E+00 0. -1.
        -12    1    5    5    0    0 -0.12121611773E+02 -0.44359000119E+02  0.16175220761E+03  0.16816191908E+03  0.00000000000E+00 0.  1.
          5    1    4    4  501    0 -0.47870591068E+02  0.31970763300E+01  0.70462803595E+02  0.85348074828E+02  0.41800000000E+01 0.  1.
         -5    1    4    4    0  501 -0.63662931052E+01  0.43775699088E+02 -0.42594054186E+02  0.61551339308E+02  0.41800000000E+01 0.  1.
</event>
<event>
11    1  0.8041700E-009  0.1811767E+03  0.7561462E-02  0.1068695E+00
         22   -1    0    0    0    0  0.00000000000E+00  0.00000000000E+00  0.40927848083E+03  0.40927848083E+03  0.00000000000E+00 0. -1.
         22   -1    0    0    0    0 -0.00000000000E+00 -0.00000000000E+00 -0.65767753426E+03  0.65767753426E+03  0.00000000000E+00 0.  1.
        -24    2    1    2    0    0 -0.25201966966E+02 -0.51344628349E+02 -0.57703265855E+03  0.58534259733E+03  0.79924071556E+02 0.  0.
         25    2    1    2    0    0  0.14774510997E+03  0.34823196620E+02  0.14036082798E+03  0.24164013335E+03  0.12509004545E+03 0.  0.
         24    2    1    2    0    0 -0.12254314301E+03  0.16521431729E+02  0.18827277713E+03  0.23997328441E+03  0.82769312039E+02 0.  0.
        -11    1    5    5    0    0 -0.91810245873E+01 -0.17063925454E+02  0.21820833684E+01  0.19499493639E+02  0.00000000000E+00 0.  1.
         12    1    5    5    0    0 -0.11336211842E+03  0.33585357183E+02  0.18609069376E+03  0.22047379077E+03  0.00000000000E+00 0. -1.
         13    1    3    3    0    0 -0.45093912695E+02 -0.54680680879E+02 -0.33199580923E+03  0.33947703187E+03  0.00000000000E+00 0. -1.
        -14    1    3    3    0    0  0.19891945729E+02  0.33360525305E+01 -0.24503684932E+03  0.24586556545E+03  0.00000000000E+00 0.  1.
          5    1    4    4  501    0  0.55594880479E+02  0.15706544630E+02 -0.15105280605E+02  0.59859236395E+02  0.41800000000E+01 0.  1.
         -5    1    4    4    0  501  0.92150229494E+02  0.19116651989E+02  0.15546610859E+03  0.18178089696E+03  0.41800000000E+01 0.  1.
</event>
<event>
11    1  0.8707618E-009  0.1551288E+03  0.7561462E-02  0.1091750E+00
         22   -1    0    0    0    0  0.00000000000E+00  0.00000000000E+00  0.58122911056E+03  0.58122911056E+03  0.00000000000E+00 0. -1.
         22   -1    0    0    0    0 -0.00000000000E+00 -0.00000000000E+00 -0.99339049596E+03  0.99339049596E+03  0.00000000000E+00 0.  1.
        -24    2    1    2    0    0  0.68393659076E+01 -0.48415656501E+01 -0.77248900079E+03  0.77678682340E+03  0.81168312593E+02 0.  0.
         25    2    1    2    0    0  0.85021653630E+02  0.89139342696E+01 -0.18503292297E+03  0.23914900857E+03  0.12508767289E+03 0.  0.
         24    2    1    2    0    0 -0.91861019537E+02 -0.40723686195E+01  0.54536053836E+03  0.55868377455E+03  0.79084840818E+02 0.  0.
        -11    1    5    5    0    0 -0.54995839071E+02  0.22542265624E+02  0.16059332709E+03  0.17123934350E+03  0.00000000000E+00 0.  1.
         12    1    5    5    0    0 -0.36865180466E+02 -0.26614634243E+02  0.38476721127E+03  0.38744443105E+03  0.00000000000E+00 0. -1.
         13    1    3    3    0    0  0.15234591398E+02 -0.36606799204E+02 -0.23726073616E+03  0.24055104957E+03  0.00000000000E+00 0. -1.
        -14    1    3    3    0    0 -0.83952254904E+01  0.31765233554E+02 -0.53522826463E+03  0.53623577383E+03  0.00000000000E+00 0.  1.
          5    1    4    4  501    0  0.74476481726E+02 -0.48124543962E+02 -0.82058690492E+02  0.12088763025E+03  0.41800000000E+01 0. -1.
         -5    1    4    4    0  501  0.10545171904E+02  0.57038478231E+02 -0.10297423248E+03  0.11826137833E+03  0.41800000000E+01 0. -1.
</event>
<event>
11    1  0.8041700E-009  0.1309515E+03  0.7561462E-02  0.1118105E+00
         22   -1    0    0    0    0  0.00000000000E+00  0.00000000000E+00  0.45411293652E+03  0.45411293652E+03  0.00000000000E+00 0.  1.
         22   -1    0    0    0    0 -0.00000000000E+00 -0.00000000000E+00 -0.53427184196E+03  0.53427184196E+03  0.00000000000E+00 0.  1.
         24    2    1    2    0    0 -0.13649095868E+02 -0.51598446345E+01 -0.42056243746E+03  0.42864334313E+03  0.81544037159E+02 0.  0.
         25    2    1    2    0    0 -0.24357987670E+02  0.15021820704E+02 -0.65604435911E+02  0.14411809257E+03  0.12508843246E+03 0.  0.
        -24    2    1    2    0    0  0.38007083538E+02 -0.98619760697E+01  0.40600796793E+03  0.41562334278E+03  0.79740178478E+02 0.  0.
        -11    1    3    3    0    0  0.14257812153E+02 -0.29963897295E+02 -0.31361907795E+03  0.31536969797E+03  0.00000000000E+00 0.  1.
         12    1    3    3    0    0 -0.27906908021E+02  0.24804052661E+02 -0.10694335951E+03  0.11327364516E+03  0.00000000000E+00 0. -1.
         11    1    5    5    0    0  0.47088813163E+02 -0.19132716340E+02  0.13415422370E+03  0.14346000452E+03  0.00000000000E+00 0. -1.
        -12    1    5    5    0    0 -0.90817296255E+01  0.92707402703E+01  0.27185374423E+03  0.27216333826E+03  0.00000000000E+00 0.  1.
          5    1    4    4  501    0 -0.52491266288E+02 -0.36055041972E+02 -0.12278456736E+02  0.64988706618E+02  0.41800000000E+01 0.  1.
         -5    1    4    4    0  501  0.28133278619E+02  0.51076862676E+02 -0.53325979175E+02  0.79129385955E+02  0.41800000000E+01 0.  1.
</event>
<event>
11    1  0.1185842E-008  0.1564863E+03  0.7561462E-02  0.1090429E+00
         22   -1    0    0    0    0  0.00000000000E+00  0.00000000000E+00  0.14904329476E+04  0.14904329476E+04  0.00000000000E+00 0. -1.
         22   -1    0    0    0    0 -0.00000000000E+00 -0.00000000000E+00 -0.17929525160E+03  0.17929525160E+03  0.00000000000E+00 0. -1.
         24    2    1    2    0    0  0.71649259698E+02  0.22410918491E+02 -0.10446710085E+03  0.15139104148E+03  0.79812321089E+02 0.  0.
         25    2    1    2    0    0 -0.92024343234E+02 -0.11192830377E+03  0.14066140494E+03  0.23754736693E+03  0.12508675295E+03 0.  0.
        -24    2    1    2    0    0  0.20375083536E+02  0.89517385277E+02  0.12749433919E+04  0.12807897908E+04  0.80705200087E+02 0.  0.
        -13    1    3    3    0    0  0.33684038383E+01  0.34574797389E+02 -0.14133932307E+02  0.37503743832E+02  0.00000000000E+00 0.  1.
         14    1    3    3    0    0  0.68280855860E+02 -0.12163878898E+02 -0.90333168543E+02  0.11388729765E+03  0.00000000000E+00 0. -1.
         11    1    5    5    0    0 -0.34514369034E+01  0.92123054035E+02  0.11410519818E+04  0.11447699309E+04  0.00000000000E+00 0. -1.
        -12    1    5    5    0    0  0.23826520440E+02 -0.26056687587E+01  0.13389141015E+03  0.13601985993E+03  0.00000000000E+00 0.  1.
          5    1    4    4  501    0 -0.12115051889E+03 -0.69577379180E+02  0.99609524299E+02  0.17163329995E+03  0.41800000000E+01 0. -1.
         -5    1    4    4    0  501  0.29126175654E+02 -0.42350924587E+02  0.41051880643E+02  0.65914066981E+02  0.41800000000E+01 0. -1.
</event>
<event>
11    1  0.8041700E-009  0.1418647E+03  0.7561462E-02  0.1105494E+00
         22   -1    0    0    0    0  0.00000000000E+00  0.00000000000E+00  0.40044752671E+03  0.40044752671E+03  0.00000000000E+00 0.  1.
         22   -1    0    0    0    0 -0.00000000000E+00 -0.00000000000E+00 -0.27890708198E+03  0.27890708198E+03  0.00000000000E+00 0. -1.
        -24    2    1    2    0    0 -0.48243466493E+02  0.39533240875E+02 -0.17810687797E+03  0.20618270300E+03  0.83059844957E+02 0.  0.
         25    2    1    2    0    0  0.89531110253E+02 -0.35367022766E+02  0.81449260781E+00  0.15784242414E+03  0.12508765510E+03 0.  0.
         24    2    1    2    0    0 -0.41287643760E+02 -0.41662181094E+01  0.29883283010E+03  0.31532948155E+03  0.91703842302E+02 0.  0.
        -11    1    5    5    0    0 -0.37743540045E+02  0.16318002795E+02  0.28973318739E+03  0.29263658675E+03  0.00000000000E+00 0.  1.
         12    1    5    5    0    0 -0.35441037153E+01 -0.20484220904E+02  0.90996427089E+01  0.22692894805E+02  0.00000000000E+00 0. -1.
         11    1    3    3    0    0 -0.52329029448E+01  0.53838511844E+02 -0.12599751077E+03  0.13711798333E+03  0.00000000000E+00 0. -1.
        -12    1    3    3    0    0 -0.43010563548E+02 -0.14305270969E+02 -0.52109367196E+02  0.69064719675E+02  0.00000000000E+00 0.  1.
          5    1    4    4  501    0  0.70362031575E+02  0.27901704079E+02 -0.33916267812E+02  0.83048818174E+02  0.41800000000E+01 0. -1.
         -5    1    4    4    0  501  0.19169078678E+02 -0.63268726845E+02  0.34730760420E+02  0.74793605965E+02  0.41800000000E+01 0. -1.
</event>
<event>
11    1  0.8041700E-009  0.1888032E+03  0.7561462E-02  0.1062737E+00
         22   -1    0    0    0    0  0.00000000000E+00  0.00000000000E+00  0.60891505727E+03  0.60891505727E+03  0.00000000000E+00 0. -1.
         22   -1    0    0    0    0 -0.00000000000E+00 -0.00000000000E+00 -0.11807531764E+03  0.11807531764E+03  0.00000000000E+00 0.  1.
         24    2    1    2    0    0 -0.11015697801E+03  0.11637409623E+02  0.53883705637E+02  0.14712012879E+03  0.80441838946E+02 0.  0.
         25    2    1    2    0    0 -0.55450284843E+02 -0.10498838794E+03  0.23051054743E+03  0.28788918228E+03  0.12509105926E+03 0.  0.
        -24    2    1    2    0    0  0.16560726286E+03  0.93350978320E+02  0.20644548655E+03  0.29198106384E+03  0.80579352565E+02 0.  0.
        -11    1    3    3    0    0 -0.10411969967E+03 -0.17601102626E+02  0.50570519579E+02  0.11708154476E+03  0.00000000000E+00 0.  1.
         12    1    3    3    0    0 -0.60372783419E+01  0.29238512249E+02  0.33131860585E+01  0.30038584024E+02  0.00000000000E+00 0. -1.
         11    1    5    5    0    0  0.34675832213E+02  0.40842709104E+02  0.10611341926E+03  0.11887219176E+03  0.00000000000E+00 0. -1.
        -12    1    5    5    0    0  0.13093143064E+03  0.52508269215E+02  0.10033206729E+03  0.17310887208E+03  0.00000000000E+00 0.  1.
          5    1    4    4  501    0 -0.79116131669E+02 -0.11989932767E+03  0.20011271097E+03  0.24636919564E+03  0.41800000000E+01 0. -1.
         -5    1    4    4    0  501  0.23665846826E+02  0.14910939730E+02  0.30397836461E+02  0.41519986646E+02  0.41800000000E+01 0. -1.
</event>
<event>
11    1  0.8041700E-009  0.1494668E+03  0.7561462E-02  0.1097425E+00
         22   -1    0    0    0    0  0.00000000000E+00  0.00000000000E+00  0.24020489878E+03  0.24020489878E+03  0.00000000000E+00 0.  1.
         22   -1    0    0    0    0 -0.00000000000E+00 -0.00000000000E+00 -0.11864330159E+04  0.11864330159E+04  0.00000000000E+00 0.  1.
         24    2    1    2    0    0  0.11392718348E+02 -0.11163855530E+02 -0.10122230862E+04  0.10143693349E+04  0.63993325408E+02 0.  0.
         25    2    1    2    0    0 -0.90606446875E+02 -0.60116328692E+01 -0.12065224300E+03  0.19608688885E+03  0.12508971299E+03 0.  0.
        -24    2    1    2    0    0  0.79213728527E+02  0.17175488399E+02  0.18664721214E+03  0.21618169084E+03  0.72989927148E+02 0.  0.
        -13    1    3    3    0    0  0.22607408105E+02  0.11782086871E+02 -0.82709980093E+03  0.82749259403E+03  0.00000000000E+00 0.  1.
         14    1    3    3    0    0 -0.11214689756E+02 -0.22945942401E+02 -0.18512328529E+03  0.18687674091E+03  0.00000000000E+00 0. -1.
         11    1    5    5    0    0 -0.11083104244E+02  0.14944186738E+02  0.27844402640E+02  0.33488425990E+02  0.00000000000E+00 0. -1.
        -12    1    5    5    0    0  0.90296832770E+02  0.22313016605E+01  0.15880280950E+03  0.18269326485E+03  0.00000000000E+00 0.  1.
          5    1    4    4  501    0 -0.35877364946E+02  0.44470814092E+02 -0.10540747054E+03  0.11997102095E+03  0.41800000000E+01 0.  1.
         -5    1    4    4    0  501 -0.54729081929E+02 -0.50482446961E+02 -0.15244772460E+02  0.76115867908E+02  0.41800000000E+01 0.  1.
</event>
<event>
11    1  0.8041700E-009  0.1318488E+03  0.7561462E-02  0.1117018E+00
         22   -1    0    0    0    0  0.00000000000E+00  0.00000000000E+00  0.11781390116E+04  0.11781390116E+04  0.00000000000E+00 0. -1.
         22   -1    0    0    0    0 -0.00000000000E+00 -0.00000000000E+00 -0.72538215445E+03  0.72538215445E+03  0.00000000000E+00 0. -1.
        -24    2    1    2    0    0  0.25698860619E+02 -0.32974603800E+02 -0.69078868290E+03  0.69628836241E+03  0.76685873967E+02 0.  0.
         25    2    1    2    0    0 -0.20122005415E+02  0.28166435956E+02  0.10810913092E+03  0.16891985572E+03  0.12509232691E+03 0.  0.
         24    2    1    2    0    0 -0.55768552036E+01  0.48081678442E+01  0.10354364091E+04  0.10383129479E+04  0.76883032388E+02 0.  0.
        -11    1    5    5    0    0 -0.95200552841E+01  0.39257544061E+02  0.43326436123E+03  0.43514341651E+03  0.00000000000E+00 0.  1.
         12    1    5    5    0    0  0.39432000806E+01 -0.34449376217E+02  0.60217204791E+03  0.60316953142E+03  0.00000000000E+00 0. -1.
         11    1    3    3    0    0 -0.74714975590E+01  0.16589828962E+02 -0.33837458408E+03  0.33886340147E+03  0.00000000000E+00 0. -1.
        -12    1    3    3    0    0  0.33170358178E+02 -0.49564432762E+02 -0.35241409882E+03  0.35742496094E+03  0.00000000000E+00 0.  1.
          5    1    4    4  501    0  0.24209896197E+02  0.65228299636E+02  0.74146552818E+02  0.10176460014E+03  0.41800000000E+01 0.  1.
         -5    1    4    4    0  501 -0.44331901613E+02 -0.37061863681E+02  0.33962578097E+02  0.67155255573E+02  0.41800000000E+01 0.  1.
</event>
<event>
11    1  0.8041700E-009  0.1711764E+03  0.7561462E-02  0.1077012E+00
         22   -1    0    0    0    0  0.00000000000E+00  0.00000000000E+00  0.13999119055E+04  0.13999119055E+04  0.00000000000E+00 0.  1.
         22   -1    0    0    0    0 -0.00000000000E+00 -0.00000000000E+00 -0.49636555026E+03  0.49636555026E+03  0.00000000000E+00 0. -1.
         24    2    1    2    0    0  0.47493654976E+01 -0.47164556414E+02 -0.44860839480E+03  0.45810347019E+03  0.79763686350E+02 0.  0.
         25    2    1    2    0    0 -0.62763139902E+01  0.15936285905E+03  0.22605110868E+03  0.30361509376E+03  0.12508840258E+03 0.  0.
        -24    2    1    2    0    0  0.15269484926E+01 -0.11219830264E+03  0.11261036414E+04  0.11345588918E+04  0.80769283837E+02 0.  0.
        -13    1    3    3    0    0 -0.36207484406E+02 -0.15209548960E+02 -0.15266587141E+03  0.15763622870E+03  0.00000000000E+00 0.  1.
         14    1    3    3    0    0  0.40956849904E+02 -0.31955007454E+02 -0.29594252339E+03  0.30046724149E+03  0.00000000000E+00 0. -1.
         13    1    5    5    0    0  0.19593990424E+02 -0.40582303859E+02  0.17921951020E+03  0.18479848670E+03  0.00000000000E+00 0. -1.
        -14    1    5    5    0    0 -0.18067041931E+02 -0.71615998777E+02  0.94688413118E+03  0.94976040513E+03  0.00000000000E+00 0.  1.
          5    1    4    4  501    0 -0.19785500539E+02  0.68092130691E+02  0.14103705730E+02  0.72418169052E+02  0.41800000000E+01 0. -1.
         -5    1    4    4    0  501  0.13509186549E+02  0.91270728360E+02  0.21194740295E+03  0.23119692470E+03  0.41800000000E+01 0. -1.
</event>
<event>
11    1  0.8041700E-009  0.1277361E+03  0.7561462E-02  0.1122082E+00
         22   -1    0    0    0    0  0.00000000000E+00  0.00000000000E+00  0.78599657586E+03  0.78599657586E+03  0.00000000000E+00 0.  1.
         22   -1    0    0    0    0 -0.00000000000E+00 -0.00000000000E+00 -0.12753373080E+04  0.12753373080E+04  0.00000000000E+00 0. -1.
         24    2    1    2    0    0  0.16364343264E+02 -0.17671526484E+02 -0.10593336511E+04  0.10626698663E+04  0.80618769460E+02 0.  0.
         25    2    1    2    0    0 -0.40326087492E+02  0.28733422646E+02 -0.19081090518E+03  0.23346976147E+03  0.12509006785E+03 0.  0.
        -24    2    1    2    0    0  0.23961744228E+02 -0.11061896162E+02  0.76080382407E+03  0.76519425608E+03  0.77480707743E+02 0.  0.
        -13    1    3    3    0    0  0.18147861256E+02 -0.37428301422E+02 -0.27896253231E+03  0.28204665757E+03  0.00000000000E+00 0.  1.
         14    1    3    3    0    0 -0.17835179923E+01  0.19756774938E+02 -0.78037111875E+03  0.78062320877E+03  0.00000000000E+00 0. -1.
         13    1    5    5    0    0 -0.49631476004E+01 -0.36058387340E+02  0.21552081501E+03  0.21857278383E+03  0.00000000000E+00 0. -1.
        -14    1    5    5    0    0  0.28924891828E+02  0.24996491178E+02  0.54528300907E+03  0.54662147224E+03  0.00000000000E+00 0.  1.
          5    1    4    4  501    0 -0.56060031310E+02 -0.13314130236E+02 -0.27375495628E+02  0.63928736381E+02  0.41800000000E+01 0. -1.
         -5    1    4    4    0  501  0.15733943818E+02  0.42047552882E+02 -0.16343540955E+03  0.16954102509E+03  0.41800000000E+01 0. -1.
</event>
<event>
11    1  0.8041700E-009  0.1746092E+03  0.7561462E-02  0.1074089E+00
         22   -1    0    0    0    0  0.00000000000E+00  0.00000000000E+00  0.17642778699E+04  0.17642778699E+04  0.00000000000E+00 0.  1.
         22   -1    0    0    0    0 -0.00000000000E+00 -0.00000000000E+00 -0.38678510612E+03  0.38678510612E+03  0.00000000000E+00 0. -1.
        -24    2    1    2    0    0 -0.11396582822E+03 -0.18211186290E+02 -0.28164652091E+03  0.31466512368E+03  0.79809272689E+02 0.  0.
         25    2    1    2    0    0  0.16691114256E+03  0.51212149903E+02  0.45369708496E+02  0.21952307694E+03  0.12509978837E+03 0.  0.
         24    2    1    2    0    0 -0.52945314345E+02 -0.33000963613E+02  0.16137695762E+04  0.16168747754E+04  0.78355116941E+02 0.  0.
        -13    1    5    5    0    0 -0.16578982467E+02  0.21734995464E+02  0.24336854192E+03  0.24489899935E+03  0.00000000000E+00 0.  1.
         14    1    5    5    0    0 -0.36366331878E+02 -0.54735959077E+02  0.13704010343E+04  0.13719757761E+04  0.00000000000E+00 0. -1.
         13    1    3    3    0    0 -0.82375193958E+02 -0.33913262585E+02 -0.12138024601E+03  0.15056210041E+03  0.00000000000E+00 0. -1.
        -14    1    3    3    0    0 -0.31590634262E+02  0.15702076296E+02 -0.16026627490E+03  0.16410302326E+03  0.00000000000E+00 0.  1.
          5    1    4    4  501    0  0.51361192584E+02  0.62872679805E+02  0.61852889800E+02  0.10214792385E+03  0.41800000000E+01 0.  1.
         -5    1    4    4    0  501  0.11554994998E+03 -0.11660529903E+02 -0.16483181304E+02  0.11737515309E+03  0.41800000000E+01 0.  1.
</event>
<event>
11    1  0.8041700E-009  0.1699603E+03  0.7561462E-02  0.1078066E+00
         22   -1    0    0    0    0  0.00000000000E+00  0.00000000000E+00  0.48202154443E+03  0.48202154443E+03  0.00000000000E+00 0.  1.
         22   -1    0    0    0    0 -0.00000000000E+00 -0.00000000000E+00 -0.52274484025E+03  0.52274484025E+03  0.00000000000E+00 0.  1.
         24    2    1    2    0    0  0.10308848862E+03  0.24590619243E+02 -0.36498617808E+03  0.38789032810E+03  0.77537483882E+02 0.  0.
         25    2    1    2    0    0 -0.19776024029E+03 -0.96313741815E+01 -0.34668593934E+02  0.23675080695E+03  0.12508859731E+03 0.  0.
        -24    2    1    2    0    0  0.94671751671E+02 -0.14959245062E+02  0.35893147619E+03  0.38012524962E+03  0.80479073190E+02 0.  0.
        -13    1    3    3    0    0  0.34995859481E+02  0.47896295327E+02 -0.16102488876E+03  0.17160355500E+03  0.00000000000E+00 0.  1.
         14    1    3    3    0    0  0.68092629138E+02 -0.23305676084E+02 -0.20396128932E+03  0.21628677311E+03  0.00000000000E+00 0. -1.
         11    1    5    5    0    0  0.30682635965E+02  0.50184931613E+01  0.26050254951E+02  0.40561375795E+02  0.00000000000E+00 0. -1.
        -12    1    5    5    0    0  0.63989115705E+02 -0.19977738223E+02  0.33288122124E+03  0.33956387383E+03  0.00000000000E+00 0.  1.
          5    1    4    4  501    0 -0.91171331611E+02 -0.24730996836E+02 -0.76046165268E+02  0.12134383200E+03  0.41800000000E+01 0.  1.
         -5    1    4    4    0  501 -0.10658890868E+03  0.15099622655E+02  0.41377571335E+02  0.11540697495E+03  0.41800000000E+01 0.  1.
</event>
<event>
11    1  0.8041700E-009  0.1271101E+03  0.7561462E-02  0.1122872E+00
         22   -1    0    0    0    0  0.00000000000E+00  0.00000000000E+00  0.40398615284E+03  0.40398615284E+03  0.00000000000E+00 0. -1.
         22   -1    0    0    0    0 -0.00000000000E+00 -0.00000000000E+00 -0.11779329137E+04  0.11779329137E+04  0.00000000000E+00 0.  1.
         24    2    1    2    0    0 -0.39788425661E+02 -0.56159071770E+01 -0.92855059444E+03  0.93299455630E+03  0.81596436342E+02 0.  0.
         25    2    1    2    0    0  0.18384569297E+02 -0.40526045356E+01 -0.22436342361E+03  0.25757160023E+03  0.12509903037E+03 0.  0.
        -24    2    1    2    0    0  0.21403856365E+02  0.96685117126E+01  0.37896725723E+03  0.39135290997E+03  0.94811987104E+02 0.  0.
        -11    1    3    3    0    0 -0.50146266867E+02 -0.33607651241E+02 -0.67476889613E+03  0.67746378906E+03  0.00000000000E+00 0.  1.
         12    1    3    3    0    0  0.10357841206E+02  0.27991744064E+02 -0.25378169831E+03  0.25553076724E+03  0.00000000000E+00 0. -1.
         13    1    5    5    0    0  0.31094123108E+02  0.23462521035E+02  0.37040125770E+03  0.37244385630E+03  0.00000000000E+00 0. -1.
        -14    1    5    5    0    0 -0.96902667434E+01 -0.13794009323E+02  0.85659995307E+01  0.18909053671E+02  0.00000000000E+00 0.  1.
          5    1    4    4  501    0 -0.46203702710E+02  0.19038197356E+02 -0.53103060154E+02  0.73038637038E+02  0.41800000000E+01 0.  1.
         -5    1    4    4    0  501  0.64588272006E+02 -0.23090801891E+02 -0.17126036346E+03  0.18453296319E+03  0.41800000000E+01 0.  1.
</event>
<event>
11    1  0.8041700E-009  0.1473621E+03  0.7561462E-02  0.1099605E+00
         22   -1    0    0    0    0  0.00000000000E+00  0.00000000000E+00  0.25235972987E+04  0.25235972987E+04  0.00000000000E+00 0.  1.
         22   -1    0    0    0    0 -0.00000000000E+00 -0.00000000000E+00 -0.18787994196E+04  0.18787994196E+04  0.00000000000E+00 0. -1.
        -24    2    1    2    0    0 -0.28405011153E+02  0.12970347162E+02 -0.18481872827E+04  0.18503131219E+04  0.82990014835E+02 0.  0.
         25    2    1    2    0    0  0.10155370002E+03 -0.35259808532E+02  0.21308283865E+03  0.26946002754E+03  0.12509197508E+03 0.  0.
         24    2    1    2    0    0 -0.73148688871E+02  0.22289461370E+02  0.22799023232E+04  0.22826235689E+04  0.81044451494E+02 0.  0.
        -13    1    5    5    0    0 -0.65774573936E+02  0.45341260193E+02  0.20248940362E+04  0.20264693391E+04  0.00000000000E+00 0.  1.
         14    1    5    5    0    0 -0.73741149350E+01 -0.23051798823E+02  0.25500828701E+03  0.25615422980E+03  0.00000000000E+00 0. -1.
         11    1    3    3    0    0  0.42204966328E+01 -0.11289323691E+01 -0.15512754556E+04  0.15512816076E+04  0.00000000000E+00 0. -1.
        -12    1    3    3    0    0 -0.32625507786E+02  0.14099279532E+02 -0.29691182711E+03  0.29903151425E+03  0.00000000000E+00 0.  1.
          5    1    4    4  501    0  0.17167755060E+02 -0.69637710009E+02  0.74040304127E+02  0.10316773480E+03  0.41800000000E+01 0. -1.
         -5    1    4    4    0  501  0.84385944964E+02  0.34377901477E+02  0.13904253452E+03  0.16629229274E+03  0.41800000000E+01 0. -1.
</event>
<event>
11    1  0.1408755E-008  0.1741839E+03  0.7561462E-02  0.1074447E+00
         22   -1    0    0    0    0  0.00000000000E+00  0.00000000000E+00  0.67158783292E+03  0.67158783292E+03  0.00000000000E+00 0. -1.
         22   -1    0    0    0    0 -0.00000000000E+00 -0.00000000000E+00 -0.86824810393E+03  0.86824810393E+03  0.00000000000E+00 0.  1.
        -24    2    1    2    0    0  0.52818364362E+01  0.23504655017E+01 -0.63092077904E+03  0.63605320457E+03  0.80431505849E+02 0.  0.
         25    2    1    2    0    0 -0.86974459666E+01  0.11889308043E+03 -0.19340820198E+03  0.25935561592E+03  0.12508953904E+03 0.  0.
         24    2    1    2    0    0  0.34156095305E+01 -0.12124354593E+03  0.62766871002E+03  0.64442711635E+03  0.81281209006E+02 0.  0.
        -11    1    5    5    0    0 -0.15831469033E+02 -0.92148211983E+01  0.24226360047E+02  0.30372106654E+02  0.00000000000E+00 0.  1.
         12    1    5    5    0    0  0.19247078564E+02 -0.11202872473E+03  0.60344234997E+03  0.61405500970E+03  0.00000000000E+00 0. -1.
         13    1    3    3    0    0 -0.41297165063E+01 -0.18367864566E+01  0.50095628362E+00  0.45474498466E+01  0.00000000000E+00 0. -1.
        -14    1    3    3    0    0  0.94115529424E+01  0.41872519582E+01 -0.63142173533E+03  0.63150575473E+03  0.00000000000E+00 0.  1.
          5    1    4    4  501    0  0.10965911771E+02  0.13539543798E+03 -0.11937521797E+03  0.18088695616E+03  0.41800000000E+01 0. -1.
         -5    1    4    4    0  501 -0.19663357738E+02 -0.16502357547E+02 -0.74032984014E+02  0.78468659758E+02  0.41800000000E+01 0. -1.
</event>
<event>
11    1  0.8041700E-009  0.1336075E+03  0.7561462E-02  0.1114914E+00
         22   -1    0    0    0    0  0.00000000000E+00  0.00000000000E+00  0.23530355371E+04  0.23530355371E+04  0.00000000000E+00 0.  1.
         22   -1    0    0    0    0 -0.00000000000E+00 -0.00000000000E+00 -0.24885363803E+03  0.24885363803E+03  0.00000000000E+00 0.  1.
        -24    2    1    2    0    0 -0.59181452230E+01 -0.10228362790E+01 -0.20028681133E+03  0.21593997278E+03  0.80493443312E+02 0.  0.
         25    2    1    2    0    0  0.48047043813E+02  0.21400387896E+02  0.75951116917E+02  0.15550944653E+03  0.12509244892E+03 0.  0.
         24    2    1    2    0    0 -0.42128898590E+02 -0.20377551617E+02  0.22285175935E+04  0.22304397558E+04  0.79879604179E+02 0.  0.
        -13    1    5    5    0    0 -0.61410079343E+02  0.30292156111E+01  0.13511395752E+04  0.13525378093E+04  0.00000000000E+00 0.  1.
         14    1    5    5    0    0  0.19281180754E+02 -0.23406767228E+02  0.87737801830E+03  0.87790194651E+03  0.00000000000E+00 0. -1.
         13    1    3    3    0    0 -0.12446094893E+02 -0.12553645826E+02 -0.26684875121E+01  0.17877922900E+02  0.00000000000E+00 0. -1.
        -14    1    3    3    0    0  0.65279496703E+01  0.11530809547E+02 -0.19761832382E+03  0.19806204988E+03  0.00000000000E+00 0.  1.
          5    1    4    4  501    0  0.71984650072E+01  0.48543635428E+02 -0.15516540883E+02  0.51638530963E+02  0.41800000000E+01 0. -1.
         -5    1    4    4    0  501  0.40848578806E+02 -0.27143247532E+02  0.91467657800E+02  0.10387091557E+03  0.41800000000E+01 0. -1.
</event>
<event>
11    1  0.8041700E-009  0.1452438E+03  0.7561462E-02  0.1101840E+00
         22   -1    0    0    0    0  0.00000000000E+00  0.00000000000E+00  0.91130379560E+02  0.91130379560E+02  0.00000000000E+00 0. -1.
         22   -1    0    0    0    0 -0.00000000000E+00 -0.00000000000E+00 -0.55452783699E+03  0.55452783699E+03  0.00000000000E+00 0.  1.
         24    2    1    2    0    0 -0.85507256541E+02  0.10275569432E+03 -0.18368973480E+03  0.24105152938E+03  0.80583481602E+02 0.  0.
         25    2    1    2    0    0  0.54896432093E+02 -0.65657886937E+00 -0.62603497133E+02  0.15027236208E+03  0.12509410698E+03 0.  0.
        -24    2    1    2    0    0  0.30610824448E+02 -0.10209911546E+03 -0.21710422549E+03  0.25433432508E+03  0.78679427046E+02 0.  0.
        -13    1    3    3    0    0  0.22831580289E+01 -0.68363612499E+01 -0.38114533271E+02  0.38790028258E+02  0.00000000000E+00 0.  1.
         14    1    3    3    0    0 -0.87790414570E+02  0.10959205557E+03 -0.14557520153E+03  0.20226150112E+03  0.00000000000E+00 0. -1.
         11    1    5    5    0    0  0.29046707290E+02  0.75798168923E+00 -0.38651469523E+02  0.48355163498E+02  0.00000000000E+00 0. -1.
        -12    1    5    5    0    0  0.15641171575E+01 -0.10285709714E+03 -0.17845275597E+03  0.20597916158E+03  0.00000000000E+00 0.  1.
          5    1    4    4  501    0  0.47687216291E+02 -0.59954693972E+02 -0.34290865668E+02  0.84035538882E+02  0.41800000000E+01 0. -1.
         -5    1    4    4    0  501  0.72092158022E+01  0.59298115102E+02 -0.28312631464E+02  0.66236823200E+02  0.41800000000E+01 0. -1.
</event>
<event>
11    1  0.8041700E-009  0.1297251E+03  0.7561462E-02  0.1119607E+00
         22   -1    0    0    0    0  0.00000000000E+00  0.00000000000E+00  0.10456573864E+04  0.10456573864E+04  0.00000000000E+00 0. -1.
         22   -1    0    0    0    0 -0.00000000000E+00 -0.00000000000E+00 -0.24430771002E+03  0.24430771002E+03  0.00000000000E+00 0.  1.
        -24    2    1    2    0    0 -0.14931297452E+02  0.25336731024E+02 -0.21270079319E+03  0.22950770915E+03  0.81038679356E+02 0.  0.
         25    2    1    2    0    0  0.47431859858E+02 -0.28403759069E+02  0.20268331231E+03  0.24449981180E+03  0.12507229117E+03 0.  0.
         24    2    1    2    0    0 -0.32500562406E+02  0.30670280450E+01  0.81136715729E+03  0.81595757552E+03  0.80027544631E+02 0.  0.
        -13    1    5    5    0    0 -0.44226677794E+02  0.30897918945E+02  0.60370529737E+03  0.60611118328E+03  0.00000000000E+00 0.  1.
         14    1    5    5    0    0  0.11726115387E+02 -0.27830890900E+02  0.20766185991E+03  0.20984639223E+03  0.00000000000E+00 0. -1.
         11    1    3    3    0    0 -0.17437661767E+02 -0.15734339383E+02 -0.15689746823E+02  0.28245524231E+02  0.00000000000E+00 0. -1.
        -12    1    3    3    0    0  0.25063643158E+01  0.41071070407E+02 -0.19701104637E+03  0.20126218492E+03  0.00000000000E+00 0.  1.
          5    1    4    4  501    0  0.59340271598E+02 -0.37982143880E+01  0.20797139428E+03  0.21634525071E+03  0.41800000000E+01 0. -1.
         -5    1    4    4    0  501 -0.11908411740E+02 -0.24605544681E+02 -0.52880819622E+01  0.28154561088E+02  0.41800000000E+01 0. -1.
</event>
<event>
11    1  0.8041700E-009  0.1444510E+03  0.7561462E-02  0.1102687E+00
         22   -1    0    0    0    0  0.00000000000E+00  0.00000000000E+00  0.40973188201E+02  0.40973188201E+02  0.00000000000E+00 0.  1.
         22   -1    0    0    0    0 -0.00000000000E+00 -0.00000000000E+00 -0.16243960290E+04  0.16243960290E+04  0.00000000000E+00 0.  1.
        -24    2    1    2    0    0  0.32259535517E+02  0.89967177167E+01 -0.88760146126E+03  0.89194008880E+03  0.81235148863E+02 0.  0.
         25    2    1    2    0    0 -0.88846207106E+02  0.31041490852E+02 -0.62649131464E+03  0.64575263927E+03  0.12509149106E+03 0.  0.
         24    2    1    2    0    0  0.56586671589E+02 -0.40038208569E+02 -0.69330064947E+02  0.12767648918E+03  0.81789476323E+02 0.  0.
        -13    1    5    5    0    0  0.41291755500E+02 -0.56669657383E+02 -0.76690346521E+02  0.10391279223E+03  0.00000000000E+00 0.  1.
         14    1    5    5    0    0  0.15294916089E+02  0.16631448814E+02  0.73602815735E+01  0.23763696948E+02  0.00000000000E+00 0. -1.
         13    1    3    3    0    0 -0.20189016966E+02  0.65306176785E+01 -0.84479262779E+02  0.87103336405E+02  0.00000000000E+00 0. -1.
        -14    1    3    3    0    0  0.52448552483E+02  0.24661000382E+01 -0.80312219848E+03  0.80483675239E+03  0.00000000000E+00 0.  1.
          5    1    4    4  501    0 -0.89584122835E+02  0.67587282815E+02 -0.37092127899E+03  0.38754796280E+03  0.41800000000E+01 0. -1.
         -5    1    4    4    0  501  0.73791572979E+00 -0.36545791962E+02 -0.25557003565E+03  0.25820467647E+03  0.41800000000E+01 0. -1.
</event>
<event>
11    1  0.8041700E-009  0.1634712E+03  0.7561462E-02  0.1083857E+00
         22   -1    0    0    0    0  0.00000000000E+00  0.00000000000E+00  0.63962721427E+03  0.63962721427E+03  0.00000000000E+00 0. -1.
         22   -1    0    0    0    0 -0.00000000000E+00 -0.00000000000E+00 -0.21257685279E+03  0.21257685279E+03  0.00000000000E+00 0. -1.
         24    2    1    2    0    0  0.32235572226E+01  0.15878090094E+02 -0.14230440580E+03  0.16430871777E+03  0.80525187107E+02 0.  0.
         25    2    1    2    0    0  0.44855987634E+02  0.80337915780E+02  0.68974792044E+02  0.16991559130E+03  0.12509015105E+03 0.  0.
        -24    2    1    2    0    0 -0.48079544857E+02 -0.96216005873E+02  0.50037997524E+03  0.51797975799E+03  0.79710398627E+02 0.  0.
        -11    1    3    3    0    0 -0.26320206909E+01  0.42649982408E+02 -0.40479004843E+02  0.58859989513E+02  0.00000000000E+00 0.  1.
         12    1    3    3    0    0  0.58555779135E+01 -0.26771892315E+02 -0.10182540096E+03  0.10544872826E+03  0.00000000000E+00 0. -1.
         13    1    5    5    0    0 -0.25050969749E+02 -0.96415426545E+02  0.46647534683E+03  0.47699343261E+03  0.00000000000E+00 0. -1.
        -14    1    5    5    0    0 -0.23028575108E+02  0.19942067173E+00  0.33904628415E+02  0.40986325379E+02  0.00000000000E+00 0.  1.
          5    1    4    4  501    0 -0.18349295044E+02  0.85064084632E+02  0.59958191832E+02  0.10575940758E+03  0.41800000000E+01 0. -1.
         -5    1    4    4    0  501  0.63205282678E+02 -0.47261688526E+01  0.90166002113E+01  0.64156183722E+02  0.41800000000E+01 0. -1.
</event>
<event>
11    1  0.8041700E-009  0.2121258E+03  0.7561462E-02  0.1046265E+00
         22   -1    0    0    0    0  0.00000000000E+00  0.00000000000E+00  0.19993063560E+04  0.19993063560E+04  0.00000000000E+00 0.  1.
         22   -1    0    0    0    0 -0.00000000000E+00 -0.00000000000E+00 -0.34931381514E+03  0.34931381514E+03  0.00000000000E+00 0. -1.
         24    2    1    2    0    0  0.90456766815E+02 -0.13605983999E+03 -0.19981348205E+03  0.26986542808E+03  0.78785880375E+02 0.  0.
         25    2    1    2    0    0 -0.99526427942E+02  0.17263567812E+03  0.86426103060E+01  0.23543542549E+03  0.12508620086E+03 0.  0.
        -24    2    1    2    0    0  0.90696611268E+01 -0.36575838131E+02  0.18411634126E+04  0.18433193175E+04  0.80767220394E+02 0.  0.
        -11    1    3    3    0    0  0.41865201220E+02 -0.88517474807E+02 -0.16879888501E+03  0.19514379826E+03  0.00000000000E+00 0.  1.
         12    1    3    3    0    0  0.48591565596E+02 -0.47542365179E+02 -0.31014597041E+02  0.74721629823E+02  0.00000000000E+00 0. -1.
         13    1    5    5    0    0 -0.34317815470E+01 -0.57817904077E+02  0.91703792389E+03  0.91886519196E+03  0.00000000000E+00 0. -1.
        -14    1    5    5    0    0  0.12501442674E+02  0.21242065946E+02  0.92412548868E+03  0.92445412556E+03  0.00000000000E+00 0.  1.
          5    1    4    4  501    0 -0.10271664030E+03  0.15907991475E+03 -0.32162513647E+02  0.19211722244E+03  0.41800000000E+01 0. -1.
         -5    1    4    4    0  501  0.31902123604E+01  0.13555763367E+02  0.40805123953E+02  0.43318203058E+02  0.41800000000E+01 0. -1.
</event>
<event>
11    1  0.1014796E-008  0.2353993E+03  0.7561462E-02  0.1031978E+00
         22   -1    0    0    0    0  0.00000000000E+00  0.00000000000E+00  0.20594114025E+04  0.20594114025E+04  0.00000000000E+00 0. -1.
         22   -1    0    0    0    0 -0.00000000000E+00 -0.00000000000E+00 -0.48937460188E+03  0.48937460188E+03  0.00000000000E+00 0. -1.
        -24    2    1    2    0    0 -0.20097599511E+02 -0.18403849363E+02 -0.25896371487E+03  0.27226065509E+03  0.79504990500E+02 0.  0.
         25    2    1    2    0    0 -0.12289061128E+03  0.15745743382E+03 -0.15423302313E+03  0.28165569272E+03  0.12508860065E+03 0.  0.
         24    2    1    2    0    0  0.14298821079E+03 -0.13905358446E+03  0.19832335386E+04  0.19948696566E+04  0.80673107051E+02 0.  0.
        -11    1    5    5    0    0  0.43875203245E+02 -0.74782074608E+02  0.55179875439E+03  0.55856893710E+03  0.00000000000E+00 0.  1.
         12    1    5    5    0    0  0.99113007548E+02 -0.64271509848E+02  0.14314347842E+04  0.14363007195E+04  0.00000000000E+00 0. -1.
         11    1    3    3    0    0 -0.45032661558E+02 -0.31322357074E+02 -0.19106815863E+03  0.19878649829E+03  0.00000000000E+00 0. -1.
        -12    1    3    3    0    0  0.24935062047E+02  0.12918507711E+02 -0.67895556240E+02  0.73474156804E+02  0.00000000000E+00 0.  1.
          5    1    4    4  501    0 -0.15802628054E+02  0.51105999262E+02  0.14153826789E+02  0.55491886135E+02  0.41800000000E+01 0.  1.
         -5    1    4    4    0  501 -0.10708798323E+03  0.10635143456E+03 -0.16838684992E+03  0.22616380659E+03  0.41800000000E+01 0.  1.
</event>
<event>
11    1  0.8041700E-009  0.1282285E+03  0.7561462E-02  0.1121465E+00
         22   -1    0    0    0    0  0.00000000000E+00  0.00000000000E+00  0.26325624885E+03  0.26325624885E+03  0.00000000000E+00 0.  1.
         22   -1    0    0    0    0 -0.00000000000E+00 -0.00000000000E+00 -0.12666200204E+04  0.12666200204E+04  0.00000000000E+00 0.  1.
        -24    2    1    2    0    0  0.10914905557E+02 -0.30221196478E+02 -0.11307268025E+04  0.11337664414E+04  0.76490430098E+02 0.  0.
         25    2    1    2    0    0 -0.52194181685E+01  0.64102951340E+00 -0.95237512522E+02  0.15730391840E+03  0.12508671276E+03 0.  0.
         24    2    1    2    0    0 -0.56954873890E+01  0.29580166964E+02  0.22260054353E+03  0.23880590938E+03  0.81054521915E+02 0.  0.
        -13    1    5    5    0    0  0.19983073796E+02  0.43741387143E+02  0.18485492067E+03  0.19100778487E+03  0.00000000000E+00 0.  1.
         14    1    5    5    0    0 -0.25678561185E+02 -0.14161220178E+02  0.37745622865E+02  0.47798124513E+02  0.00000000000E+00 0. -1.
         11    1    3    3    0    0  0.25612694511E+02 -0.28912954126E+02 -0.25441842989E+03  0.25733384251E+03  0.00000000000E+00 0. -1.
        -12    1    3    3    0    0 -0.14697788953E+02 -0.13082423522E+01 -0.87630837263E+03  0.87643259892E+03  0.00000000000E+00 0.  1.
          5    1    4    4  501    0 -0.34318604834E+02  0.33803384612E+02 -0.10161339324E+03  0.11253083815E+03  0.41800000000E+01 0.  1.
         -5    1    4    4    0  501  0.29099186666E+02 -0.33162355099E+02  0.63758807198E+01  0.44773080252E+02  0.41800000000E+01 0.  1.
</event>
<event>
11    1  0.8041700E-009  0.1356299E+03  0.7561462E-02  0.1112539E+00
         22   -1    0    0    0    0  0.00000000000E+00  0.00000000000E+00  0.19678524623E+03  0.19678524623E+03  0.00000000000E+00 0. -1.
         22   -1    0    0    0    0 -0.00000000000E+00 -0.00000000000E+00 -0.40714775125E+03  0.40714775125E+03  0.00000000000E+00 0. -1.
         24    2    1    2    0    0  0.29813000572E+02  0.51591665014E+02 -0.28952828480E+03  0.30670207452E+03  0.81786428669E+02 0.  0.
         25    2    1    2    0    0 -0.60674500216E+01 -0.16790282525E+02 -0.53915432652E+02  0.13737995770E+03  0.12509057264E+03 0.  0.
        -24    2    1    2    0    0 -0.23745550550E+02 -0.34801382489E+02  0.13308121243E+03  0.15985096526E+03  0.77889245709E+02 0.  0.
        -13    1    3    3    0    0  0.26940717874E+02  0.47330157241E+02 -0.78110433511E+02  0.95221772129E+02  0.00000000000E+00 0.  1.
         14    1    3    3    0    0  0.28722826976E+01  0.42615077728E+01 -0.21141785129E+03  0.21148030239E+03  0.00000000000E+00 0. -1.
         11    1    5    5    0    0  0.92688196247E+01 -0.45027278638E+02  0.10729808510E+03  0.11673151205E+03  0.00000000000E+00 0. -1.
        -12    1    5    5    0    0 -0.33014370175E+02  0.10225896150E+02  0.25783127335E+02  0.43119453211E+02  0.00000000000E+00 0.  1.
          5    1    4    4  501    0  0.18511371579E+02 -0.66236071927E+02 -0.42140199723E+02  0.80766063014E+02  0.41800000000E+01 0. -1.
         -5    1    4    4    0  501 -0.24578821601E+02  0.49445789402E+02 -0.11775232929E+02  0.56613894685E+02  0.41800000000E+01 0. -1.
</event>
<event>
11    1  0.8041700E-009  0.1440434E+03  0.7561462E-02  0.1103125E+00
         22   -1    0    0    0    0  0.00000000000E+00  0.00000000000E+00  0.15024990387E+03  0.15024990387E+03  0.00000000000E+00 0. -1.
         22   -1    0    0    0    0 -0.00000000000E+00 -0.00000000000E+00 -0.25871191670E+03  0.25871191670E+03  0.00000000000E+00 0.  1.
         24    2    1    2    0    0  0.47260596716E+02  0.66257361599E+02 -0.11642318645E+03  0.16291271997E+03  0.79765870010E+02 0.  0.
         25    2    1    2    0    0  0.13853207525E+02 -0.49054351547E+02  0.34187134692E+02  0.13933495979E+03  0.12508888870E+03 0.  0.
        -24    2    1    2    0    0 -0.61113804241E+02 -0.17203010052E+02 -0.26225961068E+02  0.10671414080E+03  0.81665575306E+02 0.  0.
        -13    1    3    3    0    0  0.39714644036E+02  0.55794839493E+02 -0.12826376328E+03  0.14540257919E+03  0.00000000000E+00 0.  1.
         14    1    3    3    0    0  0.75459526802E+01  0.10462522106E+02  0.11840576828E+02  0.17510140785E+02  0.00000000000E+00 0. -1.
         11    1    5    5    0    0 -0.22142864074E+02 -0.47090772550E+02 -0.24641162413E+02  0.57576333452E+02  0.00000000000E+00 0. -1.
        -12    1    5    5    0    0 -0.38970940167E+02  0.29887762498E+02 -0.15847986555E+01  0.49137807352E+02  0.00000000000E+00 0.  1.
          5    1    4    4  501    0  0.56051521416E+02 -0.27195468196E+00  0.47204978299E+02  0.73400472673E+02  0.41800000000E+01 0. -1.
         -5    1    4    4    0  501 -0.42198313891E+02 -0.48782396865E+02 -0.13017843607E+02  0.65934487116E+02  0.41800000000E+01 0. -1.
</event>
<event>
11    1  0.8041700E-009  0.2320379E+03  0.7561462E-02  0.1033928E+00
         22   -1    0    0    0    0  0.00000000000E+00  0.00000000000E+00  0.33734677270E+04  0.33734677270E+04  0.00000000000E+00 0.  1.
         22   -1    0    0    0    0 -0.00000000000E+00 -0.00000000000E+00 -0.47850228975E+03  0.47850228975E+03  0.00000000000E+00 0. -1.
        -24    2    1    2    0    0 -0.13291702867E+02 -0.78079436598E+02 -0.37624707331E+03  0.39308837877E+03  0.81752954486E+02 0.  0.
         25    2    1    2    0    0 -0.12506665557E+03  0.21367800658E+03  0.12266126696E+03  0.30330424264E+03  0.12509084045E+03 0.  0.
         24    2    1    2    0    0  0.13835835844E+03 -0.13559856998E+03  0.31485512436E+04  0.31555773953E+04  0.82242062790E+02 0.  0.
        -11    1    5    5    0    0  0.13347106570E+03 -0.85593984733E+02  0.25476416814E+04  0.25525710553E+04  0.00000000000E+00 0.  1.
         12    1    5    5    0    0  0.48872927431E+01 -0.50004585244E+02  0.60090956215E+03  0.60300633998E+03  0.00000000000E+00 0. -1.
         13    1    3    3    0    0 -0.10914621988E+02 -0.95560879359E+02 -0.31889126266E+03  0.33308054286E+03  0.00000000000E+00 0. -1.
        -14    1    3    3    0    0 -0.23770808790E+01  0.17481442761E+02 -0.57355810650E+02  0.60007835904E+02  0.00000000000E+00 0.  1.
          5    1    4    4  501    0 -0.28795842262E+02 -0.47775951794E+01  0.41930779976E+02  0.51260985717E+02  0.41800000000E+01 0.  1.
         -5    1    4    4    0  501 -0.96270813311E+02  0.21845560175E+03  0.80730486980E+02  0.25204325693E+03  0.41800000000E+01 0.  1.
</event>
<event>
11    1  0.8041700E-009  0.1534977E+03  0.7561462E-02  0.1093357E+00
         22   -1    0    0    0    0  0.00000000000E+00  0.00000000000E+00  0.73804649365E+03  0.73804649365E+03  0.00000000000E+00 0.  1.
         22   -1    0    0    0    0 -0.00000000000E+00 -0.00000000000E+00 -0.22638661337E+03  0.22638661337E+03  0.00000000000E+00 0.  1.
        -24    2    1    2    0    0  0.38927134153E+02  0.70285999536E+02 -0.11566936700E+03  0.16134068851E+03  0.78714495493E+02 0.  0.
         25    2    1    2    0    0 -0.55178256851E+02 -0.11055195403E+03  0.70219216822E+01  0.17596390118E+03  0.12509041757E+03 0.  0.
         24    2    1    2    0    0  0.16251122697E+02  0.40265954491E+02  0.62030732559E+03  0.62712851734E+03  0.81385213590E+02 0.  0.
        -13    1    5    5    0    0 -0.30906203447E+02  0.14049015887E+02  0.33883765657E+03  0.34053417709E+03  0.00000000000E+00 0.  1.
         14    1    5    5    0    0  0.47157326144E+02  0.26216938604E+02  0.28146966903E+03  0.28659434024E+03  0.00000000000E+00 0. -1.
         13    1    3    3    0    0  0.33842906803E+02 -0.71725573125E+01 -0.30708177467E+02  0.46257757000E+02  0.00000000000E+00 0. -1.
        -14    1    3    3    0    0  0.50842273500E+01  0.77458556848E+02 -0.84961189535E+02  0.11508293151E+03  0.00000000000E+00 0.  1.
          5    1    4    4  501    0 -0.48337466786E+02 -0.13644194396E+03  0.19514597463E+02  0.14612052108E+03  0.41800000000E+01 0.  1.
         -5    1    4    4    0  501 -0.68407900647E+01  0.25889989935E+02 -0.12492675781E+02  0.29843380099E+02  0.41800000000E+01 0.  1.
</event>
<event>
11    1  0.8041700E-009  0.1407393E+03  0.7561462E-02  0.1106736E+00
         22   -1    0    0    0    0  0.00000000000E+00  0.00000000000E+00  0.48468095071E+03  0.48468095071E+03  0.00000000000E+00 0.  1.
         22   -1    0    0    0    0 -0.00000000000E+00 -0.00000000000E+00 -0.46055623918E+03  0.46055623918E+03  0.00000000000E+00 0. -1.
        -24    2    1    2    0    0  0.59351978799E+02 -0.29850202572E+02 -0.39722843340E+03  0.41007107670E+03  0.77163253343E+02 0.  0.
         25    2    1    2    0    0 -0.34011267675E+02  0.20625227541E+02  0.29939902219E+02  0.13463370112E+03  0.12509064471E+03 0.  0.
         24    2    1    2    0    0 -0.25340711124E+02  0.92249750308E+01  0.39141324271E+03  0.40053241207E+03  0.80589296718E+02 0.  0.
        -11    1    5    5    0    0 -0.93627189378E+01  0.32452640903E+02  0.68337523960E+02  0.76228941934E+02  0.00000000000E+00 0.  1.
         12    1    5    5    0    0 -0.15977992186E+02 -0.23227665872E+02  0.32307571875E+03  0.32430347014E+03  0.00000000000E+00 0. -1.
         13    1    3    3    0    0  0.71818445442E+02 -0.30180617494E+01 -0.26528674958E+03  0.27485279207E+03  0.00000000000E+00 0. -1.
        -14    1    3    3    0    0 -0.12466466644E+02 -0.26832140822E+02 -0.13194168381E+03  0.13521828463E+03  0.00000000000E+00 0.  1.
          5    1    4    4  501    0  0.27047383298E+01  0.56460519194E+02  0.53574050831E+02  0.77992032667E+02  0.41800000000E+01 0.  1.
         -5    1    4    4    0  501 -0.36716006005E+02 -0.35835291653E+02 -0.23634148611E+02  0.56641668455E+02  0.41800000000E+01 0.  1.
</event>
<event>
11    1  0.8041700E-009  0.1776508E+03  0.7561462E-02  0.1071559E+00
         22   -1    0    0    0    0  0.00000000000E+00  0.00000000000E+00  0.31730394158E+03  0.31730394158E+03  0.00000000000E+00 0. -1.
         22   -1    0    0    0    0 -0.00000000000E+00 -0.00000000000E+00 -0.15613788072E+04  0.15613788072E+04  0.00000000000E+00 0. -1.
        -24    2    1    2    0    0  0.16520076165E+02 -0.12431944471E+03 -0.14844896832E+04  0.14918129559E+04  0.77897617172E+02 0.  0.
         25    2    1    2    0    0 -0.61605247373E+01  0.16689207520E+03  0.14729756873E+03  0.25541241145E+03  0.12509200350E+03 0.  0.
         24    2    1    2    0    0 -0.10359551428E+02 -0.42572630495E+02  0.93117248801E+02  0.13145738143E+03  0.81795305092E+02 0.  0.
        -11    1    5    5    0    0  0.65834367426E+00  0.21240215832E+02  0.45346587645E+01  0.21728859038E+02  0.00000000000E+00 0.  1.
         12    1    5    5    0    0 -0.11017895102E+02 -0.63812846327E+02  0.88582590037E+02  0.10972852239E+03  0.00000000000E+00 0. -1.
         11    1    3    3    0    0 -0.81449160025E+01 -0.39050214409E+02 -0.87335675384E+03  0.87426728086E+03  0.00000000000E+00 0. -1.
        -12    1    3    3    0    0  0.24664992168E+02 -0.85269230299E+02 -0.61113292933E+03  0.61754567506E+03  0.00000000000E+00 0.  1.
          5    1    4    4  501    0  0.36367177476E+02  0.71846112379E+02  0.74085643948E+01  0.80974037123E+02  0.41800000000E+01 0. -1.
         -5    1    4    4    0  501 -0.42527702213E+02  0.95045962823E+02  0.13988900433E+03  0.17443837433E+03  0.41800000000E+01 0. -1.
</event>
<event>
11    1  0.8041700E-009  0.1436573E+03  0.7561462E-02  0.1103542E+00
         22   -1    0    0    0    0  0.00000000000E+00  0.00000000000E+00  0.11300535580E+03  0.11300535580E+03  0.00000000000E+00 0.  1.
         22   -1    0    0    0    0 -0.00000000000E+00 -0.00000000000E+00 -0.31843406317E+04  0.31843406317E+04  0.00000000000E+00 0.  1.
         24    2    1    2    0    0 -0.41002902642E+02 -0.13989144332E+02 -0.29096668692E+04  0.29110726219E+04  0.79407720679E+02 0.  0.
         25    2    1    2    0    0 -0.34468538342E+02  0.94920932762E+01 -0.22368115397E+03  0.25876761049E+03  0.12509691294E+03 0.  0.
        -24    2    1    2    0    0  0.75471440984E+02  0.44970510555E+01  0.62012747325E+02  0.12750575505E+03  0.81828936622E+02 0.  0.
        -11    1    3    3    0    0 -0.14675173574E+01  0.31076983196E+01 -0.22492206316E+04  0.22492232573E+04  0.00000000000E+00 0.  1.
         12    1    3    3    0    0 -0.39535385284E+02 -0.17096842651E+02 -0.66044623763E+03  0.66184936467E+03  0.00000000000E+00 0. -1.
         11    1    5    5    0    0 -0.10872613025E+02  0.13144769438E+01  0.35463594035E+02  0.37116142923E+02  0.00000000000E+00 0. -1.
        -12    1    5    5    0    0  0.86344054009E+02  0.31825741118E+01  0.26549153290E+02  0.90389612130E+02  0.00000000000E+00 0.  1.
          5    1    4    4  501    0 -0.38348683863E+01  0.55217914680E+02 -0.18003825439E+03  0.18840108747E+03  0.41800000000E+01 0.  1.
         -5    1    4    4    0  501 -0.30633669956E+02 -0.45725821404E+02 -0.43642899582E+02  0.70366523020E+02  0.41800000000E+01 0.  1.
</event>
<event>
11    1  0.8041700E-009  0.1446420E+03  0.7561462E-02  0.1102483E+00
         22   -1    0    0    0    0  0.00000000000E+00  0.00000000000E+00  0.80008950987E+03  0.80008950987E+03  0.00000000000E+00 0.  1.
         22   -1    0    0    0    0 -0.00000000000E+00 -0.00000000000E+00 -0.19227444780E+03  0.19227444780E+03  0.00000000000E+00 0.  1.
        -24    2    1    2    0    0 -0.51072563506E+02  0.11909058447E+02 -0.13807376439E+03  0.16813972750E+03  0.80351547196E+02 0.  0.
         25    2    1    2    0    0  0.10841712858E+03 -0.44993520783E+02  0.18107263056E+03  0.24942477523E+03  0.12508689092E+03 0.  0.
         24    2    1    2    0    0 -0.57344565076E+02  0.33084462336E+02  0.56481619589E+03  0.57479945494E+03  0.83630720796E+02 0.  0.
        -11    1    5    5    0    0 -0.12312959578E+02  0.10811932983E+02  0.43925714533E+03  0.43956267652E+03  0.00000000000E+00 0.  1.
         12    1    5    5    0    0 -0.45031605498E+02  0.22272529353E+02  0.12555905056E+03  0.13523677841E+03  0.00000000000E+00 0. -1.
         13    1    3    3    0    0  0.17789378128E+02  0.19384001347E+02 -0.31611645353E+02  0.41127820320E+02  0.00000000000E+00 0. -1.
        -14    1    3    3    0    0 -0.68861941634E+02 -0.74749428995E+01 -0.10646211903E+03  0.12701190718E+03  0.00000000000E+00 0.  1.
          5    1    4    4  501    0  0.50700430097E+01  0.36764004061E+02  0.24177788228E+02  0.44489719873E+02  0.41800000000E+01 0. -1.
         -5    1    4    4    0  501  0.10334708557E+03 -0.81757524844E+02  0.15689484233E+03  0.20493505536E+03  0.41800000000E+01 0. -1.
</event>
<event>
11    1  0.8041700E-009  0.1949055E+03  0.7561462E-02  0.1058186E+00
         22   -1    0    0    0    0  0.00000000000E+00  0.00000000000E+00  0.29111814454E+03  0.29111814454E+03  0.00000000000E+00 0. -1.
         22   -1    0    0    0    0 -0.00000000000E+00 -0.00000000000E+00 -0.10908125969E+04  0.10908125969E+04  0.00000000000E+00 0. -1.
        -24    2    1    2    0    0  0.86549671014E+02 -0.58641513957E+02 -0.87884391661E+03  0.88865881344E+03  0.80113570812E+02 0.  0.
         25    2    1    2    0    0 -0.18473724501E+03  0.14927724975E+03 -0.72631985243E+02  0.27808957747E+03  0.12508741275E+03 0.  0.
         24    2    1    2    0    0  0.98187573997E+02 -0.90635735789E+02  0.15178144946E+03  0.21518235057E+03  0.73554057032E+02 0.  0.
        -11    1    5    5    0    0  0.10088426225E+03 -0.93041200104E+02  0.11737218711E+03  0.18058385751E+03  0.00000000000E+00 0.  1.
         12    1    5    5    0    0 -0.26966882556E+01  0.24054643146E+01  0.34409262352E+02  0.34598493056E+02  0.00000000000E+00 0. -1.
         11    1    3    3    0    0  0.57474343656E+01 -0.38893706300E+02 -0.45727232959E+03  0.45895940649E+03  0.00000000000E+00 0. -1.
        -12    1    3    3    0    0  0.80802236649E+02 -0.19747807656E+02 -0.42157158702E+03  0.42969940695E+03  0.00000000000E+00 0.  1.
          5    1    4    4  501    0 -0.14482825336E+03  0.58101757799E+02 -0.84940061254E+02  0.17771697622E+03  0.41800000000E+01 0. -1.
         -5    1    4    4    0  501 -0.39908991655E+02  0.91175491947E+02  0.12308076011E+02  0.10037260125E+03  0.41800000000E+01 0. -1.
</event>
<event>
11    1  0.8041700E-009  0.1805537E+03  0.7561462E-02  0.1069196E+00
         22   -1    0    0    0    0  0.00000000000E+00  0.00000000000E+00  0.60843306419E+03  0.60843306419E+03  0.00000000000E+00 0.  1.
         22   -1    0    0    0    0 -0.00000000000E+00 -0.00000000000E+00 -0.21017855756E+03  0.21017855756E+03  0.00000000000E+00 0. -1.
        -24    2    1    2    0    0  0.95233059644E+02 -0.63136872654E+02 -0.78147558695E+02  0.15965686105E+03  0.79546665632E+02 0.  0.
         25    2    1    2    0    0 -0.15725810052E+03  0.10894520151E+03  0.72543165411E+02  0.23981076736E+03  0.12509007228E+03 0.  0.
         24    2    1    2    0    0  0.62025040872E+02 -0.45808328854E+02  0.40385889991E+03  0.41914399334E+03  0.81450398586E+02 0.  0.
        -11    1    5    5    0    0  0.12116212051E+02 -0.29560284038E+02  0.30970698817E+03  0.31135033565E+03  0.00000000000E+00 0.  1.
         12    1    5    5    0    0  0.49908828822E+02 -0.16248044816E+02  0.94151911747E+02  0.10779365770E+03  0.00000000000E+00 0. -1.
         13    1    3    3    0    0  0.89168590667E+02 -0.78704500945E+02 -0.79240042013E+02  0.14291403111E+03  0.00000000000E+00 0. -1.
        -14    1    3    3    0    0  0.60644689763E+01  0.15567628291E+02  0.10924833179E+01  0.16742829939E+02  0.00000000000E+00 0.  1.
          5    1    4    4  501    0 -0.11067717210E+02  0.77472148601E+02  0.16702500567E+02  0.80130356909E+02  0.41800000000E+01 0.  1.
         -5    1    4    4    0  501 -0.14619038331E+03  0.31473052906E+02  0.55840664844E+02  0.15968041045E+03  0.41800000000E+01 0.  1.
</event>
<event>
11    1  0.8041700E-009  0.1686073E+03  0.7561462E-02  0.1079250E+00
         22   -1    0    0    0    0  0.00000000000E+00  0.00000000000E+00  0.11897747438E+03  0.11897747438E+03  0.00000000000E+00 0. -1.
         22   -1    0    0    0    0 -0.00000000000E+00 -0.00000000000E+00 -0.29169072827E+04  0.29169072827E+04  0.00000000000E+00 0.  1.
        -24    2    1    2    0    0  0.10773761481E+01 -0.25514287152E+02 -0.23597531409E+04  0.23612433479E+04  0.79894444463E+02 0.  0.
         25    2    1    2    0    0 -0.62908114230E+02 -0.71167077605E+02 -0.49861445576E+03  0.52276826486E+03  0.12509236381E+03 0.  0.
         24    2    1    2    0    0  0.61830738082E+02  0.96681364757E+02  0.60437788322E+02  0.15187314438E+03  0.79008855598E+02 0.  0.
        -13    1    5    5    0    0  0.67729136250E+02  0.42731255979E+02  0.15853302125E+02  0.81636531792E+02  0.00000000000E+00 0.  1.
         14    1    5    5    0    0 -0.58983981678E+01  0.53950108778E+02  0.44584486197E+02  0.70236612586E+02  0.00000000000E+00 0. -1.
         13    1    3    3    0    0  0.23342494916E+02 -0.83151596513E+01 -0.23478895463E+03  0.23609292062E+03  0.00000000000E+00 0. -1.
        -14    1    3    3    0    0 -0.22265118768E+02 -0.17199127500E+02 -0.21249641863E+04  0.21251504272E+04  0.00000000000E+00 0.  1.
          5    1    4    4  501    0 -0.18587309358E+02  0.36022785470E+02 -0.11699947035E+03  0.12389300870E+03  0.41800000000E+01 0.  1.
         -5    1    4    4    0  501 -0.44320804873E+02 -0.10718986308E+03 -0.38161498541E+03  0.39887525616E+03  0.41800000000E+01 0.  1.
</event>
<event>
11    1  0.8041700E-009  0.1759623E+03  0.7561462E-02  0.1072956E+00
         22   -1    0    0    0    0  0.00000000000E+00  0.00000000000E+00  0.25456310557E+03  0.25456310557E+03  0.00000000000E+00 0. -1.
         22   -1    0    0    0    0 -0.00000000000E+00 -0.00000000000E+00 -0.26084024189E+04  0.26084024189E+04  0.00000000000E+00 0. -1.
         24    2    1    2    0    0 -0.48890246272E+02  0.11333927305E+03 -0.24970745141E+04  0.25014260373E+04  0.80715822326E+02 0.  0.
         25    2    1    2    0    0  0.41427698453E+02 -0.13171537052E+03 -0.34446975019E+01  0.18634295336E+03  0.12508651925E+03 0.  0.
        -24    2    1    2    0    0  0.74625478190E+01  0.18376097464E+02  0.14667989830E+03  0.17519653381E+03  0.93730797046E+02 0.  0.
        -13    1    3    3    0    0 -0.23333323955E+02  0.70917124159E+02 -0.76284938149E+03  0.76649387560E+03  0.00000000000E+00 0.  1.
         14    1    3    3    0    0 -0.25556922317E+02  0.42422148893E+02 -0.17342251326E+04  0.17349321617E+04  0.00000000000E+00 0. -1.
         11    1    5    5    0    0  0.30798355094E+02 -0.29213419286E+02  0.57817019394E+02  0.71727053993E+02  0.00000000000E+00 0. -1.
        -12    1    5    5    0    0 -0.23335807275E+02  0.47589516750E+02  0.88862878904E+02  0.10346947981E+03  0.00000000000E+00 0.  1.
          5    1    4    4  501    0 -0.43946950898E+02 -0.41805151789E+02  0.97904574772E+01  0.61581902106E+02  0.41800000000E+01 0.  1.
         -5    1    4    4    0  501  0.85374649351E+02 -0.89910218727E+02 -0.13235154979E+02  0.12476105126E+03  0.41800000000E+01 0.  1.
</event>
<event>
11    1  0.8041700E-009  0.2322595E+03  0.7561462E-02  0.1033798E+00
         22   -1    0    0    0    0  0.00000000000E+00  0.00000000000E+00  0.42837411124E+03  0.42837411124E+03  0.00000000000E+00 0.  1.
         22   -1    0    0    0    0 -0.00000000000E+00 -0.00000000000E+00 -0.11797239618E+04  0.11797239618E+04  0.00000000000E+00 0. -1.
        -24    2    1    2    0    0 -0.98269295782E+02 -0.73779142201E+02 -0.57902243205E+03  0.59743927181E+03  0.81033884048E+02 0.  0.
         25    2    1    2    0    0  0.19076045185E+03  0.24000021197E+03 -0.51400146351E+03  0.61141944972E+03  0.12508631925E+03 0.  0.
         24    2    1    2    0    0 -0.92491156068E+02 -0.16622106977E+03  0.34167404498E+03  0.39923935155E+03  0.80416719826E+02 0.  0.
        -13    1    5    5    0    0 -0.97630211430E+02 -0.16894849587E+03  0.34162105215E+03  0.39342114294E+03  0.00000000000E+00 0.  1.
         14    1    5    5    0    0  0.51390553623E+01  0.27274261001E+01  0.52992825591E-01  0.58182086064E+01  0.00000000000E+00 0. -1.
         11    1    3    3    0    0 -0.90345177029E+02 -0.40896882317E+02 -0.52034789445E+03  0.52971382581E+03  0.00000000000E+00 0. -1.
        -12    1    3    3    0    0 -0.79241187526E+01 -0.32882259884E+02 -0.58674537603E+02  0.67725446001E+02  0.00000000000E+00 0.  1.
          5    1    4    4  501    0  0.17903716405E+03  0.19541406262E+03 -0.33858511569E+03  0.42999804063E+03  0.41800000000E+01 0. -1.
         -5    1    4    4    0  501  0.11723287798E+02  0.44586149354E+02 -0.17541634783E+03  0.18142140909E+03  0.41800000000E+01 0. -1.
</event>
<event>
11    1  0.8041700E-009  0.1482974E+03  0.7561462E-02  0.1098631E+00
         22   -1    0    0    0    0  0.00000000000E+00  0.00000000000E+00  0.16150362148E+03  0.16150362148E+03  0.00000000000E+00 0.  1.
         22   -1    0    0    0    0 -0.00000000000E+00 -0.00000000000E+00 -0.13295559009E+04  0.13295559009E+04  0.00000000000E+00 0. -1.
         24    2    1    2    0    0  0.24138110023E+02  0.78274165868E+02 -0.93589782474E+03  0.94288127287E+03  0.80067864855E+02 0.  0.
         25    2    1    2    0    0 -0.20881138294E+02 -0.67676560815E+02 -0.36477035705E+03  0.39207273589E+03  0.12508987979E+03 0.  0.
        -24    2    1    2    0    0 -0.32569717291E+01 -0.10597605054E+02  0.13261590238E+03  0.15610551361E+03  0.81602921015E+02 0.  0.
        -13    1    3    3    0    0  0.48091387183E+02  0.35958438675E+02 -0.36397194741E+03  0.36889208359E+03  0.00000000000E+00 0.  1.
         14    1    3    3    0    0 -0.23953277160E+02  0.42315727193E+02 -0.57192587733E+03  0.57398918928E+03  0.00000000000E+00 0. -1.
         13    1    5    5    0    0 -0.43937825511E+01 -0.43416934610E+02  0.45681262937E+02  0.63175258762E+02  0.00000000000E+00 0. -1.
        -14    1    5    5    0    0  0.11368108220E+01  0.32819329557E+02  0.86934639442E+02  0.92930254849E+02  0.00000000000E+00 0.  1.
          5    1    4    4  501    0 -0.32497537280E+02  0.18104405661E+02 -0.22141294960E+03  0.22455517381E+03  0.41800000000E+01 0. -1.
         -5    1    4    4    0  501  0.11616398986E+02 -0.85780966476E+02 -0.14335740745E+03  0.16751756209E+03  0.41800000000E+01 0. -1.
</event>
<event>
11    1  0.8041700E-009  0.1429267E+03  0.7561462E-02  0.1104334E+00
         22   -1    0    0    0    0  0.00000000000E+00  0.00000000000E+00  0.25127476826E+03  0.25127476826E+03  0.00000000000E+00 0.  1.
         22   -1    0    0    0    0 -0.00000000000E+00 -0.00000000000E+00 -0.19978988729E+03  0.19978988729E+03  0.00000000000E+00 0.  1.
        -24    2    1    2    0    0 -0.25487184351E+02  0.69204179061E+02 -0.66756131282E+02  0.12767993341E+03  0.80043546682E+02 0.  0.
         25    2    1    2    0    0  0.16297300156E+02 -0.59170501144E+02 -0.40120821323E+02  0.14499344305E+03  0.12508664208E+03 0.  0.
         24    2    1    2    0    0  0.91898841946E+01 -0.10033677917E+02  0.15836183357E+03  0.17839127909E+03  0.80992897588E+02 0.  0.
        -11    1    5    5    0    0 -0.29831546480E+02 -0.12397795728E+02  0.11742036454E+03  0.12178328503E+03  0.00000000000E+00 0.  1.
         12    1    5    5    0    0  0.39021430675E+02  0.23641178103E+01  0.40941469026E+02  0.56607994055E+02  0.00000000000E+00 0. -1.
         11    1    3    3    0    0 -0.40474183537E+02  0.20679337341E+02 -0.21498585198E+01  0.45501828727E+02  0.00000000000E+00 0. -1.
        -12    1    3    3    0    0  0.14986999186E+02  0.48524841720E+02 -0.64606272763E+02  0.82178104680E+02  0.00000000000E+00 0.  1.
          5    1    4    4  501    0 -0.14688531488E+02  0.33353980664E+02 -0.28872266702E+02  0.46683200061E+02  0.41800000000E+01 0. -1.
         -5    1    4    4    0  501  0.30985831644E+02 -0.92524481808E+02 -0.11248554621E+02  0.98310242994E+02  0.41800000000E+01 0. -1.
</event>
<event>
11    1  0.8041700E-009  0.1480253E+03  0.7561462E-02  0.1098914E+00
         22   -1    0    0    0    0  0.00000000000E+00  0.00000000000E+00  0.55611998673E+03  0.55611998673E+03  0.00000000000E+00 0. -1.
         22   -1    0    0    0    0 -0.00000000000E+00 -0.00000000000E+00 -0.60287877262E+03  0.60287877262E+03  0.00000000000E+00 0. -1.
        -24    2    1    2    0    0  0.43187127220E+02  0.58085996543E+02 -0.51685309192E+03  0.52825914973E+03  0.81740440960E+02 0.  0.
         25    2    1    2    0    0 -0.10064461268E+03 -0.27775318328E+01  0.14642816877E+02  0.16121562029E+03  0.12505603303E+03 0.  0.
         24    2    1    2    0    0  0.57457485455E+02 -0.55308464710E+02  0.45545148915E+03  0.46952398933E+03  0.81586326565E+02 0.  0.
        -13    1    5    5    0    0  0.12844954210E+02 -0.40119405274E+02  0.73821459749E+02  0.84995102493E+02  0.00000000000E+00 0.  1.
         14    1    5    5    0    0  0.44612531245E+02 -0.15189059436E+02  0.38163002940E+03  0.38452888684E+03  0.00000000000E+00 0. -1.
         13    1    3    3    0    0  0.25897961067E+02  0.69895343628E+02 -0.48099171319E+03  0.48673308046E+03  0.00000000000E+00 0. -1.
        -14    1    3    3    0    0  0.17289166153E+02 -0.11809347085E+02 -0.35861378730E+02  0.41526069273E+02  0.00000000000E+00 0.  1.
          5    1    4    4  501    0 -0.64394319067E+02  0.23815583062E+02  0.64258648224E+02  0.94129998386E+02  0.41800000000E+01 0.  1.
         -5    1    4    4    0  501 -0.36250293609E+02 -0.26593114895E+02 -0.49615831347E+02  0.67085621908E+02  0.41800000000E+01 0.  1.
</event>
<event>
11    1  0.8041700E-009  0.1303698E+03  0.7561462E-02  0.1118815E+00
         22   -1    0    0    0    0  0.00000000000E+00  0.00000000000E+00  0.30486742974E+03  0.30486742974E+03  0.00000000000E+00 0. -1.
         22   -1    0    0    0    0 -0.00000000000E+00 -0.00000000000E+00 -0.51257861566E+03  0.51257861566E+03  0.00000000000E+00 0. -1.
         24    2    1    2    0    0  0.22833277109E+02  0.34878347376E+02 -0.40793277019E+03  0.41836137012E+03  0.82941143917E+02 0.  0.
         25    2    1    2    0    0 -0.50480665077E+01  0.77958267221E+01 -0.48210949080E+02  0.13436221584E+03  0.12507058625E+03 0.  0.
        -24    2    1    2    0    0 -0.17785210602E+02 -0.42674174098E+02  0.24843253335E+03  0.26472245944E+03  0.78878755379E+02 0.  0.
        -11    1    3    3    0    0 -0.36550483247E+01 -0.25117628457E+02 -0.79823279672E+02  0.83761629731E+02  0.00000000000E+00 0.  1.
         12    1    3    3    0    0  0.26488325434E+02  0.59995975832E+02 -0.32810949052E+03  0.33459974039E+03  0.00000000000E+00 0. -1.
         13    1    5    5    0    0  0.27481654238E+02 -0.30313694931E+02  0.15301324688E+03  0.15838944138E+03  0.00000000000E+00 0. -1.
        -14    1    5    5    0    0 -0.45266864840E+02 -0.12360479167E+02  0.95419286477E+02  0.10633301806E+03  0.00000000000E+00 0.  1.
          5    1    4    4  501    0  0.14660432159E+02  0.27001572694E+02  0.34917133553E+02  0.46697878053E+02  0.41800000000E+01 0.  1.
         -5    1    4    4    0  501 -0.19708498667E+02 -0.19205745972E+02 -0.83128082633E+02  0.87664337791E+02  0.41800000000E+01 0.  1.
</event>
<event>
11    1  0.8041700E-009  0.1552671E+03  0.7561462E-02  0.1091615E+00
         22   -1    0    0    0    0  0.00000000000E+00  0.00000000000E+00  0.59868405062E+03  0.59868405062E+03  0.00000000000E+00 0. -1.
         22   -1    0    0    0    0 -0.00000000000E+00 -0.00000000000E+00 -0.16699858476E+04  0.16699858476E+04  0.00000000000E+00 0. -1.
         24    2    1    2    0    0  0.24547885485E+02  0.91499045293E+02 -0.14538300661E+04  0.14591086389E+04  0.80009282269E+02 0.  0.
         25    2    1    2    0    0 -0.42036502833E+02 -0.56979611163E+02 -0.18501157347E+03  0.23428689192E+03  0.12508925514E+03 0.  0.
        -24    2    1    2    0    0  0.17488617348E+02 -0.34519434131E+02  0.56753984250E+03  0.57527436741E+03  0.85683615124E+02 0.  0.
        -13    1    3    3    0    0 -0.19369727525E+02  0.34238349847E+02 -0.24605782630E+03  0.24918247295E+03  0.00000000000E+00 0.  1.
         14    1    3    3    0    0  0.43917613011E+02  0.57260695446E+02 -0.12077722398E+04  0.12099261660E+04  0.00000000000E+00 0. -1.
         13    1    5    5    0    0  0.26073632796E+01  0.28694598856E+02  0.19482800624E+03  0.19694702426E+03  0.00000000000E+00 0. -1.
        -14    1    5    5    0    0  0.14881254068E+02 -0.63214032987E+02  0.37271183626E+03  0.37832734315E+03  0.00000000000E+00 0.  1.
          5    1    4    4  501    0  0.31832282184E+02 -0.11833145143E+02 -0.51116805416E+01  0.34596519926E+02  0.41800000000E+01 0. -1.
         -5    1    4    4    0  501 -0.73868785017E+02 -0.45146466019E+02 -0.17989989293E+03  0.19969037200E+03  0.41800000000E+01 0. -1.
</event>
<event>
11    1  0.8041700E-009  0.1389075E+03  0.7561462E-02  0.1108785E+00
         22   -1    0    0    0    0  0.00000000000E+00  0.00000000000E+00  0.26209128259E+03  0.26209128259E+03  0.00000000000E+00 0.  1.
         22   -1    0    0    0    0 -0.00000000000E+00 -0.00000000000E+00 -0.56183201747E+03  0.56183201747E+03  0.00000000000E+00 0.  1.
        -24    2    1    2    0    0 -0.59599568151E+02  0.73496105151E+01 -0.48351439824E+03  0.49410517409E+03  0.82143925284E+02 0.  0.
         25    2    1    2    0    0  0.69821697149E+02  0.31559070921E+02  0.27839173460E+02  0.14931040790E+03  0.12509010344E+03 0.  0.
         24    2    1    2    0    0 -0.10222128998E+02 -0.38908681436E+02  0.15593448989E+03  0.18050771807E+03  0.81541975278E+02 0.  0.
        -13    1    5    5    0    0  0.17899788283E+02 -0.75242778743E+01  0.12909246537E+03  0.13054455865E+03  0.00000000000E+00 0.  1.
         14    1    5    5    0    0 -0.28121917281E+02 -0.31384403562E+02  0.26842024520E+02  0.49963159416E+02  0.00000000000E+00 0. -1.
         11    1    3    3    0    0 -0.34326579135E+02 -0.37146074801E+02 -0.23841434027E+03  0.24372021368E+03  0.00000000000E+00 0. -1.
        -12    1    3    3    0    0 -0.25272989016E+02  0.44495685316E+02 -0.24510005796E+03  0.25038496041E+03  0.00000000000E+00 0.  1.
          5    1    4    4  501    0 -0.32503975258E+02 -0.10289701708E+02  0.16478068691E+02  0.38097053909E+02  0.41800000000E+01 0. -1.
         -5    1    4    4    0  501  0.10232567241E+03  0.41848772629E+02  0.11361104769E+02  0.11121335399E+03  0.41800000000E+01 0. -1.
</event>
<event>
11    1  0.8041700E-009  0.1529460E+03  0.7561462E-02  0.1093906E+00
         22   -1    0    0    0    0  0.00000000000E+00  0.00000000000E+00  0.45760428254E+03  0.45760428254E+03  0.00000000000E+00 0.  1.
         22   -1    0    0    0    0 -0.00000000000E+00 -0.00000000000E+00 -0.13955876182E+04  0.13955876182E+04  0.00000000000E+00 0. -1.
         24    2    1    2    0    0 -0.18875155981E+02  0.10707120558E+02 -0.13258537743E+04  0.13284444071E+04  0.80033731772E+02 0.  0.
         25    2    1    2    0    0  0.60674751374E+02  0.66751154442E+02  0.43038737753E+02  0.16011488862E+03  0.12508917833E+03 0.  0.
        -24    2    1    2    0    0 -0.41799595394E+02 -0.77458274999E+02  0.34483170087E+03  0.36463260494E+03  0.79379116411E+02 0.  0.
        -11    1    3    3    0    0 -0.55803393673E+00  0.87673840572E+01 -0.14447859482E+02  0.16909141572E+02  0.00000000000E+00 0.  1.
         12    1    3    3    0    0 -0.18317122044E+02  0.19397365005E+01 -0.13114059148E+04  0.13115352656E+04  0.00000000000E+00 0. -1.
         11    1    5    5    0    0 -0.14619316941E+02 -0.73800862453E+02  0.14927874544E+03  0.16716589236E+03  0.00000000000E+00 0. -1.
        -12    1    5    5    0    0 -0.27180278452E+02 -0.36574125461E+01  0.19555295543E+03  0.19746671259E+03  0.00000000000E+00 0.  1.
          5    1    4    4  501    0  0.81089867251E+02  0.84472525845E+02  0.55977463837E+02  0.12985423771E+03  0.41800000000E+01 0. -1.
         -5    1    4    4    0  501 -0.20415115876E+02 -0.17721371403E+02 -0.12938726084E+02  0.30260650907E+02  0.41800000000E+01 0. -1.
</event>
<event>
11    1  0.8041700E-009  0.1273514E+03  0.7561462E-02  0.1122567E+00
         22   -1    0    0    0    0  0.00000000000E+00  0.00000000000E+00  0.77233574465E+03  0.77233574465E+03  0.00000000000E+00 0. -1.
         22   -1    0    0    0    0 -0.00000000000E+00 -0.00000000000E+00 -0.38291600363E+03  0.38291600363E+03  0.00000000000E+00 0.  1.
         24    2    1    2    0    0  0.13031298985E+02  0.19438305560E+02 -0.24316098759E+03  0.25851868339E+03  0.84598943860E+02 0.  0.
         25    2    1    2    0    0 -0.32541455750E+02 -0.68505759309E+01 -0.97417686554E+02  0.16199758591E+03  0.12508851049E+03 0.  0.
        -24    2    1    2    0    0  0.19510156764E+02 -0.12587729629E+02  0.72999841516E+03  0.73473547898E+03  0.79996504798E+02 0.  0.
        -11    1    3    3    0    0  0.34513591175E+02  0.40194259901E+02 -0.11060491522E+03  0.12263854930E+03  0.00000000000E+00 0.  1.
         12    1    3    3    0    0 -0.21482292189E+02 -0.20755954341E+02 -0.13255607237E+03  0.13588013409E+03  0.00000000000E+00 0. -1.
         11    1    5    5    0    0  0.33570571648E+02 -0.92750232300E+01  0.70502820624E+03  0.70588793794E+03  0.00000000000E+00 0. -1.
        -12    1    5    5    0    0 -0.14060414884E+02 -0.33127063994E+01  0.24970208917E+02  0.28847541035E+02  0.00000000000E+00 0.  1.
          5    1    4    4  501    0 -0.71835254422E+02 -0.18490371187E+02 -0.24467104169E+02  0.78219621521E+02  0.41800000000E+01 0. -1.
         -5    1    4    4    0  501  0.39293798672E+02  0.11639795256E+02 -0.72950582385E+02  0.83777964394E+02  0.41800000000E+01 0. -1.
</event>
<event>
11    1  0.8041700E-009  0.1306528E+03  0.7561462E-02  0.1118469E+00
         22   -1    0    0    0    0  0.00000000000E+00  0.00000000000E+00  0.27580906869E+03  0.27580906869E+03  0.00000000000E+00 0. -1.
         22   -1    0    0    0    0 -0.00000000000E+00 -0.00000000000E+00 -0.18830994060E+04  0.18830994060E+04  0.00000000000E+00 0. -1.
        -24    2    1    2    0    0  0.22338302947E+02  0.24767633697E+02 -0.88383411998E+03  0.88726151289E+03  0.70411683456E+02 0.  0.
         25    2    1    2    0    0 -0.14856812586E+02 -0.61577197474E+02 -0.98529863250E+03  0.99522569048E+03  0.12509317988E+03 0.  0.
         24    2    1    2    0    0 -0.74814903612E+01  0.36809563777E+02  0.26184241517E+03  0.27642127132E+03  0.80226879344E+02 0.  0.
        -13    1    5    5    0    0 -0.43072210113E+01 -0.20075425488E+02  0.22797368426E+02  0.30680529144E+02  0.00000000000E+00 0.  1.
         14    1    5    5    0    0 -0.31742693499E+01  0.56884989266E+02  0.23904504674E+03  0.24574074217E+03  0.00000000000E+00 0. -1.
         13    1    3    3    0    0 -0.11483727894E+02  0.35077475716E+02 -0.61581607894E+03  0.61692118491E+03  0.00000000000E+00 0. -1.
        -14    1    3    3    0    0  0.33822030841E+02 -0.10309842019E+02 -0.26801804104E+03  0.27034032799E+03  0.00000000000E+00 0.  1.
          5    1    4    4  501    0  0.22105978019E+02 -0.87302662419E+02 -0.52234613748E+03  0.53006923026E+03  0.41800000000E+01 0. -1.
         -5    1    4    4    0  501 -0.36962790605E+02  0.25725464945E+02 -0.46295249502E+03  0.46515646021E+03  0.41800000000E+01 0. -1.
</event>
<event>
11    1  0.8041700E-009  0.1697138E+03  0.7561462E-02  0.1078281E+00
         22   -1    0    0    0    0  0.00000000000E+00  0.00000000000E+00  0.19941552651E+04  0.19941552651E+04  0.00000000000E+00 0. -1.
         22   -1    0    0    0    0 -0.00000000000E+00 -0.00000000000E+00 -0.44130805933E+02  0.44130805933E+02  0.00000000000E+00 0. -1.
         24    2    1    2    0    0 -0.87672553969E+02  0.22707010791E+02  0.20911188671E+03  0.24146895288E+03  0.79858556101E+02 0.  0.
         25    2    1    2    0    0  0.15722740923E+03 -0.11471550535E+02  0.36299038094E+03  0.41504389763E+03  0.12508943048E+03 0.  0.
        -24    2    1    2    0    0 -0.69554855260E+02 -0.11235460256E+02  0.13779221915E+04  0.13817732205E+04  0.75256585331E+02 0.  0.
        -13    1    3    3    0    0 -0.67389942299E+02  0.51994086687E+02  0.14836028055E+03  0.17104257428E+03  0.00000000000E+00 0.  1.
         14    1    3    3    0    0 -0.20282611670E+02 -0.29287075896E+02  0.60751606160E+02  0.70426378593E+02  0.00000000000E+00 0. -1.
         13    1    5    5    0    0 -0.71664510355E+02  0.17238980987E+02  0.90969518022E+03  0.91267645167E+03  0.00000000000E+00 0. -1.
        -14    1    5    5    0    0  0.21096550948E+01 -0.28474441244E+02  0.46822701127E+03  0.46909676883E+03  0.00000000000E+00 0.  1.
          5    1    4    4  501    0  0.11906806317E+03 -0.34904042494E+02  0.34490678770E+03  0.36657013034E+03  0.41800000000E+01 0. -1.
         -5    1    4    4    0  501  0.38159346057E+02  0.23432491959E+02  0.18083593236E+02  0.48473767290E+02  0.41800000000E+01 0. -1.
</event>
<event>
11    1  0.8041700E-009  0.1384314E+03  0.7561462E-02  0.1109323E+00
         22   -1    0    0    0    0  0.00000000000E+00  0.00000000000E+00  0.26200849233E+04  0.26200849233E+04  0.00000000000E+00 0. -1.
         22   -1    0    0    0    0 -0.00000000000E+00 -0.00000000000E+00 -0.37908898080E+03  0.37908898080E+03  0.00000000000E+00 0. -1.
         24    2    1    2    0    0  0.30930937670E+02 -0.47917536258E+02 -0.31514989614E+03  0.33024234191E+03  0.80546472087E+02 0.  0.
         25    2    1    2    0    0 -0.42445235387E+02  0.82008620470E+02  0.53033874585E+02  0.16427466412E+03  0.12508621659E+03 0.  0.
        -24    2    1    2    0    0  0.11514297717E+02 -0.34091084213E+02  0.25031119640E+04  0.25046568980E+04  0.80261393923E+02 0.  0.
        -13    1    3    3    0    0  0.14905335269E+02 -0.44774428239E+02 -0.69247047358E+02  0.83797804335E+02  0.00000000000E+00 0.  1.
         14    1    3    3    0    0  0.16025602401E+02 -0.31431080186E+01 -0.24590284878E+03  0.24644453757E+03  0.00000000000E+00 0. -1.
         11    1    5    5    0    0 -0.24853915139E+02  0.11012847676E+02  0.11234737566E+04  0.11238025991E+04  0.00000000000E+00 0. -1.
        -12    1    5    5    0    0  0.36368212855E+02 -0.45103931888E+02  0.13796382074E+04  0.13808542989E+04  0.00000000000E+00 0.  1.
          5    1    4    4  501    0 -0.71311769760E+02  0.20623958118E+02  0.60564102332E+02  0.95896814577E+02  0.41800000000E+01 0. -1.
         -5    1    4    4    0  501  0.28866534373E+02  0.61384662352E+02 -0.75302277460E+01  0.68377849547E+02  0.41800000000E+01 0. -1.
</event>
<event>
11    1  0.8041700E-009  0.1756965E+03  0.7561462E-02  0.1073178E+00
         22   -1    0    0    0    0  0.00000000000E+00  0.00000000000E+00  0.92459138510E+03  0.92459138510E+03  0.00000000000E+00 0. -1.
         22   -1    0    0    0    0 -0.00000000000E+00 -0.00000000000E+00 -0.13445704910E+03  0.13445704910E+03  0.00000000000E+00 0.  1.
         24    2    1    2    0    0 -0.65369749909E+02 -0.96232155731E+02 -0.19624538586E+02  0.14912509932E+03  0.91210420094E+02 0.  0.
         25    2    1    2    0    0  0.14780439123E+03  0.73781942001E+02  0.19769597714E+03  0.28639346264E+03  0.12509037945E+03 0.  0.
        -24    2    1    2    0    0 -0.82434641321E+02  0.22450213729E+02  0.61206289744E+03  0.62352987224E+03  0.82879605195E+02 0.  0.
        -11    1    3    3    0    0 -0.69628858577E+02 -0.79828387661E+02 -0.47825041838E+02  0.11622385319E+03  0.00000000000E+00 0.  1.
         12    1    3    3    0    0  0.42591086682E+01 -0.16403768070E+02  0.28200503252E+02  0.32901246134E+02  0.00000000000E+00 0. -1.
         13    1    5    5    0    0 -0.97393918622E+02  0.17966661300E+02  0.57237594077E+03  0.58088087753E+03  0.00000000000E+00 0. -1.
        -14    1    5    5    0    0  0.14959277301E+02  0.44835524293E+01  0.39686956669E+02  0.42648994706E+02  0.00000000000E+00 0.  1.
          5    1    4    4  501    0  0.11027577749E+03  0.67789237103E+02  0.20956906853E+03  0.24635907666E+03  0.41800000000E+01 0.  1.
         -5    1    4    4    0  501  0.37528613740E+02  0.59927048982E+01 -0.11873091391E+02  0.40034385976E+02  0.41800000000E+01 0.  1.
</event>
<event>
11    1  0.8041700E-009  0.1284061E+03  0.7561462E-02  0.1121243E+00
         22   -1    0    0    0    0  0.00000000000E+00  0.00000000000E+00  0.55666175642E+03  0.55666175642E+03  0.00000000000E+00 0.  1.
         22   -1    0    0    0    0 -0.00000000000E+00 -0.00000000000E+00 -0.25780722812E+03  0.25780722812E+03  0.00000000000E+00 0.  1.
         24    2    1    2    0    0 -0.17775304524E+02  0.22786009491E+02 -0.22570743998E+03  0.24128157791E+03  0.80235825518E+02 0.  0.
         25    2    1    2    0    0  0.10402477933E+02 -0.31731079312E+02  0.19935246211E+03  0.23770625859E+03  0.12509111992E+03 0.  0.
        -24    2    1    2    0    0  0.73728265914E+01  0.89450698209E+01  0.32520950617E+03  0.33548114805E+03  0.81559824325E+02 0.  0.
        -13    1    3    3    0    0  0.80596829723E+01  0.87610172434E+01 -0.20494947401E+03  0.20529491180E+03  0.00000000000E+00 0.  1.
         14    1    3    3    0    0 -0.25834987496E+02  0.14024992248E+02 -0.20757965965E+02  0.35986666107E+02  0.00000000000E+00 0. -1.
         13    1    5    5    0    0  0.59811900200E+01 -0.35747450162E+02  0.17703097412E+03  0.18070312843E+03  0.00000000000E+00 0. -1.
        -14    1    5    5    0    0  0.13916365714E+01  0.44692519983E+02  0.14817853205E+03  0.15477801961E+03  0.00000000000E+00 0.  1.
          5    1    4    4  501    0  0.20853426810E+02  0.38277515637E+01  0.19923979606E+03  0.20040829780E+03  0.41800000000E+01 0.  1.
         -5    1    4    4    0  501 -0.10450948877E+02 -0.35558830876E+02  0.11266605116E+00  0.37297960793E+02  0.41800000000E+01 0.  1.
</event>
<event>
11    1  0.8041700E-009  0.1617854E+03  0.7561462E-02  0.1085410E+00
         22   -1    0    0    0    0  0.00000000000E+00  0.00000000000E+00  0.20471001216E+04  0.20471001216E+04  0.00000000000E+00 0. -1.
         22   -1    0    0    0    0 -0.00000000000E+00 -0.00000000000E+00 -0.28446765813E+03  0.28446765813E+03  0.00000000000E+00 0.  1.
         24    2    1    2    0    0  0.36078408126E+02 -0.28061943916E+02 -0.24854649297E+03  0.26520286614E+03  0.80424354595E+02 0.  0.
         25    2    1    2    0    0 -0.10105354762E+03  0.10228634114E+03  0.33569860045E+03  0.38602529127E+03  0.12509060749E+03 0.  0.
        -24    2    1    2    0    0  0.64975139491E+02 -0.74224397228E+02  0.16754803560E+04  0.16803396223E+04  0.81091263980E+02 0.  0.
        -11    1    3    3    0    0  0.25748636499E+02 -0.46299701266E+01 -0.23457929944E+03  0.23603363453E+03  0.00000000000E+00 0.  1.
         12    1    3    3    0    0  0.10329771627E+02 -0.23431973789E+02 -0.13967193532E+02  0.29169231610E+02  0.00000000000E+00 0. -1.
         11    1    5    5    0    0  0.27570074296E+02 -0.83317423683E+02  0.10410804121E+04  0.10447728588E+04  0.00000000000E+00 0. -1.
        -12    1    5    5    0    0  0.37405065195E+02  0.90930264552E+01  0.63439994391E+03  0.63556676350E+03  0.00000000000E+00 0.  1.
          5    1    4    4  501    0 -0.14091433991E+02  0.91187772376E+02  0.10865596491E+03  0.14260914926E+03  0.41800000000E+01 0.  1.
         -5    1    4    4    0  501 -0.86962113626E+02  0.11098568767E+02  0.22704263555E+03  0.24341614201E+03  0.41800000000E+01 0.  1.
</event>
<event>
11    1  0.8041700E-009  0.1662586E+03  0.7561462E-02  0.1081334E+00
         22   -1    0    0    0    0  0.00000000000E+00  0.00000000000E+00  0.13791214551E+04  0.13791214551E+04  0.00000000000E+00 0.  1.
         22   -1    0    0    0    0 -0.00000000000E+00 -0.00000000000E+00 -0.27902621263E+03  0.27902621263E+03  0.00000000000E+00 0.  1.
         24    2    1    2    0    0 -0.33919492571E+02  0.10196116169E+03 -0.24036975389E+03  0.27518289595E+03  0.80008731853E+02 0.  0.
         25    2    1    2    0    0 -0.78274138211E+02 -0.11148604143E+03  0.54360576012E+03  0.57420287049E+03  0.12508291609E+03 0.  0.
        -24    2    1    2    0    0  0.11219363078E+03  0.95248797382E+01  0.79685923622E+03  0.80876190126E+03  0.80206212071E+02 0.  0.
        -13    1    3    3    0    0 -0.27934360465E+02  0.11566433642E+03 -0.21524330613E+03  0.24594358712E+03  0.00000000000E+00 0.  1.
         14    1    3    3    0    0 -0.59851321068E+01 -0.13703174729E+02 -0.25126447761E+02  0.29239308834E+02  0.00000000000E+00 0. -1.
         11    1    5    5    0    0  0.10019286201E+03 -0.12950783974E+02  0.46111585532E+03  0.47205313730E+03  0.00000000000E+00 0. -1.
        -12    1    5    5    0    0  0.12000768770E+02  0.22475663712E+02  0.33574338090E+03  0.33670876396E+03  0.00000000000E+00 0.  1.
          5    1    4    4  501    0 -0.10376212044E+03 -0.95991959546E+02  0.50921747012E+03  0.52848929810E+03  0.41800000000E+01 0. -1.
         -5    1    4    4    0  501  0.25487982225E+02 -0.15494081880E+02  0.34388290003E+02  0.45713572389E+02  0.41800000000E+01 0. -1.
</event>
<event>
11    1  0.8041700E-009  0.1365461E+03  0.7561462E-02  0.1111478E+00
         22   -1    0    0    0    0  0.00000000000E+00  0.00000000000E+00  0.61288875451E+02  0.61288875451E+02  0.00000000000E+00 0.  1.
         22   -1    0    0    0    0 -0.00000000000E+00 -0.00000000000E+00 -0.13028303105E+04  0.13028303105E+04  0.00000000000E+00 0.  1.
        -24    2    1    2    0    0  0.23565042189E+02  0.53601117010E+02 -0.79257264318E+03  0.79905999597E+03  0.83048729595E+02 0.  0.
         25    2    1    2    0    0 -0.29611156906E+02 -0.34234137364E+02 -0.46074976942E+03  0.47957033358E+03  0.12509419670E+03 0.  0.
         24    2    1    2    0    0  0.60461147163E+01 -0.19366979646E+02  0.11780977524E+02  0.85488856434E+02  0.82206555330E+02 0.  0.
        -11    1    5    5    0    0  0.11118681613E+02 -0.49012743208E+02  0.20340207714E+02  0.54218060897E+02  0.00000000000E+00 0.  1.
         12    1    5    5    0    0 -0.50725668964E+01  0.29645763562E+02 -0.85592301903E+01  0.31270795537E+02  0.00000000000E+00 0. -1.
         11    1    3    3    0    0  0.12197293946E+02  0.38783347568E+02 -0.12966701731E+03  0.13589134411E+03  0.00000000000E+00 0. -1.
        -12    1    3    3    0    0  0.11367748243E+02  0.14817769442E+02 -0.66290562587E+03  0.66316865186E+03  0.00000000000E+00 0.  1.
          5    1    4    4  501    0 -0.18678497053E+02  0.28368699579E+02 -0.34518751602E+02  0.48607468357E+02  0.41800000000E+01 0.  1.
         -5    1    4    4    0  501 -0.10932659852E+02 -0.62602836942E+02 -0.42623101782E+03  0.43096286522E+03  0.41800000000E+01 0.  1.
</event>
<event>
11    1  0.8041700E-009  0.1353776E+03  0.7561462E-02  0.1112833E+00
         22   -1    0    0    0    0  0.00000000000E+00  0.00000000000E+00  0.21172454914E+03  0.21172454914E+03  0.00000000000E+00 0. -1.
         22   -1    0    0    0    0 -0.00000000000E+00 -0.00000000000E+00 -0.70847750931E+03  0.70847750931E+03  0.00000000000E+00 0.  1.
         24    2    1    2    0    0  0.73267086710E+01  0.49651572527E+01 -0.63003403485E+03  0.63536180090E+03  0.81629648578E+02 0.  0.
         25    2    1    2    0    0 -0.51020121890E+02 -0.21398991974E+02  0.11897654735E+03  0.18128428229E+03  0.12509037729E+03 0.  0.
        -24    2    1    2    0    0  0.43693413219E+02  0.16433834721E+02  0.14304527323E+02  0.10355597526E+03  0.91323793328E+02 0.  0.
        -13    1    3    3    0    0 -0.18326120614E+02  0.24460900658E+02 -0.51484156236E+03  0.51574801666E+03  0.00000000000E+00 0.  1.
         14    1    3    3    0    0  0.25652829285E+02 -0.19495743406E+02 -0.11519247249E+03  0.11961378424E+03  0.00000000000E+00 0. -1.
         11    1    5    5    0    0 -0.10844745270E+02 -0.14198790944E+02  0.33634413579E+02  0.38085271971E+02  0.00000000000E+00 0. -1.
        -12    1    5    5    0    0  0.54538158490E+02  0.30632625666E+02 -0.19329886256E+02  0.65470703290E+02  0.00000000000E+00 0.  1.
          5    1    4    4  501    0 -0.47701953682E+02 -0.71192257855E+02  0.64884100185E+02  0.10756966496E+03  0.41800000000E+01 0.  1.
         -5    1    4    4    0  501 -0.33181682079E+01  0.49793265881E+02  0.54092447167E+02  0.73714617328E+02  0.41800000000E+01 0.  1.
</event>
<event>
11    1  0.8041700E-009  0.1559331E+03  0.7561462E-02  0.1090966E+00
         22   -1    0    0    0    0  0.00000000000E+00  0.00000000000E+00  0.60585515113E+03  0.60585515113E+03  0.00000000000E+00 0. -1.
         22   -1    0    0    0    0 -0.00000000000E+00 -0.00000000000E+00 -0.33023359495E+03  0.33023359495E+03  0.00000000000E+00 0. -1.
        -24    2    1    2    0    0  0.81786221514E+02 -0.34963000059E+02 -0.25649904624E+03  0.28328329168E+03  0.80908993450E+02 0.  0.
         25    2    1    2    0    0 -0.13225217877E+03  0.60472613784E+02  0.11379662953E+03  0.22303405561E+03  0.12508773426E+03 0.  0.
         24    2    1    2    0    0  0.50465957253E+02 -0.25509613725E+02  0.41832397289E+03  0.42977139878E+03  0.80690493170E+02 0.  0.
        -13    1    5    5    0    0  0.15806871230E+02 -0.30794510203E+02  0.56551631255E+02  0.66304193188E+02  0.00000000000E+00 0.  1.
         14    1    5    5    0    0  0.34659086023E+02  0.52848964782E+01  0.36177234163E+03  0.36346720560E+03  0.00000000000E+00 0. -1.
         11    1    3    3    0    0  0.60592996323E+02  0.19287120740E+01 -0.21671424243E+03  0.22503398411E+03  0.00000000000E+00 0. -1.
        -12    1    3    3    0    0  0.21193225191E+02 -0.36891712133E+02 -0.39784803814E+02  0.58249307572E+02  0.00000000000E+00 0.  1.
          5    1    4    4  501    0 -0.36768189008E+02 -0.16651364931E+02  0.88900908571E+02  0.97724160890E+02  0.41800000000E+01 0.  1.
         -5    1    4    4    0  501 -0.95483989760E+02  0.77123978715E+02  0.24895720963E+02  0.12530989472E+03  0.41800000000E+01 0.  1.
</event>
<event>
11    1  0.8041700E-009  0.1550950E+03  0.7561462E-02  0.1091784E+00
         22   -1    0    0    0    0  0.00000000000E+00  0.00000000000E+00  0.36858964485E+03  0.36858964485E+03  0.00000000000E+00 0.  1.
         22   -1    0    0    0    0 -0.00000000000E+00 -0.00000000000E+00 -0.43987450958E+03  0.43987450958E+03  0.00000000000E+00 0.  1.
         24    2    1    2    0    0 -0.11482801054E+03 -0.22742180595E+02 -0.21868034280E+03  0.26051760291E+03  0.79659590207E+02 0.  0.
         25    2    1    2    0    0  0.61396544147E+02 -0.36794458754E+02 -0.16327216869E+03  0.21778530694E+03  0.12509704643E+03 0.  0.
        -24    2    1    2    0    0  0.53431466393E+02  0.59536639349E+02  0.31066764676E+03  0.33016124459E+03  0.78054645357E+02 0.  0.
        -11    1    3    3    0    0 -0.51595743632E+02 -0.26051200424E+01 -0.17145196173E+03  0.17906614027E+03  0.00000000000E+00 0.  1.
         12    1    3    3    0    0 -0.63232266909E+02 -0.20137060553E+02 -0.47228381075E+02  0.81451462633E+02  0.00000000000E+00 0. -1.
         11    1    5    5    0    0 -0.12222126842E+02  0.88272617287E+01  0.95996592266E+01  0.17873287091E+02  0.00000000000E+00 0. -1.
        -12    1    5    5    0    0  0.65653593235E+02  0.50709377621E+02  0.30106798753E+03  0.31228795750E+03  0.00000000000E+00 0.  1.
          5    1    4    4  501    0  0.88666620619E+01  0.45191869095E+02 -0.60507814100E+02  0.76155043795E+02  0.41800000000E+01 0. -1.
         -5    1    4    4    0  501  0.52529882086E+02 -0.81986327848E+02 -0.10276435459E+03  0.14163026315E+03  0.41800000000E+01 0. -1.
</event>
<event>
11    1  0.8041700E-009  0.1546550E+03  0.7561462E-02  0.1092215E+00
         22   -1    0    0    0    0  0.00000000000E+00  0.00000000000E+00  0.50073644984E+03  0.50073644984E+03  0.00000000000E+00 0.  1.
         22   -1    0    0    0    0 -0.00000000000E+00 -0.00000000000E+00 -0.14561435555E+04  0.14561435555E+04  0.00000000000E+00 0. -1.
        -24    2    1    2    0    0 -0.14108146735E+02 -0.20388204638E+02 -0.13154647492E+04  0.13182876042E+04  0.82583184085E+02 0.  0.
         25    2    1    2    0    0 -0.51665133564E+02  0.82812144746E+02 -0.81800315878E+02  0.17851041869E+03  0.12509012975E+03 0.  0.
         24    2    1    2    0    0  0.65773280299E+02 -0.62423940109E+02  0.44185795944E+03  0.46008198243E+03  0.90631680674E+02 0.  0.
        -11    1    5    5    0    0  0.45836124100E+02 -0.19313108407E+01  0.31297438460E+03  0.31631889866E+03  0.00000000000E+00 0.  1.
         12    1    5    5    0    0  0.19937156199E+02 -0.60492629268E+02  0.12888357484E+03  0.14376308377E+03  0.00000000000E+00 0. -1.
         13    1    3    3    0    0 -0.44042281124E+02  0.22630299904E+00 -0.94989939880E+03  0.95091989230E+03  0.00000000000E+00 0. -1.
        -14    1    3    3    0    0  0.29934134389E+02 -0.20614507637E+02 -0.36556535045E+03  0.36736771194E+03  0.00000000000E+00 0.  1.
          5    1    4    4  501    0  0.24033997162E+02  0.58035142647E+02  0.17806568242E+01  0.62978996026E+02  0.41800000000E+01 0.  1.
         -5    1    4    4    0  501 -0.75699130726E+02  0.24777002099E+02 -0.83580972702E+02  0.11553142267E+03  0.41800000000E+01 0.  1.
</event>
<event>
11    1  0.8041700E-009  0.1394695E+03  0.7561462E-02  0.1108152E+00
         22   -1    0    0    0    0  0.00000000000E+00  0.00000000000E+00  0.70248205717E+03  0.70248205717E+03  0.00000000000E+00 0. -1.
         22   -1    0    0    0    0 -0.00000000000E+00 -0.00000000000E+00 -0.32425048400E+03  0.32425048400E+03  0.00000000000E+00 0. -1.
        -24    2    1    2    0    0  0.20808840223E+02  0.53223366076E+02 -0.21734658625E+03  0.23865597724E+03  0.80320622464E+02 0.  0.
         25    2    1    2    0    0 -0.72502187806E+01 -0.92222186924E+02 -0.28004387670E+02  0.15807925117E+03  0.12508919413E+03 0.  0.
         24    2    1    2    0    0 -0.13558621442E+02  0.38998820849E+02  0.62358254708E+03  0.62999731275E+03  0.79603246214E+02 0.  0.
        -13    1    5    5    0    0  0.43921313185E+01 -0.11536825321E+02  0.16791223030E+02  0.20840689213E+02  0.00000000000E+00 0.  1.
         14    1    5    5    0    0 -0.17950752761E+02  0.50535646170E+02  0.60679132405E+03  0.60915662354E+03  0.00000000000E+00 0. -1.
         11    1    3    3    0    0 -0.35737217305E+01  0.59828987793E+02 -0.19789827535E+03  0.20677525638E+03  0.00000000000E+00 0. -1.
        -12    1    3    3    0    0  0.24382561953E+02 -0.66056217176E+01 -0.19448310902E+02  0.31880720861E+02  0.00000000000E+00 0.  1.
          5    1    4    4  501    0  0.58506360403E+02 -0.47527438914E+02 -0.75141399551E+01  0.75866898952E+02  0.41800000000E+01 0.  1.
         -5    1    4    4    0  501 -0.65756579184E+02 -0.44694748011E+02 -0.20490247715E+02  0.82212352217E+02  0.41800000000E+01 0.  1.
</event>
<event>
11    1  0.8041700E-009  0.1355622E+03  0.7561462E-02  0.1112618E+00
         22   -1    0    0    0    0  0.00000000000E+00  0.00000000000E+00  0.36849284570E+03  0.36849284570E+03  0.00000000000E+00 0. -1.
         22   -1    0    0    0    0 -0.00000000000E+00 -0.00000000000E+00 -0.20202614380E+03  0.20202614380E+03  0.00000000000E+00 0.  1.
        -24    2    1    2    0    0 -0.39186921971E+01  0.43666992556E+01 -0.15512671757E+03  0.17248082052E+03  0.75172539749E+02 0.  0.
         25    2    1    2    0    0  0.10763851090E+02  0.49303241217E+02  0.21722316460E+03  0.25569524417E+03  0.12508990595E+03 0.  0.
         24    2    1    2    0    0 -0.68451588929E+01 -0.53669940473E+02  0.10437025487E+03  0.14234292482E+03  0.80256086575E+02 0.  0.
        -13    1    5    5    0    0  0.86598456979E+01 -0.61866657845E+02  0.10768598262E+03  0.12449396424E+03  0.00000000000E+00 0.  1.
         14    1    5    5    0    0 -0.15505004591E+02  0.81967173726E+01 -0.33157277457E+01  0.17848960573E+02  0.00000000000E+00 0. -1.
         13    1    3    3    0    0 -0.39490132785E+02 -0.43522202484E+00 -0.82955729193E+02  0.91876618416E+02  0.00000000000E+00 0. -1.
        -14    1    3    3    0    0  0.35571440588E+02  0.48019212804E+01 -0.72170988375E+02  0.80604202102E+02  0.00000000000E+00 0.  1.
          5    1    4    4  501    0  0.22093515872E+02  0.89699004874E+02  0.14184227609E+03  0.16932435916E+03  0.41800000000E+01 0.  1.
         -5    1    4    4    0  501 -0.11329664782E+02 -0.40395763657E+02  0.75380888509E+02  0.86370885013E+02  0.41800000000E+01 0.  1.
</event>
<event>
11    1  0.8041700E-009  0.1377273E+03  0.7561462E-02  0.1110123E+00
         22   -1    0    0    0    0  0.00000000000E+00  0.00000000000E+00  0.10150538178E+04  0.10150538178E+04  0.00000000000E+00 0. -1.
         22   -1    0    0    0    0 -0.00000000000E+00 -0.00000000000E+00 -0.26664035073E+03  0.26664035073E+03  0.00000000000E+00 0. -1.
        -24    2    1    2    0    0  0.17881638068E+02  0.42286628265E+01 -0.16641622736E+03  0.18626800471E+03  0.81631944006E+02 0.  0.
         25    2    1    2    0    0  0.32456802261E+02  0.24843492150E+02 -0.38550237211E+02  0.13712030580E+03  0.12508083130E+03 0.  0.
         24    2    1    2    0    0 -0.50338440329E+02 -0.29072154976E+02  0.95337993167E+03  0.95830585805E+03  0.77702475526E+02 0.  0.
        -13    1    5    5    0    0 -0.27728713592E+02 -0.54165067097E+02  0.50438962549E+03  0.50804687810E+03  0.00000000000E+00 0.  1.
         14    1    5    5    0    0 -0.22609726737E+02  0.25092912121E+02  0.44899030618E+03  0.45025897995E+03  0.00000000000E+00 0. -1.
         13    1    3    3    0    0 -0.12889466678E+02 -0.12131133683E+02 -0.14343509465E+03  0.14452310934E+03  0.00000000000E+00 0. -1.
        -14    1    3    3    0    0  0.30771104746E+02  0.16359796509E+02 -0.22981132705E+02  0.41744895371E+02  0.00000000000E+00 0.  1.
          5    1    4    4  501    0  0.73871996603E+02  0.24762260916E+02  0.33001944464E+01  0.78093566516E+02  0.41800000000E+01 0. -1.
         -5    1    4    4    0  501 -0.41415194342E+02  0.81231233257E-01 -0.41850431658E+02  0.59026739287E+02  0.41800000000E+01 0. -1.
</event>
<event>
11    1  0.8041700E-009  0.1547228E+03  0.7561462E-02  0.1092148E+00
         22   -1    0    0    0    0  0.00000000000E+00  0.00000000000E+00  0.17600437112E+04  0.17600437112E+04  0.00000000000E+00 0. -1.
         22   -1    0    0    0    0 -0.00000000000E+00 -0.00000000000E+00 -0.13640317222E+03  0.13640317222E+03  0.00000000000E+00 0. -1.
         24    2    1    2    0    0  0.60139701511E+02  0.61650509763E+02 -0.75737457881E+02  0.14027936961E+03  0.80774810174E+02 0.  0.
         25    2    1    2    0    0 -0.11052859984E+03 -0.91907435176E+02  0.31468668565E+03  0.36788744933E+03  0.12509962919E+03 0.  0.
        -24    2    1    2    0    0  0.50388898328E+02  0.30256925413E+02  0.13846913112E+04  0.13882800645E+04  0.80603892471E+02 0.  0.
        -11    1    3    3    0    0  0.50798888229E+02  0.21536477737E+02 -0.12812034272E+01  0.55190473823E+02  0.00000000000E+00 0.  1.
         12    1    3    3    0    0  0.93408132828E+01  0.40114032026E+02 -0.74456254454E+02  0.85088895782E+02  0.00000000000E+00 0. -1.
         11    1    5    5    0    0  0.12784150070E+02  0.52670954732E+01  0.10953360195E+04  0.10954232846E+04  0.00000000000E+00 0. -1.
        -12    1    5    5    0    0  0.37604748258E+02  0.24989829940E+02  0.28935529167E+03  0.29285677986E+03  0.00000000000E+00 0.  1.
          5    1    4    4  501    0 -0.76443775468E+02 -0.12051626605E+03  0.26529196297E+03  0.30127249991E+03  0.41800000000E+01 0. -1.
         -5    1    4    4    0  501 -0.34084824372E+02  0.28608830871E+02  0.49394722683E+02  0.66614949412E+02  0.41800000000E+01 0. -1.
</event>
<event>
11    1  0.8041700E-009  0.1440773E+03  0.7561462E-02  0.1103089E+00
         22   -1    0    0    0    0  0.00000000000E+00  0.00000000000E+00  0.38402525802E+03  0.38402525802E+03  0.00000000000E+00 0.  1.
         22   -1    0    0    0    0 -0.00000000000E+00 -0.00000000000E+00 -0.81313072957E+03  0.81313072957E+03  0.00000000000E+00 0.  1.
         24    2    1    2    0    0 -0.58121516796E+02  0.42334204361E+02 -0.72015447977E+03  0.72821972815E+03  0.80692020385E+02 0.  0.
         25    2    1    2    0    0  0.50909797721E+02 -0.41193392331E+02 -0.25193931623E+02  0.14342559073E+03  0.12508981897E+03 0.  0.
        -24    2    1    2    0    0  0.72117190747E+01 -0.11408120306E+01  0.31624293985E+03  0.32551066871E+03  0.76774267135E+02 0.  0.
        -13    1    3    3    0    0 -0.54429414721E+02  0.49638823494E+02 -0.71446313108E+03  0.71825074985E+03  0.00000000000E+00 0.  1.
         14    1    3    3    0    0 -0.36921020752E+01 -0.73046191329E+01 -0.56913486934E+01  0.99689783007E+01  0.00000000000E+00 0. -1.
         11    1    5    5    0    0 -0.21589151776E+02 -0.67216162866E+00  0.25822170925E+02  0.33664934085E+02  0.00000000000E+00 0. -1.
        -12    1    5    5    0    0  0.28800870851E+02 -0.46865040191E+00  0.29042076893E+03  0.29184573462E+03  0.00000000000E+00 0.  1.
          5    1    4    4  501    0  0.38408774212E+02 -0.78994984477E+01  0.47892384373E+02  0.62038608085E+02  0.41800000000E+01 0. -1.
         -5    1    4    4    0  501  0.12501023509E+02 -0.33293893883E+02 -0.73086315995E+02  0.81386982647E+02  0.41800000000E+01 0. -1.
</event>
<event>
11    1  0.8041700E-009  0.1497643E+03  0.7561462E-02  0.1097120E+00
         22   -1    0    0    0    0  0.00000000000E+00  0.00000000000E+00  0.75303770705E+03  0.75303770705E+03  0.00000000000E+00 0. -1.
         22   -1    0    0    0    0 -0.00000000000E+00 -0.00000000000E+00 -0.19452057023E+04  0.19452057023E+04  0.00000000000E+00 0.  1.
         24    2    1    2    0    0  0.76907145585E+02 -0.28393728501E+02 -0.19008323323E+04  0.19042634535E+04  0.79591657479E+02 0.  0.
         25    2    1    2    0    0 -0.12253815839E+03  0.47053812947E+02  0.17428452147E+03  0.25149246478E+03  0.12507479299E+03 0.  0.
        -24    2    1    2    0    0  0.45631012805E+02 -0.18660084446E+02  0.53437981561E+03  0.54248749106E+03  0.79375705040E+02 0.  0.
        -13    1    3    3    0    0  0.87341792736E+02 -0.72712084864E+01 -0.16503601207E+04  0.16526856892E+04  0.00000000000E+00 0.  1.
         14    1    3    3    0    0 -0.10434647151E+02 -0.21122520014E+02 -0.25047221166E+03  0.25157776437E+03  0.00000000000E+00 0. -1.
         13    1    5    5    0    0  0.52640559649E+02 -0.78776167069E+01  0.52176474795E+03  0.52447262805E+03  0.00000000000E+00 0. -1.
        -14    1    5    5    0    0 -0.70095468448E+01 -0.10782467739E+02  0.12615067652E+02  0.18014863013E+02  0.00000000000E+00 0.  1.
          5    1    4    4  501    0 -0.73156073880E+01  0.22595886205E+02 -0.15080818794E+02  0.28442849371E+02  0.41800000000E+01 0. -1.
         -5    1    4    4    0  501 -0.11522255100E+03  0.24457926742E+02  0.18936534026E+03  0.22304961541E+03  0.41800000000E+01 0. -1.
</event>
<event>
11    1  0.8041700E-009  0.2087695E+03  0.7561462E-02  0.1048490E+00
         22   -1    0    0    0    0  0.00000000000E+00  0.00000000000E+00  0.77318802835E+03  0.77318802835E+03  0.00000000000E+00 0. -1.
         22   -1    0    0    0    0 -0.00000000000E+00 -0.00000000000E+00 -0.40696179117E+03  0.40696179117E+03  0.00000000000E+00 0. -1.
         24    2    1    2    0    0  0.82121958296E+01 -0.17027376263E+03 -0.30348302104E+03  0.35717582562E+03  0.80075164343E+02 0.  0.
         25    2    1    2    0    0 -0.15513654599E+01  0.15108707707E+03  0.56297295696E+02  0.20407573537E+03  0.12509120142E+03 0.  0.
        -24    2    1    2    0    0 -0.66608303697E+01  0.19186685559E+02  0.61341196253E+03  0.61889825853E+03  0.79676364602E+02 0.  0.
        -13    1    3    3    0    0  0.17531514286E+02 -0.11059375165E+02 -0.96823414682E+01  0.22878188489E+02  0.00000000000E+00 0.  1.
         14    1    3    3    0    0 -0.93193184566E+01 -0.15921438747E+03 -0.29380067957E+03  0.33429763713E+03  0.00000000000E+00 0. -1.
         13    1    5    5    0    0 -0.55946230443E+01  0.42367953046E+02  0.54469185773E+03  0.54636577778E+03  0.00000000000E+00 0. -1.
        -14    1    5    5    0    0 -0.10662073254E+01 -0.23181267487E+02  0.68720104796E+02  0.72532480749E+02  0.00000000000E+00 0.  1.
          5    1    4    4  501    0 -0.56482624008E+02  0.11333764159E+03  0.20644602438E+02  0.12837203677E+03  0.41800000000E+01 0.  1.
         -5    1    4    4    0  501  0.54931258548E+02  0.37749435485E+02  0.35652693258E+02  0.75703698599E+02  0.41800000000E+01 0.  1.
</event>
<event>
11    1  0.8041700E-009  0.1347233E+03  0.7561462E-02  0.1113598E+00
         22   -1    0    0    0    0  0.00000000000E+00  0.00000000000E+00  0.59060106288E+03  0.59060106288E+03  0.00000000000E+00 0. -1.
         22   -1    0    0    0    0 -0.00000000000E+00 -0.00000000000E+00 -0.25426951773E+04  0.25426951773E+04  0.00000000000E+00 0. -1.
        -24    2    1    2    0    0  0.50347501465E+02  0.10781557251E+02 -0.22468469349E+04  0.22488983913E+04  0.81066099543E+02 0.  0.
         25    2    1    2    0    0 -0.24858208472E+02 -0.25791214194E+02 -0.27688077246E+03  0.30592401669E+03  0.12507367657E+03 0.  0.
         24    2    1    2    0    0 -0.25489292993E+02  0.15009656944E+02  0.57163359292E+03  0.57847383225E+03  0.83618276624E+02 0.  0.
        -13    1    5    5    0    0 -0.20201537109E+02  0.16942831145E+02  0.47634811907E+02  0.54444806311E+02  0.00000000000E+00 0.  1.
         14    1    5    5    0    0 -0.52877558835E+01 -0.19331742015E+01  0.52399878101E+03  0.52402902594E+03  0.00000000000E+00 0. -1.
         13    1    3    3    0    0  0.31475735053E+02 -0.33573541409E+02 -0.13157192574E+04  0.13165238581E+04  0.00000000000E+00 0. -1.
        -14    1    3    3    0    0  0.18871766412E+02  0.44355098660E+02 -0.93112767750E+03  0.93237453319E+03  0.00000000000E+00 0.  1.
          5    1    4    4  501    0 -0.36240874536E+02 -0.45705254159E+02 -0.47441060395E+02  0.75302708160E+02  0.41800000000E+01 0. -1.
         -5    1    4    4    0  501  0.11382666065E+02  0.19914039964E+02 -0.22943971206E+03  0.23062130853E+03  0.41800000000E+01 0. -1.
</event>
<event>
11    1  0.8041700E-009  0.1325692E+03  0.7561462E-02  0.1116152E+00
         22   -1    0    0    0    0  0.00000000000E+00  0.00000000000E+00  0.28176868872E+03  0.28176868872E+03  0.00000000000E+00 0.  1.
         22   -1    0    0    0    0 -0.00000000000E+00 -0.00000000000E+00 -0.67025304697E+03  0.67025304697E+03  0.00000000000E+00 0. -1.
         24    2    1    2    0    0  0.26749343168E+02 -0.38593454252E+02 -0.48207967862E+03  0.49079869200E+03  0.79231038445E+02 0.  0.
         25    2    1    2    0    0 -0.68927628753E+02  0.30693739608E+02 -0.14437960518E+03  0.20539375178E+03  0.12509196306E+03 0.  0.
        -24    2    1    2    0    0  0.42178285585E+02  0.78997146432E+01  0.23797492556E+03  0.25582929190E+03  0.83517352303E+02 0.  0.
        -13    1    3    3    0    0  0.32747703010E+02  0.14932570438E+02 -0.14255036059E+03  0.14702380425E+03  0.00000000000E+00 0.  1.
         14    1    3    3    0    0 -0.59983598417E+01 -0.53526024689E+02 -0.33952931803E+03  0.34377488775E+03  0.00000000000E+00 0. -1.
         13    1    5    5    0    0  0.20953641720E+02  0.10627427508E+02  0.79382948192E+01  0.24799472603E+02  0.00000000000E+00 0. -1.
        -14    1    5    5    0    0  0.21224643865E+02 -0.27277128644E+01  0.23003663074E+03  0.23102981930E+03  0.00000000000E+00 0.  1.
          5    1    4    4  501    0  0.28392146981E+02  0.17308353777E+02 -0.36414950640E+01  0.33710918216E+02  0.41800000000E+01 0.  1.
         -5    1    4    4    0  501 -0.97319775734E+02  0.13385385832E+02 -0.14073811012E+03  0.17168283357E+03  0.41800000000E+01 0.  1.
</event>
<event>
11    1  0.8041700E-009  0.1951844E+03  0.7561462E-02  0.1057982E+00
         22   -1    0    0    0    0  0.00000000000E+00  0.00000000000E+00  0.80358690305E+03  0.80358690305E+03  0.00000000000E+00 0.  1.
         22   -1    0    0    0    0 -0.00000000000E+00 -0.00000000000E+00 -0.15771920899E+04  0.15771920899E+04  0.00000000000E+00 0.  1.
         24    2    1    2    0    0 -0.16231742736E+03 -0.25273280745E+02 -0.12031314856E+04  0.12168235068E+04  0.78411664366E+02 0.  0.
         25    2    1    2    0    0  0.10998655965E+03  0.50779786014E+01 -0.34470781629E+03  0.38287480817E+03  0.12508721337E+03 0.  0.
        -24    2    1    2    0    0  0.52330867715E+02  0.20195302143E+02  0.77423411508E+03  0.78108067793E+03  0.86615186533E+02 0.  0.
        -13    1    3    3    0    0 -0.86987826790E+02 -0.52491987781E+02 -0.70901158177E+03  0.71625394510E+03  0.00000000000E+00 0.  1.
         14    1    3    3    0    0 -0.75329600571E+02  0.27218707036E+02 -0.49411990387E+03  0.50056956174E+03  0.00000000000E+00 0. -1.
         11    1    5    5    0    0 -0.13969343735E+02 -0.78251431082E+01  0.36677117757E+02  0.40019825037E+02  0.00000000000E+00 0. -1.
        -12    1    5    5    0    0  0.66300211450E+02  0.28020445251E+02  0.73755699733E+03  0.74106085290E+03  0.00000000000E+00 0.  1.
          5    1    4    4  501    0  0.41858988732E+02  0.52776233999E+02 -0.76392737490E+02  0.10193541364E+03  0.41800000000E+01 0.  1.
         -5    1    4    4    0  501  0.68127570914E+02 -0.47698255398E+02 -0.26831507880E+03  0.28093939453E+03  0.41800000000E+01 0.  1.
</event>
<event>
11    1  0.8041700E-009  0.1480957E+03  0.7561462E-02  0.1098841E+00
         22   -1    0    0    0    0  0.00000000000E+00  0.00000000000E+00  0.19050115041E+04  0.19050115041E+04  0.00000000000E+00 0.  1.
         22   -1    0    0    0    0 -0.00000000000E+00 -0.00000000000E+00 -0.25630307519E+03  0.25630307519E+03  0.00000000000E+00 0. -1.
        -24    2    1    2    0    0 -0.98468608528E+01  0.79044932616E+02 -0.22913545811E+03  0.25555486445E+03  0.80375173664E+02 0.  0.
         25    2    1    2    0    0  0.65010211560E+02 -0.57202400877E+02  0.46269893980E+03  0.48707032029E+03  0.12509494690E+03 0.  0.
         24    2    1    2    0    0 -0.55163350707E+02 -0.21842531739E+02  0.14151449472E+04  0.14186893945E+04  0.80773047012E+02 0.  0.
        -11    1    5    5    0    0 -0.70960268254E+02 -0.31868585097E+01  0.82995496713E+03  0.83298905347E+03  0.00000000000E+00 0.  1.
         12    1    5    5    0    0  0.15796917547E+02 -0.18655673229E+02  0.58518998007E+03  0.58570034106E+03  0.00000000000E+00 0. -1.
         11    1    3    3    0    0 -0.42988794676E+02  0.50305827088E+02 -0.16574603020E+03  0.17846696959E+03  0.00000000000E+00 0. -1.
        -12    1    3    3    0    0  0.33141933824E+02  0.28739105527E+02 -0.63389427912E+02  0.77087894868E+02  0.00000000000E+00 0.  1.
          5    1    4    4  501    0  0.79909406183E+02 -0.52756614741E+02  0.18011922734E+03  0.20403230640E+03  0.41800000000E+01 0.  1.
         -5    1    4    4    0  501 -0.14899194623E+02 -0.44457861351E+01  0.28257971246E+03  0.28303801389E+03  0.41800000000E+01 0.  1.
</event>
<event>
11    1  0.8041700E-009  0.1424780E+03  0.7561462E-02  0.1104822E+00
         22   -1    0    0    0    0  0.00000000000E+00  0.00000000000E+00  0.17822905057E+04  0.17822905057E+04  0.00000000000E+00 0. -1.
         22   -1    0    0    0    0 -0.00000000000E+00 -0.00000000000E+00 -0.15423831449E+03  0.15423831449E+03  0.00000000000E+00 0.  1.
        -24    2    1    2    0    0 -0.57642978563E+00 -0.27483051233E+02 -0.65331677655E+02  0.10538235447E+03  0.77984371202E+02 0.  0.
         25    2    1    2    0    0 -0.50583928462E+02 -0.18314535273E+02  0.17828120517E+01  0.13618000662E+03  0.12509060622E+03 0.  0.
         24    2    1    2    0    0  0.51160358248E+02  0.45797586506E+02  0.16916010568E+04  0.16949664591E+04  0.81745708540E+02 0.  0.
        -13    1    5    5    0    0 -0.22374387169E+02  0.14893321095E+02  0.39313270550E+03  0.39405043884E+03  0.00000000000E+00 0.  1.
         14    1    5    5    0    0  0.73534745416E+02  0.30904265411E+02  0.12984683513E+04  0.13009160202E+04  0.00000000000E+00 0. -1.
         11    1    3    3    0    0 -0.14772606992E+02 -0.20653085176E+02  0.10832079415E+02  0.27606408479E+02  0.00000000000E+00 0. -1.
        -12    1    3    3    0    0  0.14196177207E+02 -0.68299660566E+01 -0.76163757070E+02  0.77775945990E+02  0.00000000000E+00 0.  1.
          5    1    4    4  501    0 -0.29286647521E+02 -0.68471903013E+02  0.22225196802E+02  0.77830206207E+02  0.41800000000E+01 0. -1.
         -5    1    4    4    0  501 -0.21297280941E+02  0.50157367740E+02 -0.20442384750E+02  0.58349800414E+02  0.41800000000E+01 0. -1.
</event>
<event>
11    1  0.8041700E-009  0.1255067E+03  0.7561462E-02  0.1124916E+00
         22   -1    0    0    0    0  0.00000000000E+00  0.00000000000E+00  0.13017071818E+04  0.13017071818E+04  0.00000000000E+00 0. -1.
         22   -1    0    0    0    0 -0.00000000000E+00 -0.00000000000E+00 -0.55118230860E+03  0.55118230860E+03  0.00000000000E+00 0.  1.
        -24    2    1    2    0    0 -0.73332148374E+01 -0.11846108409E+02 -0.51913488490E+03  0.52551522382E+03  0.80443243516E+02 0.  0.
         25    2    1    2    0    0  0.17145704603E+02  0.99082936762E+01  0.11931091216E+03  0.17399268768E+03  0.12508481977E+03 0.  0.
         24    2    1    2    0    0 -0.98124897651E+01  0.19378147325E+01  0.11503488459E+04  0.11533815788E+04  0.82985294447E+02 0.  0.
        -11    1    5    5    0    0 -0.18081559935E+02  0.32635392553E+02  0.28281168288E+03  0.28526208936E+03  0.00000000000E+00 0.  1.
         12    1    5    5    0    0  0.82690701695E+01 -0.30697577821E+02  0.86753716302E+03  0.86811948948E+03  0.00000000000E+00 0. -1.
         11    1    3    3    0    0 -0.52106538077E+01  0.34678493089E+02 -0.22272851686E+03  0.22547226219E+03  0.00000000000E+00 0. -1.
        -12    1    3    3    0    0 -0.21225610297E+01 -0.46524601498E+02 -0.29640636804E+03  0.30004296163E+03  0.00000000000E+00 0.  1.
          5    1    4    4  501    0  0.62498269702E+02 -0.12588426752E+02  0.28541214477E+02  0.69975535208E+02  0.41800000000E+01 0. -1.
         -5    1    4    4    0  501 -0.45352565099E+02  0.22496720428E+02  0.90769697681E+02  0.10401715247E+03  0.41800000000E+01 0. -1.
</event>
<event>
11    1  0.8041700E-009  0.1890879E+03  0.7561462E-02  0.1062520E+00
         22   -1    0    0    0    0  0.00000000000E+00  0.00000000000E+00  0.17280085572E+04  0.17280085572E+04  0.00000000000E+00 0.  1.
         22   -1    0    0    0    0 -0.00000000000E+00 -0.00000000000E+00 -0.19612393801E+03  0.19612393801E+03  0.00000000000E+00 0.  1.
        -24    2    1    2    0    0  0.42011616812E+02 -0.13125779836E+03 -0.97498347276E+02  0.18749405566E+03  0.81575165402E+02 0.  0.
         25    2    1    2    0    0 -0.75563740824E+02  0.14265249111E+03  0.14707520250E+03  0.25167216285E+03  0.12509256659E+03 0.  0.
         24    2    1    2    0    0  0.33552124012E+02 -0.11394692757E+02  0.14823077640E+04  0.14849662767E+04  0.81442935609E+02 0.  0.
        -11    1    5    5    0    0  0.46142359728E+02  0.16924780447E+02  0.11911847164E+04  0.11921982193E+04  0.00000000000E+00 0.  1.
         12    1    5    5    0    0 -0.12590235716E+02 -0.28319473204E+02  0.29112304758E+03  0.29276805740E+03  0.00000000000E+00 0. -1.
         13    1    3    3    0    0  0.57597415528E+01  0.12872201445E+01  0.10951472078E+02  0.12440510405E+02  0.00000000000E+00 0. -1.
        -14    1    3    3    0    0  0.36251875259E+02 -0.13254501850E+03 -0.10844981935E+03  0.17505354526E+03  0.00000000000E+00 0.  1.
          5    1    4    4  501    0  0.18928933608E+02  0.74465616403E+02  0.99395152079E+02  0.12569924905E+03  0.41800000000E+01 0.  1.
         -5    1    4    4    0  501 -0.94492674432E+02  0.68186874710E+02  0.47680050420E+02  0.12597291380E+03  0.41800000000E+01 0.  1.
</event>
<event>
11    1  0.8041700E-009  0.2016546E+03  0.7561462E-02  0.1053360E+00
         22   -1    0    0    0    0  0.00000000000E+00  0.00000000000E+00  0.20346766918E+04  0.20346766918E+04  0.00000000000E+00 0. -1.
         22   -1    0    0    0    0 -0.00000000000E+00 -0.00000000000E+00 -0.75039614273E+03  0.75039614273E+03  0.00000000000E+00 0.  1.
        -24    2    1    2    0    0 -0.14510540813E+03  0.61188814605E+02 -0.51669735067E+03  0.54589243898E+03  0.78884423294E+02 0.  0.
         25    2    1    2    0    0  0.13528357029E+03 -0.90339730422E+02 -0.16989709084E+03  0.26641188154E+03  0.12508939949E+03 0.  0.
         24    2    1    2    0    0  0.98218378376E+01  0.29150915818E+02  0.19708749905E+04  0.19727685140E+04  0.80753557356E+02 0.  0.
        -11    1    5    5    0    0  0.16990834182E+02  0.15862074804E+02  0.14662219030E+03  0.14845322682E+03  0.00000000000E+00 0.  1.
         12    1    5    5    0    0 -0.71689963446E+01  0.13288841013E+02  0.18242528002E+04  0.18243152872E+04  0.00000000000E+00 0. -1.
         11    1    3    3    0    0 -0.10967831976E+02  0.16561309436E+02 -0.15661668641E+02  0.25295418026E+02  0.00000000000E+00 0. -1.
        -12    1    3    3    0    0 -0.13413757615E+03  0.44627505169E+02 -0.50103568203E+03  0.52059702095E+03  0.00000000000E+00 0.  1.
          5    1    4    4  501    0  0.86500890319E+00 -0.39473075603E+02  0.49815423858E+01  0.40014498654E+02  0.41800000000E+01 0. -1.
         -5    1    4    4    0  501  0.13441856139E+03 -0.50866654820E+02 -0.17487863322E+03  0.22639738288E+03  0.41800000000E+01 0. -1.
</event>
<event>
11    1  0.8041700E-009  0.1521141E+03  0.7561462E-02  0.1094738E+00
         22   -1    0    0    0    0  0.00000000000E+00  0.00000000000E+00  0.17439091426E+04  0.17439091426E+04  0.00000000000E+00 0. -1.
         22   -1    0    0    0    0 -0.00000000000E+00 -0.00000000000E+00 -0.14763218235E+04  0.14763218235E+04  0.00000000000E+00 0.  1.
         24    2    1    2    0    0  0.43253424676E+02 -0.57079338005E+02 -0.14506603057E+04  0.14547633811E+04  0.82415185701E+02 0.  0.
         25    2    1    2    0    0 -0.12011284119E+03  0.21695569944E+02  0.34039568421E+03  0.38264150665E+03  0.12509000123E+03 0.  0.
        -24    2    1    2    0    0  0.76859416512E+02  0.35383768061E+02  0.13778519406E+04  0.13828260784E+04  0.81071647620E+02 0.  0.
        -11    1    3    3    0    0  0.60883187981E+02 -0.47052361881E+02 -0.77764279076E+03  0.78144033512E+03  0.00000000000E+00 0.  1.
         12    1    3    3    0    0 -0.17629763305E+02 -0.10026976123E+02 -0.67301751491E+03  0.67332304593E+03  0.00000000000E+00 0. -1.
         13    1    5    5    0    0  0.63621135108E+02  0.10268762077E+02  0.12583071363E+04  0.12599563269E+04  0.00000000000E+00 0. -1.
        -14    1    5    5    0    0  0.13238281404E+02  0.25115005984E+02  0.11954480425E+03  0.12286975154E+03  0.00000000000E+00 0.  1.
          5    1    4    4  501    0 -0.10011424437E+03  0.66305248527E+02  0.19351502478E+03  0.22778231961E+03  0.41800000000E+01 0. -1.
         -5    1    4    4    0  501 -0.19998596817E+02 -0.44609678583E+02  0.14688065943E+03  0.15485918705E+03  0.41800000000E+01 0. -1.
</event>
<event>
11    1  0.8041700E-009  0.2768034E+03  0.7561462E-02  0.1010516E+00
         22   -1    0    0    0    0  0.00000000000E+00  0.00000000000E+00  0.23855449939E+04  0.23855449939E+04  0.00000000000E+00 0. -1.
         22   -1    0    0    0    0 -0.00000000000E+00 -0.00000000000E+00 -0.22895227057E+04  0.22895227057E+04  0.00000000000E+00 0. -1.
         24    2    1    2    0    0  0.20473984222E+02  0.24643537956E+03 -0.22203294457E+04  0.22354832211E+04  0.79829845439E+02 0.  0.
         25    2    1    2    0    0 -0.55701005447E+02 -0.22896317766E+03  0.23278775095E+03  0.35407188522E+03  0.12510005668E+03 0.  0.
        -24    2    1    2    0    0  0.35227021224E+02 -0.17472201906E+02  0.20835639830E+04  0.20855125932E+04  0.81102925373E+02 0.  0.
        -11    1    3    3    0    0  0.17194977342E+02  0.18489949341E+02 -0.10921271967E+03  0.11209354847E+03  0.00000000000E+00 0.  1.
         12    1    3    3    0    0  0.32790068799E+01  0.22794543022E+03 -0.21111167260E+04  0.21233896727E+04  0.00000000000E+00 0. -1.
         11    1    5    5    0    0 -0.14988467249E+01 -0.37617337916E+02  0.14885524585E+04  0.14890284525E+04  0.00000000000E+00 0. -1.
        -12    1    5    5    0    0  0.36725867949E+02  0.20145136010E+02  0.59501152445E+03  0.59648414070E+03  0.00000000000E+00 0.  1.
          5    1    4    4  501    0 -0.22246632737E+02 -0.23168174948E+03  0.20747936200E+03  0.31182768281E+03  0.41800000000E+01 0.  1.
         -5    1    4    4    0  501 -0.33454372710E+02  0.27185718223E+01  0.25308388958E+02  0.42244202417E+02  0.41800000000E+01 0.  1.
</event>
<event>
11    1  0.8041700E-009  0.1444135E+03  0.7561462E-02  0.1102728E+00
         22   -1    0    0    0    0  0.00000000000E+00  0.00000000000E+00  0.37557910814E+03  0.37557910814E+03  0.00000000000E+00 0. -1.
         22   -1    0    0    0    0 -0.00000000000E+00 -0.00000000000E+00 -0.42733113387E+03  0.42733113387E+03  0.00000000000E+00 0.  1.
         24    2    1    2    0    0 -0.33141113698E+02 -0.19098594730E+02 -0.36580623620E+03  0.37841439092E+03  0.88995275571E+02 0.  0.
         25    2    1    2    0    0 -0.10066879229E+02  0.77474981033E+02  0.83480757743E+02  0.16947550449E+03  0.12509674243E+03 0.  0.
        -24    2    1    2    0    0  0.43207992927E+02 -0.58376386304E+02  0.23057345273E+03  0.25502034659E+03  0.81219006032E+02 0.  0.
        -11    1    3    3    0    0 -0.30699149749E+02  0.25641647855E+02 -0.26627561219E+03  0.26926313069E+03  0.00000000000E+00 0.  1.
         12    1    3    3    0    0 -0.24419639492E+01 -0.44740242585E+02 -0.99530624011E+02  0.10915126023E+03  0.00000000000E+00 0. -1.
         11    1    5    5    0    0  0.43541139147E+02 -0.77786691246E+02  0.18042809517E+03  0.20124834822E+03  0.00000000000E+00 0. -1.
        -12    1    5    5    0    0 -0.33314622001E+00  0.19410304942E+02  0.50145357558E+02  0.53771998373E+02  0.00000000000E+00 0.  1.
          5    1    4    4  501    0 -0.46893340145E+02  0.92203897949E+02  0.77106675711E+02  0.12908700936E+03  0.41800000000E+01 0. -1.
         -5    1    4    4    0  501  0.36826460915E+02 -0.14728916916E+02  0.63740820321E+01  0.40388495129E+02  0.41800000000E+01 0. -1.
</event>
<event>
11    1  0.8041700E-009  0.1933836E+03  0.7561462E-02  0.1059304E+00
         22   -1    0    0    0    0  0.00000000000E+00  0.00000000000E+00  0.80458934191E+03  0.80458934191E+03  0.00000000000E+00 0.  1.
         22   -1    0    0    0    0 -0.00000000000E+00 -0.00000000000E+00 -0.31678541625E+04  0.31678541625E+04  0.00000000000E+00 0.  1.
         24    2    1    2    0    0  0.31894549939E+02 -0.35504140936E+02 -0.22559937025E+04  0.22579562536E+04  0.81123676860E+02 0.  0.
         25    2    1    2    0    0 -0.13083078095E+03  0.14424262029E+03 -0.88714509813E+03  0.91684061705E+03  0.12509062791E+03 0.  0.
        -24    2    1    2    0    0  0.98936231006E+02 -0.10873847935E+03  0.77987398005E+03  0.79764663379E+03  0.80151687136E+02 0.  0.
        -11    1    3    3    0    0  0.57863304233E+02 -0.29692831489E+02 -0.18111226257E+04  0.18122899855E+04  0.00000000000E+00 0.  1.
         12    1    3    3    0    0 -0.25968754294E+02 -0.58113094475E+01 -0.44487107683E+03  0.44566626809E+03  0.00000000000E+00 0. -1.
         11    1    5    5    0    0  0.94921699087E+02 -0.67121528617E+02  0.43573586619E+03  0.45097801903E+03  0.00000000000E+00 0. -1.
        -12    1    5    5    0    0  0.40145319192E+01 -0.41616950732E+02  0.34413811386E+03  0.34666861477E+03  0.00000000000E+00 0.  1.
          5    1    4    4  501    0 -0.19711367722E+02 -0.22985299895E+02 -0.12455154770E+03  0.12824750471E+03  0.41800000000E+01 0. -1.
         -5    1    4    4    0  501 -0.11111941322E+03  0.16722792018E+03 -0.76259355043E+03  0.78859311234E+03  0.41800000000E+01 0. -1.
</event>
<event>
11    1  0.8041700E-009  0.1619664E+03  0.7561462E-02  0.1085242E+00
         22   -1    0    0    0    0  0.00000000000E+00  0.00000000000E+00  0.20221528658E+04  0.20221528658E+04  0.00000000000E+00 0. -1.
         22   -1    0    0    0    0 -0.00000000000E+00 -0.00000000000E+00 -0.56119198246E+03  0.56119198246E+03  0.00000000000E+00 0.  1.
        -24    2    1    2    0    0 -0.39581252814E+02 -0.85876363268E+02 -0.53463271142E+03  0.54855971691E+03  0.78384957437E+02 0.  0.
         25    2    1    2    0    0  0.87559287358E+02 -0.14192360448E+02  0.33328491529E+03  0.36687310215E+03  0.12509590889E+03 0.  0.
         24    2    1    2    0    0 -0.47978034544E+02  0.10006872372E+03  0.16623086795E+04  0.16679120292E+04  0.79653939340E+02 0.  0.
        -11    1    5    5    0    0  0.13778804001E+02  0.57639201725E+02  0.58253208730E+03  0.58553886783E+03  0.00000000000E+00 0.  1.
         12    1    5    5    0    0 -0.61756838545E+02  0.42429521991E+02  0.10797765922E+04  0.10823731614E+04  0.00000000000E+00 0. -1.
         13    1    3    3    0    0 -0.55982136657E+02 -0.32747276587E+02 -0.23366729909E+03  0.24250111425E+03  0.00000000000E+00 0. -1.
        -14    1    3    3    0    0  0.16400883843E+02 -0.53129086681E+02 -0.30096541233E+03  0.30605860266E+03  0.00000000000E+00 0.  1.
          5    1    4    4  501    0 -0.26328226186E+02 -0.42872279982E+01  0.20725619694E+02  0.34037913122E+02  0.41800000000E+01 0. -1.
         -5    1    4    4    0  501  0.11388751354E+03 -0.99051324498E+01  0.31255929560E+03  0.33283518903E+03  0.41800000000E+01 0. -1.
</event>
<event>
11    1  0.8041700E-009  0.1313552E+03  0.7561462E-02  0.1117615E+00
         22   -1    0    0    0    0  0.00000000000E+00  0.00000000000E+00  0.29285681997E+03  0.29285681997E+03  0.00000000000E+00 0. -1.
         22   -1    0    0    0    0 -0.00000000000E+00 -0.00000000000E+00 -0.48582782641E+03  0.48582782641E+03  0.00000000000E+00 0.  1.
        -24    2    1    2    0    0  0.40445527957E+02  0.20906350719E+01 -0.42910945512E+03  0.43715385666E+03  0.72995605529E+02 0.  0.
         25    2    1    2    0    0 -0.29971786042E+02 -0.77447021341E+01  0.49709612045E+02  0.13811911980E+03  0.12509019688E+03 0.  0.
         24    2    1    2    0    0 -0.10473741915E+02  0.56540670621E+01  0.18642883665E+03  0.20341166992E+03  0.80491792021E+02 0.  0.
        -13    1    5    5    0    0  0.19258343703E+02  0.30473138152E+02  0.13046287515E+03  0.13535160784E+03  0.00000000000E+00 0.  1.
         14    1    5    5    0    0 -0.29732085619E+02 -0.24819071089E+02  0.55965961494E+02  0.68060062084E+02  0.00000000000E+00 0. -1.
         11    1    3    3    0    0 -0.19218958534E+01 -0.56304941033E+01 -0.61276218259E-01  0.59497817013E+01  0.00000000000E+00 0. -1.
        -12    1    3    3    0    0  0.42367423811E+02  0.77211291752E+01 -0.42904817891E+03  0.43120407496E+03  0.00000000000E+00 0.  1.
          5    1    4    4  501    0 -0.14899942033E+02  0.55989625889E+02  0.42753312131E+02  0.72126032596E+02  0.41800000000E+01 0.  1.
         -5    1    4    4    0  501 -0.15071844009E+02 -0.63734328024E+02  0.69562999144E+01  0.65993087206E+02  0.41800000000E+01 0.  1.
</event>
<event>
11    1  0.8041700E-009  0.1289289E+03  0.7561462E-02  0.1120592E+00
         22   -1    0    0    0    0  0.00000000000E+00  0.00000000000E+00  0.10395770975E+04  0.10395770975E+04  0.00000000000E+00 0.  1.
         22   -1    0    0    0    0 -0.00000000000E+00 -0.00000000000E+00 -0.62088873737E+03  0.62088873737E+03  0.00000000000E+00 0. -1.
         24    2    1    2    0    0  0.60682261561E+01 -0.38593534717E+02 -0.59871377358E+03  0.60504891279E+03  0.78100703617E+02 0.  0.
         25    2    1    2    0    0  0.16961555131E+02  0.11665552119E+02  0.22631435011E+03  0.25940150032E+03  0.12508866394E+03 0.  0.
        -24    2    1    2    0    0 -0.23029781287E+02  0.26927982599E+02  0.79108778358E+03  0.79601542173E+03  0.81025818357E+02 0.  0.
        -11    1    3    3    0    0 -0.14077268776E+02 -0.32295265403E+02 -0.10248140104E+03  0.10836785142E+03  0.00000000000E+00 0.  1.
         12    1    3    3    0    0  0.20145494932E+02 -0.62982693147E+01 -0.49623237254E+03  0.49668106137E+03  0.00000000000E+00 0. -1.
         11    1    5    5    0    0  0.26188174355E+02 -0.37195555672E+01  0.15028912561E+03  0.15259907223E+03  0.00000000000E+00 0. -1.
        -12    1    5    5    0    0 -0.49217955642E+02  0.30647538166E+02  0.64079865797E+03  0.64341634950E+03  0.00000000000E+00 0.  1.
          5    1    4    4  501    0 -0.25348156286E+02  0.52227638503E+02  0.62680885068E+02  0.85537249217E+02  0.41800000000E+01 0.  1.
         -5    1    4    4    0  501  0.42309711417E+02 -0.40562086384E+02  0.16363346504E+03  0.17386425110E+03  0.41800000000E+01 0.  1.
</event>
<event>
11    1  0.8041700E-009  0.1308390E+03  0.7561462E-02  0.1118242E+00
         22   -1    0    0    0    0  0.00000000000E+00  0.00000000000E+00  0.15897705505E+04  0.15897705505E+04  0.00000000000E+00 0. -1.
         22   -1    0    0    0    0 -0.00000000000E+00 -0.00000000000E+00 -0.26908745826E+03  0.26908745826E+03  0.00000000000E+00 0. -1.
         24    2    1    2    0    0 -0.13940736415E+01  0.35190376383E+02 -0.16378836363E+03  0.18602219332E+03  0.80853709366E+02 0.  0.
         25    2    1    2    0    0  0.12367368979E+02 -0.51556488109E+02 -0.43442368114E+02  0.14264396126E+03  0.12509611128E+03 0.  0.
        -24    2    1    2    0    0 -0.10973295337E+02  0.16366111726E+02  0.15279138240E+04  0.15301918541E+04  0.81106067845E+02 0.  0.
        -11    1    3    3    0    0 -0.10440158898E+02 -0.25121404662E+02 -0.50498732607E+02  0.57360298856E+02  0.00000000000E+00 0.  1.
         12    1    3    3    0    0  0.90460852563E+01  0.60311781045E+02 -0.11328963102E+03  0.12866189447E+03  0.00000000000E+00 0. -1.
         13    1    5    5    0    0  0.17928649666E+02 -0.83160370152E+01  0.11872388762E+04  0.11874033612E+04  0.00000000000E+00 0. -1.
        -14    1    5    5    0    0 -0.28901945003E+02  0.24682148741E+02  0.34067494775E+03  0.34278849298E+03  0.00000000000E+00 0.  1.
          5    1    4    4  501    0 -0.37332463997E+02  0.21943844307E+02  0.57866998369E+00  0.43509222356E+02  0.41800000000E+01 0.  1.
         -5    1    4    4    0  501  0.49699832976E+02 -0.73500332416E+02 -0.44021038097E+02  0.99134738908E+02  0.41800000000E+01 0.  1.
</event>
<event>
11    1  0.8041700E-009  0.1502023E+03  0.7561462E-02  0.1096672E+00
         22   -1    0    0    0    0  0.00000000000E+00  0.00000000000E+00  0.52525368955E+03  0.52525368955E+03  0.00000000000E+00 0.  1.
         22   -1    0    0    0    0 -0.00000000000E+00 -0.00000000000E+00 -0.30533843040E+03  0.30533843040E+03  0.00000000000E+00 0. -1.
         24    2    1    2    0    0  0.51832590828E+02  0.61360628857E+02 -0.22631014492E+03  0.25318085639E+03  0.80202993099E+02 0.  0.
         25    2    1    2    0    0 -0.68264565162E+02 -0.81259520659E+02  0.47884985082E+02  0.17089091426E+03  0.12509025632E+03 0.  0.
        -24    2    1    2    0    0  0.16431974335E+02  0.19898891802E+02  0.39834041900E+03  0.40652034930E+03  0.76926778867E+02 0.  0.
        -13    1    3    3    0    0 -0.18110835265E+02 -0.18680296378E+01 -0.25452836150E+02  0.31294388583E+02  0.00000000000E+00 0.  1.
         14    1    3    3    0    0  0.69943426093E+02  0.63228658495E+02 -0.20085730877E+03  0.22188646781E+03  0.00000000000E+00 0. -1.
         11    1    5    5    0    0  0.31927225751E+02  0.41147640842E+02  0.21046604305E+03  0.21681427852E+03  0.00000000000E+00 0. -1.
        -12    1    5    5    0    0 -0.15495251417E+02 -0.21248749040E+02  0.18787437595E+03  0.18970607078E+03  0.00000000000E+00 0.  1.
          5    1    4    4  501    0 -0.81762581307E+02 -0.16241446249E+02 -0.82052355196E+01  0.83867172172E+02  0.41800000000E+01 0. -1.
         -5    1    4    4    0  501  0.13498016144E+02 -0.65018074410E+02  0.56090220601E+02  0.87023742087E+02  0.41800000000E+01 0. -1.
</event>
<event>
11    1  0.8041700E-009  0.1280716E+03  0.7561462E-02  0.1121661E+00
         22   -1    0    0    0    0  0.00000000000E+00  0.00000000000E+00  0.36026048877E+03  0.36026048877E+03  0.00000000000E+00 0. -1.
         22   -1    0    0    0    0 -0.00000000000E+00 -0.00000000000E+00 -0.11701036847E+04  0.11701036847E+04  0.00000000000E+00 0. -1.
         24    2    1    2    0    0  0.48493319795E+01  0.26492921629E+02 -0.84844475602E+03  0.85254816733E+03  0.79085287456E+02 0.  0.
         25    2    1    2    0    0 -0.42563505912E+01  0.14618137768E+01 -0.30122188796E+03  0.32619412025E+03  0.12509086648E+03 0.  0.
        -24    2    1    2    0    0 -0.59298138833E+00 -0.27954735406E+02  0.33982344807E+03  0.35162188588E+03  0.85884549901E+02 0.  0.
        -11    1    3    3    0    0  0.29244025098E+01  0.20626786516E+02 -0.51154956304E+02  0.55234463938E+02  0.00000000000E+00 0.  1.
         12    1    3    3    0    0  0.19249294698E+01  0.58661351131E+01 -0.79728979971E+03  0.79731370340E+03  0.00000000000E+00 0. -1.
         13    1    5    5    0    0  0.14998543725E+02 -0.54001434350E+02  0.26525238258E+03  0.27110871932E+03  0.00000000000E+00 0. -1.
        -14    1    5    5    0    0 -0.15591525113E+02  0.26046698944E+02  0.74571065492E+02  0.80513166562E+02  0.00000000000E+00 0.  1.
          5    1    4    4  501    0  0.65397553865E+00 -0.60608049881E+02 -0.11953444354E+03  0.13408847447E+03  0.41800000000E+01 0. -1.
         -5    1    4    4    0  501 -0.49103261299E+01  0.62069863657E+02 -0.18168744442E+03  0.19210564577E+03  0.41800000000E+01 0. -1.
</event>
<event>
11    1  0.8041700E-009  0.1414559E+03  0.7561462E-02  0.1105944E+00
         22   -1    0    0    0    0  0.00000000000E+00  0.00000000000E+00  0.18804385224E+03  0.18804385224E+03  0.00000000000E+00 0.  1.
         22   -1    0    0    0    0 -0.00000000000E+00 -0.00000000000E+00 -0.12819189136E+04  0.12819189136E+04  0.00000000000E+00 0.  1.
        -24    2    1    2    0    0  0.10484703686E+02 -0.55780796085E+02 -0.78561291927E+03  0.79181065903E+03  0.80963168154E+02 0.  0.
         25    2    1    2    0    0 -0.45389317839E+01  0.11973995103E+03 -0.46105289805E+03  0.49251870346E+03  0.12508653279E+03 0.  0.
         24    2    1    2    0    0 -0.59457719025E+01 -0.63959154946E+02  0.15279075599E+03  0.18563340332E+03  0.83597964127E+02 0.  0.
        -11    1    5    5    0    0  0.25838957447E+02 -0.64602684621E+01  0.93212838245E+02  0.96943385562E+02  0.00000000000E+00 0.  1.
         12    1    5    5    0    0 -0.31784729349E+02 -0.57498886484E+02  0.59577917748E+02  0.88690017758E+02  0.00000000000E+00 0. -1.
         13    1    3    3    0    0 -0.33266270227E+02 -0.20646338148E+02 -0.43234089478E+03  0.43411008433E+03  0.00000000000E+00 0. -1.
        -14    1    3    3    0    0  0.43750973913E+02 -0.35134457937E+02 -0.35327202449E+03  0.35770057470E+03  0.00000000000E+00 0.  1.
          5    1    4    4  501    0  0.65845554936E+01  0.77162819127E+02 -0.43360420201E+03  0.44048556551E+03  0.41800000000E+01 0.  1.
         -5    1    4    4    0  501 -0.11123487278E+02  0.42577131903E+02 -0.27448696037E+02  0.52033137946E+02  0.41800000000E+01 0.  1.
</event>
<event>
11    1  0.8041700E-009  0.1554495E+03  0.7561462E-02  0.1091437E+00
         22   -1    0    0    0    0  0.00000000000E+00  0.00000000000E+00  0.26568232878E+04  0.26568232878E+04  0.00000000000E+00 0.  1.
         22   -1    0    0    0    0 -0.00000000000E+00 -0.00000000000E+00 -0.24859285731E+03  0.24859285731E+03  0.00000000000E+00 0.  1.
         24    2    1    2    0    0 -0.53426857079E+02  0.72957547314E+02 -0.20237550975E+03  0.23633432687E+03  0.81980694922E+02 0.  0.
         25    2    1    2    0    0 -0.33446955286E+02 -0.30760282758E+02  0.13243985474E+03  0.18775632231E+03  0.12508887893E+03 0.  0.
        -24    2    1    2    0    0  0.86873812366E+02 -0.42197264556E+02  0.24781660855E+04  0.24813254959E+04  0.79632914125E+02 0.  0.
        -13    1    3    3    0    0 -0.92167959496E+01  0.73125922569E+02 -0.15442954766E+03  0.17111643717E+03  0.00000000000E+00 0.  1.
         14    1    3    3    0    0 -0.44210061130E+02 -0.16837525442E+00 -0.47945962089E+02  0.65217889693E+02  0.00000000000E+00 0. -1.
         13    1    5    5    0    0 -0.42136316970E+01  0.15088417665E+02  0.48927086043E+03  0.48952159289E+03  0.00000000000E+00 0. -1.
        -14    1    5    5    0    0  0.91087444063E+02 -0.57285682221E+02  0.19888952251E+04  0.19918039030E+04  0.00000000000E+00 0.  1.
          5    1    4    4  501    0  0.23530501809E+02  0.26594038402E+02  0.88936103588E+02  0.95854213863E+02  0.41800000000E+01 0.  1.
         -5    1    4    4    0  501 -0.56977457096E+02 -0.57354321160E+02  0.43503751153E+02  0.91902108448E+02  0.41800000000E+01 0.  1.
</event>
<event>
11    1  0.8041700E-009  0.5604749E+03  0.7561462E-02  0.9267696E-01
         22   -1    0    0    0    0  0.00000000000E+00  0.00000000000E+00  0.49719711943E+03  0.49719711943E+03  0.00000000000E+00 0. -1.
         22   -1    0    0    0    0 -0.00000000000E+00 -0.00000000000E+00 -0.74674114224E+03  0.74674114224E+03  0.00000000000E+00 0.  1.
        -24    2    1    2    0    0  0.32592601903E+03  0.42929840508E+03 -0.17033188392E+03  0.57064304081E+03  0.78074572448E+02 0.  0.
         25    2    1    2    0    0 -0.32093606995E+03 -0.45280036564E+03 -0.11613578944E+03  0.58065872685E+03  0.12509557691E+03 0.  0.
         24    2    1    2    0    0 -0.49899490767E+01  0.23501960559E+02  0.36923650548E+02  0.92636494011E+02  0.81491854261E+02 0.  0.
        -13    1    5    5    0    0 -0.63494821056E+01 -0.29300484402E+02  0.23619149130E+02  0.38166719990E+02  0.00000000000E+00 0.  1.
         14    1    5    5    0    0  0.13595330289E+01  0.52802444961E+02  0.13304501418E+02  0.54469774021E+02  0.00000000000E+00 0. -1.
         13    1    3    3    0    0  0.29734679100E+03  0.39346865526E+03 -0.17769928948E+03  0.52422298145E+03  0.00000000000E+00 0. -1.
        -14    1    3    3    0    0  0.28579228025E+02  0.35829749820E+02  0.73674055679E+01  0.46420059366E+02  0.00000000000E+00 0.  1.
          5    1    4    4  501    0 -0.17667714295E+03 -0.14400361587E+03 -0.51917989421E+02  0.23380505608E+03  0.41800000000E+01 0. -1.
         -5    1    4    4    0  501 -0.14425892700E+03 -0.30879674977E+03 -0.64217800020E+02  0.34685367077E+03  0.41800000000E+01 0. -1.
</event>
<event>
11    1  0.8041700E-009  0.2198031E+03  0.7561462E-02  0.1041341E+00
         22   -1    0    0    0    0  0.00000000000E+00  0.00000000000E+00  0.15288717303E+03  0.15288717303E+03  0.00000000000E+00 0.  1.
         22   -1    0    0    0    0 -0.00000000000E+00 -0.00000000000E+00 -0.51538694930E+03  0.51538694930E+03  0.00000000000E+00 0. -1.
         24    2    1    2    0    0 -0.16186820762E+03 -0.77222323722E+02 -0.18386888756E+03  0.26883687228E+03  0.79378159224E+02 0.  0.
         25    2    1    2    0    0  0.17170567026E+03  0.62453129056E+02 -0.21568101417E+03  0.30910914726E+03  0.12508770730E+03 0.  0.
        -24    2    1    2    0    0 -0.98374626362E+01  0.14769194666E+02  0.37050125468E+02  0.90328102795E+02  0.80445941944E+02 0.  0.
        -11    1    3    3    0    0  0.63114822979E+01  0.36122593508E+01 -0.17076122815E+02  0.18560096896E+02  0.00000000000E+00 0.  1.
         12    1    3    3    0    0 -0.16817968992E+03 -0.80834583073E+02 -0.16679276475E+03  0.25027677538E+03  0.00000000000E+00 0. -1.
         13    1    5    5    0    0  0.27214874253E+02  0.13663976834E+02 -0.84848333989E+01  0.31612434916E+02  0.00000000000E+00 0. -1.
        -14    1    5    5    0    0 -0.37052336889E+02  0.11052178323E+01  0.45534958867E+02  0.58715667879E+02  0.00000000000E+00 0.  1.
          5    1    4    4  501    0  0.63236952853E+02  0.70540041320E+02 -0.41049222757E+02  0.10333112176E+03  0.41800000000E+01 0. -1.
         -5    1    4    4    0  501  0.10846871741E+03 -0.80869122640E+01 -0.17463179142E+03  0.20577802550E+03  0.41800000000E+01 0. -1.
</event>
<event>
11    1  0.8041700E-009  0.1326367E+03  0.7561462E-02  0.1116071E+00
         22   -1    0    0    0    0  0.00000000000E+00  0.00000000000E+00  0.21142378175E+04  0.21142378175E+04  0.00000000000E+00 0.  1.
         22   -1    0    0    0    0 -0.00000000000E+00 -0.00000000000E+00 -0.19135470341E+03  0.19135470341E+03  0.00000000000E+00 0. -1.
        -24    2    1    2    0    0  0.63590089973E-01 -0.16671990255E+02 -0.13481186363E+03  0.15733716692E+03  0.79390088913E+02 0.  0.
         25    2    1    2    0    0 -0.33919641693E+02 -0.11975280314E+02  0.51550538548E+02  0.13999663770E+03  0.12509057164E+03 0.  0.
         24    2    1    2    0    0  0.33856051603E+02  0.28647270569E+02  0.20061444392E+04  0.20082587163E+04  0.80750618637E+02 0.  0.
        -11    1    5    5    0    0  0.26878516320E+02  0.51128659043E+02  0.17703782346E+04  0.17713203234E+04  0.00000000000E+00 0.  1.
         12    1    5    5    0    0  0.69775352835E+01 -0.22481388474E+02  0.23576620456E+03  0.23693839292E+03  0.00000000000E+00 0. -1.
         11    1    3    3    0    0 -0.12358606327E+02 -0.46034145277E+02 -0.95400836804E+02  0.10664519372E+03  0.00000000000E+00 0. -1.
        -12    1    3    3    0    0  0.12422196417E+02  0.29362155022E+02 -0.39411026823E+02  0.50691973197E+02  0.00000000000E+00 0.  1.
          5    1    4    4  501    0 -0.78066721173E+02 -0.41516865919E+01  0.53667607704E+02  0.94917511413E+02  0.41800000000E+01 0.  1.
         -5    1    4    4    0  501  0.44147079480E+02 -0.78235937218E+01 -0.21170691562E+01  0.45079126291E+02  0.41800000000E+01 0.  1.
</event>
<event>
11    1  0.8041700E-009  0.1369591E+03  0.7561462E-02  0.1111002E+00
         22   -1    0    0    0    0  0.00000000000E+00  0.00000000000E+00  0.77000232055E+03  0.77000232055E+03  0.00000000000E+00 0.  1.
         22   -1    0    0    0    0 -0.00000000000E+00 -0.00000000000E+00 -0.11928187999E+03  0.11928187999E+03  0.00000000000E+00 0. -1.
         24    2    1    2    0    0  0.59205792474E+02  0.51643590580E+01 -0.43510988780E+02  0.10863720209E+03  0.79855112970E+02 0.  0.
         25    2    1    2    0    0 -0.40561040524E+02 -0.24069661779E+02  0.70210351482E+02  0.15100032686E+03  0.12508820340E+03 0.  0.
        -24    2    1    2    0    0 -0.18644751950E+02  0.18905302721E+02  0.62402107786E+03  0.62964667158E+03  0.79671752667E+02 0.  0.
        -13    1    3    3    0    0  0.51002409363E+02 -0.24998293852E+02 -0.22117643446E+01  0.56842346520E+02  0.00000000000E+00 0.  1.
         14    1    3    3    0    0  0.82033831108E+01  0.30162652910E+02 -0.41299224435E+02  0.51794855575E+02  0.00000000000E+00 0. -1.
         13    1    5    5    0    0  0.80775373386E+01  0.54678801484E+01  0.72567519658E+01  0.12157498586E+02  0.00000000000E+00 0. -1.
        -14    1    5    5    0    0 -0.26722289289E+02  0.13437422573E+02  0.61676432590E+03  0.61748917300E+03  0.00000000000E+00 0.  1.
          5    1    4    4  501    0 -0.11263556137E+02 -0.19125913040E+02 -0.34966820019E+02  0.41627144374E+02  0.41800000000E+01 0.  1.
         -5    1    4    4    0  501 -0.29297484386E+02 -0.49437487396E+01  0.10517717150E+03  0.10937318249E+03  0.41800000000E+01 0.  1.
</event>
<event>
11    1  0.8041700E-009  0.1382974E+03  0.7561462E-02  0.1109475E+00
         22   -1    0    0    0    0  0.00000000000E+00  0.00000000000E+00  0.11036828921E+03  0.11036828921E+03  0.00000000000E+00 0. -1.
         22   -1    0    0    0    0 -0.00000000000E+00 -0.00000000000E+00 -0.76265723561E+03  0.76265723561E+03  0.00000000000E+00 0.  1.
        -24    2    1    2    0    0 -0.11105887854E+02 -0.50539673367E+02 -0.47206449916E+03  0.48180076893E+03  0.81298771495E+02 0.  0.
         25    2    1    2    0    0 -0.22386456096E+01  0.96869779107E+02 -0.23473143459E+03  0.28308236880E+03  0.12509202813E+03 0.  0.
         24    2    1    2    0    0  0.13344533463E+02 -0.46330105740E+02  0.54506987346E+02  0.10814238708E+03  0.79995055742E+02 0.  0.
        -11    1    5    5    0    0  0.11551046340E+02  0.21570024339E+02  0.76940548856E+01  0.25649387948E+02  0.00000000000E+00 0.  1.
         12    1    5    5    0    0  0.17934871230E+01 -0.67900130079E+02  0.46812932460E+02  0.82492999135E+02  0.00000000000E+00 0. -1.
         13    1    3    3    0    0  0.54670311438E+00 -0.57054333857E+02 -0.16764177462E+03  0.17708546099E+03  0.00000000000E+00 0. -1.
        -14    1    3    3    0    0 -0.11652590968E+02  0.65146604901E+01 -0.30442272455E+03  0.30471530795E+03  0.00000000000E+00 0.  1.
          5    1    4    4  501    0 -0.51656062893E+02  0.89032770241E+02 -0.12201070528E+03  0.15968490102E+03  0.41800000000E+01 0. -1.
         -5    1    4    4    0  501  0.49417417283E+02  0.78370088659E+01 -0.11272072931E+03  0.12339746778E+03  0.41800000000E+01 0. -1.
</event>
<event>
11    1  0.8041700E-009  0.1387514E+03  0.7561462E-02  0.1108961E+00
         22   -1    0    0    0    0  0.00000000000E+00  0.00000000000E+00  0.47138500142E+03  0.47138500142E+03  0.00000000000E+00 0.  1.
         22   -1    0    0    0    0 -0.00000000000E+00 -0.00000000000E+00 -0.34218282578E+03  0.34218282578E+03  0.00000000000E+00 0.  1.
         24    2    1    2    0    0 -0.22252576536E+02  0.14356998035E+01 -0.15243355298E+03  0.17183167102E+03  0.76111081281E+02 0.  0.
         25    2    1    2    0    0  0.71305041840E+02  0.32194156190E+02 -0.14309473903E+03  0.20553553623E+03  0.12509148506E+03 0.  0.
        -24    2    1    2    0    0 -0.49052465305E+02 -0.33629855994E+02  0.42473046764E+03  0.43620061996E+03  0.79610923493E+02 0.  0.
        -13    1    3    3    0    0 -0.88570676700E+01 -0.97380119893E+01 -0.15377391361E+03  0.15433629849E+03  0.00000000000E+00 0.  1.
         14    1    3    3    0    0 -0.13395508866E+02  0.11173711793E+02  0.13403606341E+01  0.17495372521E+02  0.00000000000E+00 0. -1.
         13    1    5    5    0    0 -0.27992552050E+02  0.24670618499E+02  0.15157710251E+03  0.15610201918E+03  0.00000000000E+00 0. -1.
        -14    1    5    5    0    0 -0.21059913255E+02 -0.58300474492E+02  0.27315336513E+03  0.28009860077E+03  0.00000000000E+00 0.  1.
          5    1    4    4  501    0  0.81449193367E+02  0.25181590644E+02 -0.28182288359E+02  0.89887693176E+02  0.41800000000E+01 0.  1.
         -5    1    4    4    0  501 -0.10144151526E+02  0.70125655458E+01 -0.11491245067E+03  0.11564784306E+03  0.41800000000E+01 0.  1.
</event>
<event>
11    1  0.8041700E-009  0.1914074E+03  0.7561462E-02  0.1060772E+00
         22   -1    0    0    0    0  0.00000000000E+00  0.00000000000E+00  0.57452493077E+03  0.57452493077E+03  0.00000000000E+00 0.  1.
         22   -1    0    0    0    0 -0.00000000000E+00 -0.00000000000E+00 -0.35240919503E+03  0.35240919503E+03  0.00000000000E+00 0. -1.
         24    2    1    2    0    0  0.12580706831E+03  0.53814406989E+02 -0.22068718104E+03  0.27195113976E+03  0.80815726838E+02 0.  0.
         25    2    1    2    0    0 -0.18036113525E+03 -0.44998077091E+02  0.24202450343E+02  0.22536194325E+03  0.12508909150E+03 0.  0.
        -24    2    1    2    0    0  0.54554066937E+02 -0.88163298977E+01  0.41860046644E+03  0.42962104279E+03  0.79334834784E+02 0.  0.
        -11    1    3    3    0    0  0.37974280020E+02 -0.14413151003E+02 -0.27548207182E+02  0.49078392230E+02  0.00000000000E+00 0.  1.
         12    1    3    3    0    0  0.87832788291E+02  0.68227557992E+02 -0.19313897386E+03  0.22287274753E+03  0.00000000000E+00 0. -1.
         13    1    5    5    0    0  0.15625575261E+02  0.24938338884E+02  0.28358835500E+03  0.28511126677E+03  0.00000000000E+00 0. -1.
        -14    1    5    5    0    0  0.38928491676E+02 -0.33754668782E+02  0.13501211144E+03  0.14450977602E+03  0.00000000000E+00 0.  1.
          5    1    4    4  501    0 -0.18700681260E+03 -0.42040122819E+02 -0.81961694943E+01  0.19189468330E+03  0.41800000000E+01 0. -1.
         -5    1    4    4    0  501  0.66456773502E+01 -0.29579542725E+01  0.32398619838E+02  0.33467259946E+02  0.41800000000E+01 0. -1.
</event>
<event>
11    1  0.8041700E-009  0.1395552E+03  0.7561462E-02  0.1108056E+00
         22   -1    0    0    0    0  0.00000000000E+00  0.00000000000E+00  0.19592243008E+04  0.19592243008E+04  0.00000000000E+00 0.  1.
         22   -1    0    0    0    0 -0.00000000000E+00 -0.00000000000E+00 -0.69338372013E+03  0.69338372013E+03  0.00000000000E+00 0. -1.
         24    2    1    2    0    0 -0.31663618223E+02 -0.51858697391E+02 -0.64530906528E+03  0.65337232339E+03  0.82338897352E+02 0.  0.
         25    2    1    2    0    0  0.44842499476E+02  0.95089877311E+02  0.11284746686E+03  0.19858425749E+03  0.12509285360E+03 0.  0.
        -24    2    1    2    0    0 -0.13178881253E+02 -0.43231179919E+02  0.17983021791E+04  0.18006514400E+04  0.80076609327E+02 0.  0.
        -13    1    3    3    0    0  0.93204779720E+01 -0.48585162032E+01 -0.40397546699E+03  0.40411218049E+03  0.00000000000E+00 0.  1.
         14    1    3    3    0    0 -0.40984096195E+02 -0.47000181188E+02 -0.24133359830E+03  0.24926014290E+03  0.00000000000E+00 0. -1.
         13    1    5    5    0    0  0.43616824268E+01 -0.13972345457E+02  0.52127857092E+02  0.54143921138E+02  0.00000000000E+00 0. -1.
        -14    1    5    5    0    0 -0.17540563680E+02 -0.29258834462E+02  0.17461743220E+04  0.17465075189E+04  0.00000000000E+00 0.  1.
          5    1    4    4  501    0  0.69747623536E+02  0.15554186672E+02  0.21242592577E+02  0.74668493030E+02  0.41800000000E+01 0. -1.
         -5    1    4    4    0  501 -0.24905124060E+02  0.79535690639E+02  0.91604874284E+02  0.12391576446E+03  0.41800000000E+01 0. -1.
</event>
<event>
11    1  0.8041700E-009  0.1302680E+03  0.7561462E-02  0.1118940E+00
         22   -1    0    0    0    0  0.00000000000E+00  0.00000000000E+00  0.20588295968E+03  0.20588295968E+03  0.00000000000E+00 0.  1.
         22   -1    0    0    0    0 -0.00000000000E+00 -0.00000000000E+00 -0.26230063528E+03  0.26230063528E+03  0.00000000000E+00 0. -1.
        -24    2    1    2    0    0 -0.23337593854E+02  0.37356675088E+02 -0.15838932533E+03  0.18312948179E+03  0.80678772060E+02 0.  0.
         25    2    1    2    0    0  0.30279436184E+01 -0.48500818489E+01 -0.30152462540E+02  0.12879992968E+03  0.12509020406E+03 0.  0.
         24    2    1    2    0    0  0.20309650235E+02 -0.32506593239E+02  0.13212411226E+03  0.15625418349E+03  0.74090676333E+02 0.  0.
        -11    1    5    5    0    0  0.10150298104E+02 -0.21897554156E+02  0.13824860170E+03  0.14033961416E+03  0.00000000000E+00 0.  1.
         12    1    5    5    0    0  0.10159352131E+02 -0.10609039083E+02 -0.61244894405E+01  0.15914569328E+02  0.00000000000E+00 0. -1.
         13    1    3    3    0    0 -0.39024390797E+02  0.35876169400E+02 -0.15875235596E+03  0.16736879377E+03  0.00000000000E+00 0. -1.
        -14    1    3    3    0    0  0.15686796943E+02  0.14805056877E+01  0.36303062740E+00  0.15760688013E+02  0.00000000000E+00 0.  1.
          5    1    4    4  501    0  0.73654733458E+01 -0.32187237823E+02 -0.71500462176E+02  0.78867337775E+02  0.41800000000E+01 0.  1.
         -5    1    4    4    0  501 -0.43375297274E+01  0.27337155974E+02  0.41347999636E+02  0.49932591910E+02  0.41800000000E+01 0.  1.
</event>
<event>
11    1  0.8041700E-009  0.1404566E+03  0.7561462E-02  0.1107050E+00
         22   -1    0    0    0    0  0.00000000000E+00  0.00000000000E+00  0.19650392953E+04  0.19650392953E+04  0.00000000000E+00 0. -1.
         22   -1    0    0    0    0 -0.00000000000E+00 -0.00000000000E+00 -0.35125875482E+03  0.35125875482E+03  0.00000000000E+00 0.  1.
        -24    2    1    2    0    0  0.49808865489E+01 -0.50972448746E+02 -0.31042809759E+03  0.32475031271E+03  0.80462177859E+02 0.  0.
         25    2    1    2    0    0 -0.62348660972E+02  0.76374324430E+02  0.16485052207E+03  0.22922368668E+03  0.12508961169E+03 0.  0.
         24    2    1    2    0    0  0.57367774423E+02 -0.25401875683E+02  0.17593581160E+04  0.17623240507E+04  0.80676902716E+02 0.  0.
        -13    1    5    5    0    0  0.60756020249E+02  0.12686226465E+02  0.12452668078E+04  0.12468125990E+04  0.00000000000E+00 0.  1.
         14    1    5    5    0    0 -0.33882458254E+01 -0.38088102149E+02  0.51409130821E+03  0.51551145178E+03  0.00000000000E+00 0. -1.
         13    1    3    3    0    0 -0.20451564423E+02  0.12633700541E+02 -0.50229812806E+02  0.55685823791E+02  0.00000000000E+00 0. -1.
        -14    1    3    3    0    0  0.25432450972E+02 -0.63606149287E+02 -0.26019828479E+03  0.26906448891E+03  0.00000000000E+00 0.  1.
          5    1    4    4  501    0 -0.11202964046E+02  0.53494634363E+02  0.16412143929E+03  0.17303323826E+03  0.41800000000E+01 0. -1.
         -5    1    4    4    0  501 -0.51145696927E+02  0.22879690066E+02  0.72908277777E+00  0.56190448417E+02  0.41800000000E+01 0. -1.
</event>
<event>
11    1  0.8041700E-009  0.1365460E+03  0.7561462E-02  0.1111478E+00
         22   -1    0    0    0    0  0.00000000000E+00  0.00000000000E+00  0.53551799339E+02  0.53551799339E+02  0.00000000000E+00 0. -1.
         22   -1    0    0    0    0 -0.00000000000E+00 -0.00000000000E+00 -0.28631912663E+04  0.28631912663E+04  0.00000000000E+00 0. -1.
         24    2    1    2    0    0 -0.52254566218E+02 -0.23627174025E+01 -0.14335511164E+04  0.14366792384E+04  0.79008283409E+02 0.  0.
         25    2    1    2    0    0  0.52928398763E+02  0.48398222072E+02 -0.13792699380E+04  0.13867841468E+04  0.12506360220E+03 0.  0.
        -24    2    1    2    0    0 -0.67383254486E+00 -0.46035504670E+02  0.31815873792E+01  0.93279680430E+02  0.81063274930E+02 0.  0.
        -13    1    3    3    0    0 -0.15832238651E+02 -0.38712854455E+02 -0.77049063937E+03  0.77162501919E+03  0.00000000000E+00 0.  1.
         14    1    3    3    0    0 -0.36422327567E+02  0.36350137053E+02 -0.66306047698E+03  0.66505421925E+03  0.00000000000E+00 0. -1.
         11    1    5    5    0    0 -0.34611782118E+02 -0.11735458548E+02  0.20632201788E+02  0.41968847963E+02  0.00000000000E+00 0. -1.
        -12    1    5    5    0    0  0.33937949573E+02 -0.34300046122E+02 -0.17450614409E+02  0.51310832467E+02  0.00000000000E+00 0.  1.
          5    1    4    4  501    0  0.92380466252E+01  0.49926147990E+02 -0.19023720146E+03  0.19694066867E+03  0.41800000000E+01 0.  1.
         -5    1    4    4    0  501  0.43690352138E+02 -0.15279259173E+01 -0.11890327365E+04  0.11898434781E+04  0.41800000000E+01 0.  1.
</event>
<event>
11    1  0.8041700E-009  0.2418607E+03  0.7561462E-02  0.1028327E+00
         22   -1    0    0    0    0  0.00000000000E+00  0.00000000000E+00  0.80657018819E+03  0.80657018819E+03  0.00000000000E+00 0.  1.
         22   -1    0    0    0    0 -0.00000000000E+00 -0.00000000000E+00 -0.46831768954E+03  0.46831768954E+03  0.00000000000E+00 0.  1.
        -24    2    1    2    0    0  0.12491973627E+03  0.76933387198E+01 -0.35215869763E+03  0.38222344353E+03  0.80092974079E+02 0.  0.
         25    2    1    2    0    0 -0.19564220231E+03 -0.18859449463E+03  0.20244813108E+03  0.36121630998E+03  0.12509285387E+03 0.  0.
         24    2    1    2    0    0  0.70722466040E+02  0.18090115591E+03  0.48796306520E+03  0.53144812423E+03  0.81254294255E+02 0.  0.
        -13    1    5    5    0    0  0.86290438961E+02  0.16658475387E+03  0.41407866714E+03  0.45459615337E+03  0.00000000000E+00 0.  1.
         14    1    5    5    0    0 -0.15567972922E+02  0.14316402037E+02  0.73884398054E+02  0.76851970853E+02  0.00000000000E+00 0. -1.
         13    1    3    3    0    0 -0.70689080455E+01 -0.10570962142E+02 -0.14852923551E+02  0.19553108182E+02  0.00000000000E+00 0. -1.
        -14    1    3    3    0    0  0.13198864431E+03  0.18264300862E+02 -0.33730577408E+03  0.36267033535E+03  0.00000000000E+00 0.  1.
          5    1    4    4  501    0 -0.47989906238E+02  0.12072793553E+02  0.27565421544E+02  0.56798840744E+02  0.41800000000E+01 0.  1.
         -5    1    4    4    0  501 -0.14765229607E+03 -0.20066728818E+03  0.17488270954E+03  0.30441746923E+03  0.41800000000E+01 0.  1.
</event>
<event>
11    1  0.8041700E-009  0.1581296E+03  0.7561462E-02  0.1088850E+00
         22   -1    0    0    0    0  0.00000000000E+00  0.00000000000E+00  0.11720055616E+03  0.11720055616E+03  0.00000000000E+00 0. -1.
         22   -1    0    0    0    0 -0.00000000000E+00 -0.00000000000E+00 -0.20204691680E+04  0.20204691680E+04  0.00000000000E+00 0.  1.
         24    2    1    2    0    0  0.20521266061E+02 -0.95884053435E+02 -0.16747539067E+04  0.16795857590E+04  0.81196058821E+02 0.  0.
         25    2    1    2    0    0 -0.98059308435E+01  0.86766862994E+02 -0.30750939456E+03  0.34327019461E+03  0.12509098278E+03 0.  0.
        -24    2    1    2    0    0 -0.10715335217E+02  0.91171904413E+01  0.78994689378E+02  0.11481377052E+03  0.82122465754E+02 0.  0.
        -11    1    3    3    0    0  0.23138055622E+01 -0.33423461570E+02 -0.11916238285E+04  0.11920947237E+04  0.00000000000E+00 0.  1.
         12    1    3    3    0    0  0.18207460499E+02 -0.62460591865E+02 -0.48313007811E+03  0.48749103533E+03  0.00000000000E+00 0. -1.
         13    1    5    5    0    0 -0.13908443778E+02 -0.17163903676E+02  0.84867618892E+02  0.87695821646E+02  0.00000000000E+00 0. -1.
        -14    1    5    5    0    0  0.31931085608E+01  0.26281094117E+02 -0.58729295139E+01  0.27117948878E+02  0.00000000000E+00 0.  1.
          5    1    4    4  501    0 -0.19171087480E+02  0.89650464185E+02 -0.10092533842E+03  0.13641162949E+03  0.41800000000E+01 0.  1.
         -5    1    4    4    0  501  0.93651566363E+01 -0.28836011910E+01 -0.20658405614E+03  0.20685856513E+03  0.41800000000E+01 0.  1.
</event>
<event>
11    1  0.8041700E-009  0.1315572E+03  0.7561462E-02  0.1117370E+00
         22   -1    0    0    0    0  0.00000000000E+00  0.00000000000E+00  0.31437910163E+03  0.31437910163E+03  0.00000000000E+00 0. -1.
         22   -1    0    0    0    0 -0.00000000000E+00 -0.00000000000E+00 -0.31080854789E+03  0.31080854789E+03  0.00000000000E+00 0. -1.
        -24    2    1    2    0    0 -0.47576270596E+02  0.16800910020E+02 -0.20014784870E+03  0.22342088247E+03  0.85509983526E+02 0.  0.
         25    2    1    2    0    0  0.58717021573E+01  0.30728923450E+01 -0.47464290374E+02  0.13396006717E+03  0.12509404934E+03 0.  0.
         24    2    1    2    0    0  0.41704568439E+02 -0.19873802365E+02  0.25118269280E+03  0.26780669989E+03  0.80581910452E+02 0.  0.
        -13    1    5    5    0    0  0.10375207602E+01  0.29161202236E+02  0.78240628119E+02  0.83504778628E+02  0.00000000000E+00 0.  1.
         14    1    5    5    0    0  0.40667047679E+02 -0.49035004601E+02  0.17294206468E+03  0.18430192126E+03  0.00000000000E+00 0. -1.
         13    1    3    3    0    0 -0.25226871597E+02  0.39552699313E+02 -0.17925977050E+03  0.18529672526E+03  0.00000000000E+00 0. -1.
        -14    1    3    3    0    0 -0.22349398999E+02 -0.22751789294E+02 -0.20888078197E+02  0.38124157203E+02  0.00000000000E+00 0.  1.
          5    1    4    4  501    0  0.10292486747E+02 -0.42115559778E+02  0.23590172541E+02  0.49534072106E+02  0.41800000000E+01 0.  1.
         -5    1    4    4    0  501 -0.44207845902E+01  0.45188452123E+02 -0.71054462914E+02  0.84425995059E+02  0.41800000000E+01 0.  1.
</event>
<event>
11    1  0.8041700E-009  0.1576161E+03  0.7561462E-02  0.1089341E+00
         22   -1    0    0    0    0  0.00000000000E+00  0.00000000000E+00  0.11629576825E+04  0.11629576825E+04  0.00000000000E+00 0.  1.
         22   -1    0    0    0    0 -0.00000000000E+00 -0.00000000000E+00 -0.13943065782E+03  0.13943065782E+03  0.00000000000E+00 0.  1.
        -24    2    1    2    0    0  0.73276296712E+02 -0.61771203205E+02 -0.81258511251E+02  0.14944447237E+03  0.80904928558E+02 0.  0.
         25    2    1    2    0    0 -0.11653030880E+03  0.81028471379E+01  0.34093882741E+03  0.38148627132E+03  0.12509005625E+03 0.  0.
         24    2    1    2    0    0  0.43254012092E+02  0.53668356067E+02  0.76384670850E+03  0.77145759661E+03  0.83269605969E+02 0.  0.
        -13    1    5    5    0    0  0.49817103760E+02  0.30980126638E+02  0.71281946773E+03  0.71522940771E+03  0.00000000000E+00 0.  1.
         14    1    5    5    0    0 -0.65630916673E+01  0.22688229428E+02  0.51027240761E+02  0.56228188896E+02  0.00000000000E+00 0. -1.
         13    1    3    3    0    0  0.14139337076E+02 -0.52219119497E+02 -0.78022845024E+01  0.54659243843E+02  0.00000000000E+00 0. -1.
        -14    1    3    3    0    0  0.59136959636E+02 -0.95520837074E+01 -0.73456226748E+02  0.94785228524E+02  0.00000000000E+00 0.  1.
          5    1    4    4  501    0 -0.35236637554E+02  0.63358175002E+02  0.13695435005E+03  0.15501562942E+03  0.41800000000E+01 0. -1.
         -5    1    4    4    0  501 -0.81293671250E+02 -0.55255327864E+02  0.20398447736E+03  0.22647064191E+03  0.41800000000E+01 0. -1.
</event>
<event>
11    1  0.8041700E-009  0.1398897E+03  0.7561462E-02  0.1107682E+00
         22   -1    0    0    0    0  0.00000000000E+00  0.00000000000E+00  0.14328214988E+04  0.14328214988E+04  0.00000000000E+00 0.  1.
         22   -1    0    0    0    0 -0.00000000000E+00 -0.00000000000E+00 -0.51971890636E+03  0.51971890636E+03  0.00000000000E+00 0. -1.
        -24    2    1    2    0    0  0.59337850624E+01  0.15934856227E-01 -0.35549973111E+03  0.36407614741E+03  0.78333723479E+02 0.  0.
         25    2    1    2    0    0  0.74242860071E+01  0.61178357938E+02 -0.12729458156E+03  0.18881112761E+03  0.12509124635E+03 0.  0.
         24    2    1    2    0    0 -0.13358071069E+02 -0.61194292795E+02  0.13958969051E+04  0.13996531301E+04  0.81102006732E+02 0.  0.
        -11    1    5    5    0    0 -0.16827006079E+02 -0.47282257550E+02  0.13610067858E+04  0.13619318012E+04  0.00000000000E+00 0.  1.
         12    1    5    5    0    0  0.34689350094E+01 -0.13912035245E+02  0.34890119254E+02  0.37721328931E+02  0.00000000000E+00 0. -1.
         11    1    3    3    0    0  0.19080080122E+02 -0.16322344589E+02 -0.33047048111E+03  0.33142300354E+03  0.00000000000E+00 0. -1.
        -12    1    3    3    0    0 -0.13146295059E+02  0.16338279445E+02 -0.25029250000E+02  0.32653143869E+02  0.00000000000E+00 0.  1.
          5    1    4    4  501    0 -0.21637714913E+02 -0.34135027335E+01 -0.11457869459E+03  0.11672871267E+03  0.41800000000E+01 0. -1.
         -5    1    4    4    0  501  0.29062000920E+02  0.64591860672E+02 -0.12715886971E+02  0.72082414943E+02  0.41800000000E+01 0. -1.
</event>
<event>
11    1  0.8041700E-009  0.1445982E+03  0.7561462E-02  0.1102530E+00
         22   -1    0    0    0    0  0.00000000000E+00  0.00000000000E+00  0.63921820081E+03  0.63921820081E+03  0.00000000000E+00 0. -1.
         22   -1    0    0    0    0 -0.00000000000E+00 -0.00000000000E+00 -0.15062475318E+04  0.15062475318E+04  0.00000000000E+00 0. -1.
         24    2    1    2    0    0  0.34104679563E+02  0.49023209343E+02 -0.14554540171E+04  0.14588477303E+04  0.79522954549E+02 0.  0.
         25    2    1    2    0    0  0.11747042617E+01 -0.10856148373E+03  0.11600632504E+03  0.20221729448E+03  0.12508953218E+03 0.  0.
        -24    2    1    2    0    0 -0.35279383825E+02  0.59538274382E+02  0.47241836103E+03  0.48440070780E+03  0.81703713745E+02 0.  0.
        -13    1    3    3    0    0  0.14721839271E+02 -0.21427648606E+02 -0.32821778873E+03  0.32924579498E+03  0.00000000000E+00 0.  1.
         14    1    3    3    0    0  0.19382840292E+02  0.70450857949E+02 -0.11272362283E+04  0.11296019354E+04  0.00000000000E+00 0. -1.
         11    1    5    5    0    0 -0.12043560316E+01  0.51781743908E+02  0.40654723185E+03  0.40983344325E+03  0.00000000000E+00 0. -1.
        -12    1    5    5    0    0 -0.34075027793E+02  0.77565304741E+01  0.65871129180E+02  0.74567264557E+02  0.00000000000E+00 0.  1.
          5    1    4    4  501    0  0.27071808206E+02 -0.10416970917E+03  0.29447044588E+02  0.11166383454E+03  0.41800000000E+01 0. -1.
         -5    1    4    4    0  501 -0.25897103944E+02 -0.43917745538E+01  0.86559280449E+02  0.90553459947E+02  0.41800000000E+01 0. -1.
</event>
<event>
11    1  0.8041700E-009  0.2010970E+03  0.7561462E-02  0.1053751E+00
         22   -1    0    0    0    0  0.00000000000E+00  0.00000000000E+00  0.11570443931E+04  0.11570443931E+04  0.00000000000E+00 0. -1.
         22   -1    0    0    0    0 -0.00000000000E+00 -0.00000000000E+00 -0.13792606250E+04  0.13792606250E+04  0.00000000000E+00 0. -1.
        -24    2    1    2    0    0  0.14811975876E+03 -0.49838231683E+02 -0.13077133285E+04  0.13193584515E+04  0.78544647461E+02 0.  0.
         25    2    1    2    0    0 -0.19257301873E+03  0.62246733221E+02  0.15923825580E+03  0.28629396656E+03  0.12509352438E+03 0.  0.
         24    2    1    2    0    0  0.44453259968E+02 -0.12408501538E+02  0.92625884089E+03  0.93065260003E+03  0.77645079543E+02 0.  0.
        -13    1    5    5    0    0  0.61318477106E+02 -0.26201409301E+02  0.60712645881E+03  0.61077737881E+03  0.00000000000E+00 0.  1.
         14    1    5    5    0    0 -0.16865217138E+02  0.13792907762E+02  0.31913238209E+03  0.31987522122E+03  0.00000000000E+00 0. -1.
         11    1    3    3    0    0  0.81956485641E+02 -0.53777661774E+02 -0.98775692505E+03  0.99260900935E+03  0.00000000000E+00 0. -1.
        -12    1    3    3    0    0  0.66163273116E+02  0.39394300911E+01 -0.31995640348E+03  0.32674944215E+03  0.00000000000E+00 0.  1.
          5    1    4    4  501    0 -0.75006220212E+02  0.82442760115E+02  0.11158765447E+03  0.15777204694E+03  0.41800000000E+01 0.  1.
         -5    1    4    4    0  501 -0.11756679851E+03 -0.20196026894E+02  0.47650601323E+02  0.12852191961E+03  0.41800000000E+01 0.  1.
</event>
<event>
11    1  0.8041700E-009  0.1686996E+03  0.7561462E-02  0.1079169E+00
         22   -1    0    0    0    0  0.00000000000E+00  0.00000000000E+00  0.17510623390E+04  0.17510623390E+04  0.00000000000E+00 0. -1.
         22   -1    0    0    0    0 -0.00000000000E+00 -0.00000000000E+00 -0.45038227484E+03  0.45038227484E+03  0.00000000000E+00 0.  1.
        -24    2    1    2    0    0  0.11342373110E+03 -0.42702948531E+01 -0.42953073390E+03  0.45383455357E+03  0.92660522606E+02 0.  0.
         25    2    1    2    0    0 -0.88732410512E+02 -0.21740856208E+02  0.96881790011E+03  0.98112287963E+03  0.12509146993E+03 0.  0.
         24    2    1    2    0    0 -0.24691320584E+02  0.26011151061E+02  0.76139289790E+03  0.76648718060E+03  0.80605283694E+02 0.  0.
        -11    1    5    5    0    0  0.74090623924E+01  0.42357091059E+02  0.23779225208E+03  0.24164886203E+03  0.00000000000E+00 0.  1.
         12    1    5    5    0    0 -0.32100382976E+02 -0.16345939998E+02  0.52360064582E+03  0.52483831858E+03  0.00000000000E+00 0. -1.
         13    1    3    3    0    0  0.51332865505E+02  0.32336420398E+02 -0.10384704935E+03  0.12027018261E+03  0.00000000000E+00 0. -1.
        -14    1    3    3    0    0  0.62090865590E+02 -0.36606715251E+02 -0.32568368455E+03  0.33356437096E+03  0.00000000000E+00 0.  1.
          5    1    4    4  501    0 -0.53456872015E+02 -0.12098639507E+02  0.12559501584E+03  0.13709702640E+03  0.41800000000E+01 0. -1.
         -5    1    4    4    0  501 -0.35275538497E+02 -0.96422167007E+01  0.84322288428E+03  0.84402585323E+03  0.41800000000E+01 0. -1.
</event>
<event>
11    1  0.8041700E-009  0.1335152E+03  0.7561462E-02  0.1115024E+00
         22   -1    0    0    0    0  0.00000000000E+00  0.00000000000E+00  0.30408408602E+04  0.30408408602E+04  0.00000000000E+00 0.  1.
         22   -1    0    0    0    0 -0.00000000000E+00 -0.00000000000E+00 -0.15831171835E+03  0.15831171835E+03  0.00000000000E+00 0. -1.
        -24    2    1    2    0    0  0.49405345420E+02 -0.22614311445E+01 -0.10536417917E+03  0.14414157202E+03  0.85024586475E+02 0.  0.
         25    2    1    2    0    0 -0.28030860329E+02 -0.27349695566E+02  0.97615572492E+02  0.16343500943E+03  0.12509383413E+03 0.  0.
         24    2    1    2    0    0 -0.21374485091E+02  0.29611126711E+02  0.28902777486E+04  0.28915759971E+04  0.78565870117E+02 0.  0.
        -13    1    5    5    0    0 -0.23537304911E+02  0.34265142391E+01  0.26006994469E+04  0.26008082126E+04  0.00000000000E+00 0.  1.
         14    1    5    5    0    0  0.21628198198E+01  0.26184612472E+02  0.28957830171E+03  0.29076778456E+03  0.00000000000E+00 0. -1.
         11    1    3    3    0    0  0.91910244384E+01 -0.40223547451E+02 -0.58883962214E+02  0.71900832442E+02  0.00000000000E+00 0. -1.
        -12    1    3    3    0    0  0.40214320982E+02  0.37962116307E+02 -0.46480216959E+02  0.72240739580E+02  0.00000000000E+00 0.  1.
          5    1    4    4  501    0 -0.60687305926E+02  0.12512306234E+02  0.92592550488E+02  0.11149152306E+03  0.41800000000E+01 0. -1.
         -5    1    4    4    0  501  0.32656445597E+02 -0.39862001800E+02  0.50230220038E+01  0.51943486373E+02  0.41800000000E+01 0. -1.
</event>
<event>
11    1  0.8041700E-009  0.2109380E+03  0.7561462E-02  0.1047047E+00
         22   -1    0    0    0    0  0.00000000000E+00  0.00000000000E+00  0.15555888393E+04  0.15555888393E+04  0.00000000000E+00 0.  1.
         22   -1    0    0    0    0 -0.00000000000E+00 -0.00000000000E+00 -0.20459893289E+03  0.20459893289E+03  0.00000000000E+00 0. -1.
         24    2    1    2    0    0 -0.13764209115E+03  0.12159676474E+03 -0.10479560793E+03  0.22543044485E+03  0.78138643265E+02 0.  0.
         25    2    1    2    0    0  0.15098462615E+02 -0.14221917304E+03  0.22306172557E+03  0.29302117749E+03  0.12510243920E+03 0.  0.
        -24    2    1    2    0    0  0.12254362853E+03  0.20622408291E+02  0.12327237888E+04  0.12417361499E+04  0.82816072257E+02 0.  0.
        -13    1    3    3    0    0 -0.33832189084E+02  0.34665730750E+01  0.39413136835E+01  0.34236940586E+02  0.00000000000E+00 0.  1.
         14    1    3    3    0    0 -0.10380990206E+03  0.11813019167E+03 -0.10873692161E+03  0.19119350426E+03  0.00000000000E+00 0. -1.
         11    1    5    5    0    0  0.39654382047E+02  0.13902850332E+02  0.14858849376E+03  0.15441599574E+03  0.00000000000E+00 0. -1.
        -12    1    5    5    0    0  0.82889246485E+02  0.67195579591E+01  0.10841352950E+04  0.10873201541E+04  0.00000000000E+00 0.  1.
          5    1    4    4  501    0 -0.18576437802E+02 -0.11415621986E+03  0.73472278429E+02  0.13708528248E+03  0.41800000000E+01 0. -1.
         -5    1    4    4    0  501  0.33674900416E+02 -0.28062953177E+02  0.14958944714E+03  0.15593589502E+03  0.41800000000E+01 0. -1.
</event>
<event>
11    1  0.8041700E-009  0.1872436E+03  0.7561462E-02  0.1063930E+00
         22   -1    0    0    0    0  0.00000000000E+00  0.00000000000E+00  0.11932562541E+04  0.11932562541E+04  0.00000000000E+00 0. -1.
         22   -1    0    0    0    0 -0.00000000000E+00 -0.00000000000E+00 -0.23027294569E+03  0.23027294569E+03  0.00000000000E+00 0.  1.
        -24    2    1    2    0    0 -0.61831933059E+02 -0.52365804671E+02 -0.18408634916E+03  0.21654179876E+03  0.80232170726E+02 0.  0.
         25    2    1    2    0    0 -0.95593248025E+02  0.19587408502E+02  0.28319134947E+03  0.32460488858E+03  0.12509699292E+03 0.  0.
         24    2    1    2    0    0  0.15742518108E+03  0.32778396169E+02  0.86387830807E+03  0.88238251242E+03  0.80349587325E+02 0.  0.
        -13    1    5    5    0    0  0.12211579450E+03  0.58726078463E+02  0.62524728982E+03  0.63976182520E+03  0.00000000000E+00 0.  1.
         14    1    5    5    0    0  0.35309386584E+02 -0.25947682293E+02  0.23863101825E+03  0.24262068723E+03  0.00000000000E+00 0. -1.
         11    1    3    3    0    0 -0.10664880086E+02  0.21595667601E+02 -0.37851280813E+02  0.44864596126E+02  0.00000000000E+00 0. -1.
        -12    1    3    3    0    0 -0.51167052973E+02 -0.73961472272E+02 -0.14623506835E+03  0.17167720263E+03  0.00000000000E+00 0.  1.
          5    1    4    4  501    0  0.16349110980E+02 -0.21963156483E+02  0.11504860532E+03  0.11833565675E+03  0.41800000000E+01 0.  1.
         -5    1    4    4    0  501 -0.11194235900E+03  0.41550564985E+02  0.16814274415E+03  0.20626923183E+03  0.41800000000E+01 0.  1.
</event>
<event>
11    1  0.8041700E-009  0.2261832E+03  0.7561462E-02  0.1037412E+00
         22   -1    0    0    0    0  0.00000000000E+00  0.00000000000E+00  0.37584871641E+04  0.37584871641E+04  0.00000000000E+00 0.  1.
         22   -1    0    0    0    0 -0.00000000000E+00 -0.00000000000E+00 -0.71134741796E+03  0.71134741796E+03  0.00000000000E+00 0. -1.
        -24    2    1    2    0    0 -0.51712589757E+02  0.24533515401E+02 -0.67281933622E+03  0.68030418105E+03  0.82775807170E+02 0.  0.
         25    2    1    2    0    0  0.22062150342E+03 -0.95601542277E+02  0.54906968106E+03  0.61232229043E+03  0.12509024761E+03 0.  0.
         24    2    1    2    0    0 -0.16890891367E+03  0.71068026875E+02  0.31708894013E+04  0.31772081106E+04  0.80813965327E+02 0.  0.
        -13    1    5    5    0    0 -0.10631669415E+03  0.43668454381E+02  0.25462749168E+04  0.25488676163E+04  0.00000000000E+00 0.  1.
         14    1    5    5    0    0 -0.62592219514E+02  0.27399572494E+02  0.62461448446E+03  0.62834049425E+03  0.00000000000E+00 0. -1.
         13    1    3    3    0    0 -0.13997122152E+02  0.12434681820E+02 -0.56709367962E+03  0.56740266320E+03  0.00000000000E+00 0. -1.
        -14    1    3    3    0    0 -0.37715467605E+02  0.12098833581E+02 -0.10572565660E+03  0.11290151785E+03  0.00000000000E+00 0.  1.
          5    1    4    4  501    0  0.17950665561E+03 -0.11062902520E+03  0.35148352226E+03  0.40990189002E+03  0.41800000000E+01 0. -1.
         -5    1    4    4    0  501  0.41114847818E+02  0.15027482924E+02  0.19758615880E+03  0.20242040041E+03  0.41800000000E+01 0. -1.
</event>
<event>
11    1  0.8041700E-009  0.1396571E+03  0.7561462E-02  0.1107942E+00
         22   -1    0    0    0    0  0.00000000000E+00  0.00000000000E+00  0.27411052198E+03  0.27411052198E+03  0.00000000000E+00 0.  1.
         22   -1    0    0    0    0 -0.00000000000E+00 -0.00000000000E+00 -0.86908365800E+03  0.86908365800E+03  0.00000000000E+00 0. -1.
         24    2    1    2    0    0  0.50768444501E+02  0.38340781597E+02 -0.77571530712E+03  0.78248786299E+03  0.80657098434E+02 0.  0.
         25    2    1    2    0    0 -0.51715622059E+02  0.81911263696E+01 -0.22571596561E+02  0.13745658032E+03  0.12507291628E+03 0.  0.
        -24    2    1    2    0    0  0.94717755764E+00 -0.46531907967E+02  0.20331376767E+03  0.22324973667E+03  0.79610559585E+02 0.  0.
        -11    1    3    3    0    0 -0.91017020026E+01  0.27427566702E+02 -0.10156224186E+03  0.10559356688E+03  0.00000000000E+00 0.  1.
         12    1    3    3    0    0  0.59870146504E+02  0.10913214895E+02 -0.67415306526E+03  0.67689429611E+03  0.00000000000E+00 0. -1.
         11    1    5    5    0    0 -0.17861056477E+02 -0.32978681316E+02  0.29020646871E+02  0.47421605884E+02  0.00000000000E+00 0. -1.
        -12    1    5    5    0    0  0.18808234034E+02 -0.13553226651E+02  0.17429312080E+03  0.17582813079E+03  0.00000000000E+00 0.  1.
          5    1    4    4  501    0 -0.76769684362E+02 -0.29173432377E+02  0.84289436635E+01  0.82663130142E+02  0.41800000000E+01 0. -1.
         -5    1    4    4    0  501  0.25054062303E+02  0.37364558747E+02 -0.31000540224E+02  0.54793450178E+02  0.41800000000E+01 0. -1.
</event>
<event>
11    1  0.8041700E-009  0.1405165E+03  0.7561462E-02  0.1106983E+00
         22   -1    0    0    0    0  0.00000000000E+00  0.00000000000E+00  0.32184228954E+03  0.32184228954E+03  0.00000000000E+00 0.  1.
         22   -1    0    0    0    0 -0.00000000000E+00 -0.00000000000E+00 -0.13499808263E+03  0.13499808263E+03  0.00000000000E+00 0.  1.
         24    2    1    2    0    0 -0.14628323587E+02 -0.23845500883E+02 -0.33798278583E+02  0.90946532524E+02  0.79663996759E+02 0.  0.
         25    2    1    2    0    0  0.62546923738E+02 -0.19657566222E+02  0.22332717018E+02  0.14298585189E+03  0.12509063119E+03 0.  0.
        -24    2    1    2    0    0 -0.47918600150E+02  0.43503067105E+02  0.19830976847E+03  0.22290798776E+03  0.78565244538E+02 0.  0.
        -11    1    3    3    0    0 -0.28108441739E+02 -0.18405497174E+02 -0.55469540803E+02  0.64851497902E+02  0.00000000000E+00 0.  1.
         12    1    3    3    0    0  0.13480118151E+02 -0.54400037094E+01  0.21671262220E+02  0.26095034622E+02  0.00000000000E+00 0. -1.
         13    1    5    5    0    0 -0.74474226863E+00 -0.12353713230E+02  0.91667866805E+00  0.12410043167E+02  0.00000000000E+00 0. -1.
        -14    1    5    5    0    0 -0.47173857882E+02  0.55856780335E+02  0.19739308980E+03  0.21049794460E+03  0.00000000000E+00 0.  1.
          5    1    4    4  501    0  0.33702047233E+02 -0.48413579535E+02  0.62209218668E+02  0.85832173212E+02  0.41800000000E+01 0. -1.
         -5    1    4    4    0  501  0.28844876505E+02  0.28756013313E+02 -0.39876501651E+02  0.57153678676E+02  0.41800000000E+01 0. -1.
</event>
<event>
11    1  0.8041700E-009  0.1484517E+03  0.7561462E-02  0.1098471E+00
         22   -1    0    0    0    0  0.00000000000E+00  0.00000000000E+00  0.19232433223E+03  0.19232433223E+03  0.00000000000E+00 0. -1.
         22   -1    0    0    0    0 -0.00000000000E+00 -0.00000000000E+00 -0.31147810832E+03  0.31147810832E+03  0.00000000000E+00 0.  1.
        -24    2    1    2    0    0 -0.39597399731E+02 -0.21783162048E+02 -0.19640371222E+03  0.21719986332E+03  0.80987049827E+02 0.  0.
         25    2    1    2    0    0  0.13021334566E+02  0.93683500761E+02  0.12919670441E+02  0.15735291833E+03  0.12508744763E+03 0.  0.
         24    2    1    2    0    0  0.26576065165E+02 -0.71900338713E+02  0.64330265689E+02  0.12924965890E+03  0.81799421118E+02 0.  0.
        -13    1    5    5    0    0 -0.25824260387E+02 -0.18160795447E+02  0.38682607396E+02  0.49930461952E+02  0.00000000000E+00 0.  1.
         14    1    5    5    0    0  0.52400325552E+02 -0.53739543266E+02  0.25647658294E+02  0.79319196947E+02  0.00000000000E+00 0. -1.
         13    1    3    3    0    0  0.66979356059E+01  0.18848296734E+02 -0.10558353914E+03  0.10746164138E+03  0.00000000000E+00 0. -1.
        -14    1    3    3    0    0 -0.46295335337E+02 -0.40631458782E+02 -0.90820173079E+02  0.10973822194E+03  0.00000000000E+00 0.  1.
          5    1    4    4  501    0 -0.26109203818E+02 -0.19534579849E+02  0.17812838102E+02  0.37390639673E+02  0.41800000000E+01 0.  1.
         -5    1    4    4    0  501  0.39130538384E+02  0.11321808061E+03 -0.48931676609E+01  0.11996227866E+03  0.41800000000E+01 0.  1.
</event>
<event>
11    1  0.8041700E-009  0.1289726E+03  0.7561462E-02  0.1120538E+00
         22   -1    0    0    0    0  0.00000000000E+00  0.00000000000E+00  0.52073082087E+03  0.52073082087E+03  0.00000000000E+00 0.  1.
         22   -1    0    0    0    0 -0.00000000000E+00 -0.00000000000E+00 -0.41875400862E+03  0.41875400862E+03  0.00000000000E+00 0. -1.
         24    2    1    2    0    0 -0.31072455306E+02 -0.29278046433E+00 -0.37857587310E+03  0.38846288178E+03  0.81351924524E+02 0.  0.
         25    2    1    2    0    0  0.39785926913E+02 -0.51715559400E+01  0.10906212584E+03  0.17074560419E+03  0.12509935686E+03 0.  0.
        -24    2    1    2    0    0 -0.87134716069E+01  0.54643364043E+01  0.37149055951E+03  0.38027634352E+03  0.80616859771E+02 0.  0.
        -11    1    3    3    0    0  0.17351133003E+02 -0.18656467990E+02 -0.53140000880E+02  0.58932039740E+02  0.00000000000E+00 0.  1.
         12    1    3    3    0    0 -0.48423588309E+02  0.18363687526E+02 -0.32543587222E+03  0.32953084204E+03  0.00000000000E+00 0. -1.
         13    1    5    5    0    0  0.35827848668E+02 -0.65915618614E+00  0.18543011136E+03  0.18886078319E+03  0.00000000000E+00 0. -1.
        -14    1    5    5    0    0 -0.44541320275E+02  0.61234925905E+01  0.18606044815E+03  0.19141556034E+03  0.00000000000E+00 0.  1.
          5    1    4    4  501    0  0.11992188994E+02 -0.45769767874E+02 -0.37032608800E+01  0.47643160992E+02  0.41800000000E+01 0. -1.
         -5    1    4    4    0  501  0.27793737918E+02  0.40598211935E+02  0.11276538672E+03  0.12310244320E+03  0.41800000000E+01 0. -1.
</event>
<event>
11    1  0.8041700E-009  0.1353229E+03  0.7561462E-02  0.1112896E+00
         22   -1    0    0    0    0  0.00000000000E+00  0.00000000000E+00  0.39194847614E+03  0.39194847614E+03  0.00000000000E+00 0.  1.
         22   -1    0    0    0    0 -0.00000000000E+00 -0.00000000000E+00 -0.14933790477E+04  0.14933790477E+04  0.00000000000E+00 0. -1.
         24    2    1    2    0    0  0.33450957284E+02  0.38179192096E+02 -0.13914245071E+04  0.13946652963E+04  0.80327532544E+02 0.  0.
         25    2    1    2    0    0 -0.35595381342E+02 -0.82283604121E+02 -0.30544465874E+02  0.15689880463E+03  0.12508656130E+03 0.  0.
        -24    2    1    2    0    0  0.21444240575E+01  0.44104412025E+02  0.32053840134E+03  0.33376342299E+03  0.81874037872E+02 0.  0.
        -13    1    3    3    0    0  0.21447688635E+01  0.57853425114E+02 -0.88727242582E+03  0.88915914012E+03  0.00000000000E+00 0.  1.
         14    1    3    3    0    0  0.31306188421E+02 -0.19674233018E+02 -0.50415208125E+03  0.50550615615E+03  0.00000000000E+00 0. -1.
         13    1    5    5    0    0 -0.12162201874E+02 -0.21781761748E+02  0.10517226505E+03  0.10809056220E+03  0.00000000000E+00 0. -1.
        -14    1    5    5    0    0  0.14306625932E+02  0.65886173773E+02  0.21536613629E+03  0.22567286080E+03  0.00000000000E+00 0.  1.
          5    1    4    4  501    0  0.29579293016E+02 -0.62823396737E+02 -0.50418161915E+02  0.85913777730E+02  0.41800000000E+01 0.  1.
         -5    1    4    4    0  501 -0.65174674358E+02 -0.19460207383E+02  0.19873696041E+02  0.70985026896E+02  0.41800000000E+01 0.  1.
</event>
<event>
11    1  0.8041700E-009  0.1583784E+03  0.7561462E-02  0.1088612E+00
         22   -1    0    0    0    0  0.00000000000E+00  0.00000000000E+00  0.12757456924E+03  0.12757456924E+03  0.00000000000E+00 0. -1.
         22   -1    0    0    0    0 -0.00000000000E+00 -0.00000000000E+00 -0.35326910858E+04  0.35326910858E+04  0.00000000000E+00 0.  1.
        -24    2    1    2    0    0  0.86676345243E+02  0.83152733372E+02 -0.19920614061E+04  0.19972797035E+04  0.79939993930E+02 0.  0.
         25    2    1    2    0    0 -0.23631113884E+02 -0.68289919580E+02 -0.15120179047E+04  0.15189053871E+04  0.12511390059E+03 0.  0.
         24    2    1    2    0    0 -0.63045231359E+02 -0.14862813792E+02  0.98962794184E+02  0.14408056447E+03  0.82279827387E+02 0.  0.
        -11    1    5    5    0    0 -0.20464445062E+01 -0.14835632763E+02 -0.10829364977E+02  0.18481317063E+02  0.00000000000E+00 0.  1.
         12    1    5    5    0    0 -0.60998786853E+02 -0.27181029094E-01  0.10979215916E+03  0.12559924741E+03  0.00000000000E+00 0. -1.
         13    1    3    3    0    0  0.63190011741E+02  0.20571916913E+02 -0.61134374190E+03  0.61494499925E+03  0.00000000000E+00 0. -1.
        -14    1    3    3    0    0  0.23486333502E+02  0.62580816459E+02 -0.13807176642E+04  0.13823347043E+04  0.00000000000E+00 0.  1.
          5    1    4    4  501    0 -0.45198213345E+02 -0.28558119041E+02 -0.23339941286E+03  0.23948111194E+03  0.41800000000E+01 0. -1.
         -5    1    4    4    0  501  0.21567099462E+02 -0.39731800539E+02 -0.12786184918E+04  0.12794242751E+04  0.41800000000E+01 0. -1.
</event>
<event>
11    1  0.8041700E-009  0.1769182E+03  0.7561462E-02  0.1072163E+00
         22   -1    0    0    0    0  0.00000000000E+00  0.00000000000E+00  0.98863673632E+03  0.98863673632E+03  0.00000000000E+00 0. -1.
         22   -1    0    0    0    0 -0.00000000000E+00 -0.00000000000E+00 -0.11778954354E+03  0.11778954354E+03  0.00000000000E+00 0. -1.
        -24    2    1    2    0    0  0.77427826939E+02  0.28065947384E+02 -0.49997318540E+02  0.12508858398E+03  0.79778795394E+02 0.  0.
         25    2    1    2    0    0 -0.15087316668E+03  0.53075282883E+02  0.53895331860E+03  0.57593118833E+03  0.12508539473E+03 0.  0.
         24    2    1    2    0    0  0.73445339744E+02 -0.81141230267E+02  0.38189119271E+03  0.40540650755E+03  0.80842044208E+02 0.  0.
        -11    1    5    5    0    0 -0.31503767300E+01  0.10167624778E+02  0.90229967368E+01  0.13954208587E+02  0.00000000000E+00 0.  1.
         12    1    5    5    0    0  0.76595716474E+02 -0.91308855046E+02  0.37286819598E+03  0.39145229896E+03  0.00000000000E+00 0. -1.
         13    1    3    3    0    0  0.79496510805E+02  0.92856123295E+01 -0.63248320838E+02  0.10201111663E+03  0.00000000000E+00 0. -1.
        -14    1    3    3    0    0 -0.20686838657E+01  0.18780335055E+02  0.13251002298E+02  0.23077467357E+02  0.00000000000E+00 0.  1.
          5    1    4    4  501    0 -0.11797341045E+03  0.30532395577E+02  0.51496468523E+03  0.52920322390E+03  0.41800000000E+01 0.  1.
         -5    1    4    4    0  501 -0.32899756236E+02  0.22542887306E+02  0.23988633378E+02  0.46727964430E+02  0.41800000000E+01 0.  1.
</event>
<event>
11    1  0.8041700E-009  0.1737325E+03  0.7561462E-02  0.1074828E+00
         22   -1    0    0    0    0  0.00000000000E+00  0.00000000000E+00  0.81693430248E+03  0.81693430248E+03  0.00000000000E+00 0. -1.
         22   -1    0    0    0    0 -0.00000000000E+00 -0.00000000000E+00 -0.17832285201E+04  0.17832285201E+04  0.00000000000E+00 0.  1.
        -24    2    1    2    0    0 -0.10592427828E+03  0.56512905353E+02 -0.17320128342E+04  0.17381078079E+04  0.82076994025E+02 0.  0.
         25    2    1    2    0    0  0.11682635978E+03 -0.15944777548E+03  0.31161177741E+03  0.38964377594E+03  0.12509348851E+03 0.  0.
         24    2    1    2    0    0 -0.10902081495E+02  0.10293487013E+03  0.45410683912E+03  0.47241123877E+03  0.79024770212E+02 0.  0.
        -13    1    5    5    0    0 -0.25669920340E+02  0.11002776371E+03  0.37615614130E+03  0.39275755402E+03  0.00000000000E+00 0.  1.
         14    1    5    5    0    0  0.14767838845E+02 -0.70928935879E+01  0.77950697818E+02  0.79653684747E+02  0.00000000000E+00 0. -1.
         11    1    3    3    0    0 -0.49700265073E+02  0.70457002061E+02 -0.11459331527E+04  0.11491723525E+04  0.00000000000E+00 0. -1.
        -12    1    3    3    0    0 -0.56224013210E+02 -0.13944096708E+02 -0.58607968153E+03  0.58893545538E+03  0.00000000000E+00 0.  1.
          5    1    4    4  501    0 -0.19915721696E+02 -0.32368600471E+02  0.10198036613E+03  0.10891202754E+03  0.41800000000E+01 0. -1.
         -5    1    4    4    0  501  0.13674208147E+03 -0.12707917501E+03  0.20963141128E+03  0.28073174840E+03  0.41800000000E+01 0. -1.
</event>
<event>
11    1  0.8041700E-009  0.1797459E+03  0.7561462E-02  0.1069849E+00
         22   -1    0    0    0    0  0.00000000000E+00  0.00000000000E+00  0.13538353066E+03  0.13538353066E+03  0.00000000000E+00 0. -1.
         22   -1    0    0    0    0 -0.00000000000E+00 -0.00000000000E+00 -0.85221988283E+03  0.85221988283E+03  0.00000000000E+00 0. -1.
        -24    2    1    2    0    0 -0.11151245297E+02  0.13598721881E+03 -0.49309538868E+03  0.51822274451E+03  0.82431041711E+02 0.  0.
         25    2    1    2    0    0  0.97092345643E+02 -0.95463891938E+02 -0.27797882928E+03  0.33385585931E+03  0.12508887648E+03 0.  0.
         24    2    1    2    0    0 -0.85941100346E+02 -0.40523326874E+02  0.54237865785E+02  0.13552480968E+03  0.79982593124E+02 0.  0.
        -13    1    5    5    0    0  0.94294931088E+00  0.18495439678E+02  0.33769574267E+01  0.18824831572E+02  0.00000000000E+00 0.  1.
         14    1    5    5    0    0 -0.86884049657E+02 -0.59018766552E+02  0.50860908359E+02  0.11669997810E+03  0.00000000000E+00 0. -1.
         13    1    3    3    0    0 -0.37719822541E+02  0.10110883253E+03 -0.26826804645E+03  0.28916003489E+03  0.00000000000E+00 0. -1.
        -14    1    3    3    0    0  0.26568577244E+02  0.34878386278E+02 -0.22482734222E+03  0.22906270962E+03  0.00000000000E+00 0.  1.
          5    1    4    4  501    0 -0.28677265038E+02 -0.26775293182E+02 -0.82397374382E+02  0.91357000608E+02  0.41800000000E+01 0. -1.
         -5    1    4    4    0  501  0.12576961068E+03 -0.68688598756E+02 -0.19558145490E+03  0.24249885870E+03  0.41800000000E+01 0. -1.
</event>
<event>
11    1  0.8041700E-009  0.2208380E+03  0.7561462E-02  0.1040694E+00
         22   -1    0    0    0    0  0.00000000000E+00  0.00000000000E+00  0.16111580541E+03  0.16111580541E+03  0.00000000000E+00 0.  1.
         22   -1    0    0    0    0 -0.00000000000E+00 -0.00000000000E+00 -0.10757291700E+04  0.10757291700E+04  0.00000000000E+00 0.  1.
        -24    2    1    2    0    0 -0.48949217181E+02 -0.16091400750E+02 -0.73976067601E+03  0.74531196296E+03  0.74760319166E+02 0.  0.
         25    2    1    2    0    0  0.39472678258E+02 -0.17032341792E+03 -0.19269980577E+03  0.28870197086E+03  0.12508978302E+03 0.  0.
         24    2    1    2    0    0  0.94765389229E+01  0.18641481867E+03  0.17847117180E+02  0.20283104160E+03  0.77340949271E+02 0.  0.
        -11    1    5    5    0    0  0.64922239283E+01  0.34715492007E+02  0.35504021307E+02  0.50078437334E+02  0.00000000000E+00 0.  1.
         12    1    5    5    0    0  0.29843149947E+01  0.15169932666E+03 -0.17656904127E+02  0.15275260426E+03  0.00000000000E+00 0. -1.
         11    1    3    3    0    0 -0.49048791615E+02 -0.20265702992E+02 -0.25173052066E+03  0.25726394561E+03  0.00000000000E+00 0. -1.
        -12    1    3    3    0    0  0.99574434149E-01  0.41743022420E+01 -0.48803015535E+03  0.48804801735E+03  0.00000000000E+00 0.  1.
          5    1    4    4  501    0  0.47475631733E+02 -0.24160043282E+02 -0.96751624270E+01  0.54302158961E+02  0.41800000000E+01 0. -1.
         -5    1    4    4    0  501 -0.80029534747E+01 -0.14616337464E+03 -0.18302464334E+03  0.23439981190E+03  0.41800000000E+01 0. -1.
</event>
<event>
11    1  0.8041700E-009  0.1278787E+03  0.7561462E-02  0.1121903E+00
         22   -1    0    0    0    0  0.00000000000E+00  0.00000000000E+00  0.10429459821E+04  0.10429459821E+04  0.00000000000E+00 0. -1.
         22   -1    0    0    0    0 -0.00000000000E+00 -0.00000000000E+00 -0.41595336840E+03  0.41595336840E+03  0.00000000000E+00 0. -1.
        -24    2    1    2    0    0 -0.20056774076E+02 -0.18455275261E+02 -0.35031414973E+03  0.36069256518E+03  0.81463192302E+02 0.  0.
         25    2    1    2    0    0  0.16981240905E+02  0.71754530093E+01  0.93762304931E+01  0.12678877692E+03  0.12509048959E+03 0.  0.
         24    2    1    2    0    0  0.30755331714E+01  0.11279822251E+02  0.96793053294E+03  0.97141800840E+03  0.81404773513E+02 0.  0.
        -11    1    5    5    0    0  0.35456573976E+02 -0.18410851625E+01  0.23616683812E+03  0.23882071447E+03  0.00000000000E+00 0.  1.
         12    1    5    5    0    0 -0.32381040804E+02  0.13120907414E+02  0.73176369482E+03  0.73259729393E+03  0.00000000000E+00 0. -1.
         13    1    3    3    0    0  0.18965250575E+02 -0.24249102912E+02 -0.26401889867E+03  0.26580759691E+03  0.00000000000E+00 0. -1.
        -14    1    3    3    0    0 -0.39022024651E+02  0.57938276515E+01 -0.86295251064E+02  0.94884968267E+02  0.00000000000E+00 0.  1.
          5    1    4    4  501    0 -0.13694907043E+02  0.29320988801E+02  0.57086646012E+02  0.65754303404E+02  0.41800000000E+01 0.  1.
         -5    1    4    4    0  501  0.30676147948E+02 -0.22145535792E+02 -0.47710415519E+02  0.61034473516E+02  0.41800000000E+01 0.  1.
</event>
<event>
11    1  0.8041700E-009  0.1313496E+03  0.7561462E-02  0.1117622E+00
         22   -1    0    0    0    0  0.00000000000E+00  0.00000000000E+00  0.10089030892E+04  0.10089030892E+04  0.00000000000E+00 0. -1.
         22   -1    0    0    0    0 -0.00000000000E+00 -0.00000000000E+00 -0.39342394576E+02  0.39342394576E+02  0.00000000000E+00 0. -1.
        -24    2    1    2    0    0 -0.20184734827E+02  0.63976997247E+01  0.40932130075E+02  0.93456367761E+02  0.81303747274E+02 0.  0.
         25    2    1    2    0    0  0.49485396614E+02 -0.19476995898E+02  0.56014413610E+03  0.57640027421E+03  0.12509062736E+03 0.  0.
         24    2    1    2    0    0 -0.29300661787E+02  0.13079296174E+02  0.36848442843E+03  0.37838884178E+03  0.79798150508E+02 0.  0.
        -11    1    5    5    0    0 -0.29629676826E+02 -0.37621346602E+01  0.42366652349E+02  0.51836325461E+02  0.00000000000E+00 0.  1.
         12    1    5    5    0    0  0.32901503884E+00  0.16841430834E+02  0.32611777608E+03  0.32655251632E+03  0.00000000000E+00 0. -1.
         13    1    3    3    0    0 -0.20597415195E+02 -0.62400571346E+01 -0.21105318600E+02  0.30143428786E+02  0.00000000000E+00 0. -1.
        -14    1    3    3    0    0  0.41268036834E+00  0.12637756859E+02  0.62037448675E+02  0.63312938975E+02  0.00000000000E+00 0.  1.
          5    1    4    4  501    0  0.39293506076E+02  0.46327382701E+02  0.16963358471E+03  0.18023105023E+03  0.41800000000E+01 0. -1.
         -5    1    4    4    0  501  0.10191890538E+02 -0.65804378600E+02  0.39051055139E+03  0.39616922397E+03  0.41800000000E+01 0. -1.
</event>
<event>
11    1  0.8041700E-009  0.2167683E+03  0.7561462E-02  0.1043261E+00
         22   -1    0    0    0    0  0.00000000000E+00  0.00000000000E+00  0.10863914224E+04  0.10863914224E+04  0.00000000000E+00 0.  1.
         22   -1    0    0    0    0 -0.00000000000E+00 -0.00000000000E+00 -0.39978276849E+03  0.39978276849E+03  0.00000000000E+00 0. -1.
        -24    2    1    2    0    0 -0.22615384515E+02  0.17357397419E+03 -0.33662632940E+03  0.38804610384E+03  0.81382509940E+02 0.  0.
         25    2    1    2    0    0 -0.16420209077E+01 -0.21407723547E+03  0.41936848896E+03  0.48718431886E+03  0.12508745754E+03 0.  0.
         24    2    1    2    0    0  0.24257405422E+02  0.40503261273E+02  0.60386649438E+03  0.61094376823E+03  0.79803565099E+02 0.  0.
        -11    1    5    5    0    0  0.46827872745E+02  0.45890941895E+02  0.51248649432E+03  0.51666356082E+03  0.00000000000E+00 0.  1.
         12    1    5    5    0    0 -0.22570467322E+02 -0.53876806220E+01  0.91380000060E+02  0.94280207406E+02  0.00000000000E+00 0. -1.
         13    1    3    3    0    0 -0.33151787587E+02  0.13548117794E+03 -0.31126265639E+03  0.34108449373E+03  0.00000000000E+00 0. -1.
        -14    1    3    3    0    0  0.10536403073E+02  0.38092796249E+02 -0.25363673013E+02  0.46961610114E+02  0.00000000000E+00 0.  1.
          5    1    4    4  501    0  0.15977987938E+02 -0.22332428094E+03  0.40317575447E+03  0.46119105796E+03  0.41800000000E+01 0. -1.
         -5    1    4    4    0  501 -0.17620008845E+02  0.92470454746E+01  0.16192734498E+02  0.25993260901E+02  0.41800000000E+01 0. -1.
</event>
<event>
11    1  0.8041700E-009  0.1677675E+03  0.7561462E-02  0.1079991E+00
         22   -1    0    0    0    0  0.00000000000E+00  0.00000000000E+00  0.29048899100E+04  0.29048899100E+04  0.00000000000E+00 0. -1.
         22   -1    0    0    0    0 -0.00000000000E+00 -0.00000000000E+00 -0.37067207867E+03  0.37067207867E+03  0.00000000000E+00 0. -1.
        -24    2    1    2    0    0  0.50054110094E+02  0.88564592971E+02 -0.32873271959E+03  0.35323028556E+03  0.79732883059E+02 0.  0.
         25    2    1    2    0    0 -0.58595358359E+02 -0.19424656397E+03  0.48224288685E+03  0.53793166096E+03  0.12508847395E+03 0.  0.
         24    2    1    2    0    0  0.85412482653E+01  0.10568197100E+03  0.23807076640E+04  0.23844000421E+04  0.79705378312E+02 0.  0.
        -11    1    5    5    0    0 -0.55762812539E+01  0.59360682285E+02  0.58310051923E+03  0.58614076896E+03  0.00000000000E+00 0.  1.
         12    1    5    5    0    0  0.14117529519E+02  0.46321288717E+02  0.17976071448E+04  0.17982592732E+04  0.00000000000E+00 0. -1.
         11    1    3    3    0    0  0.20382778164E+02  0.83621811373E+02 -0.29818562143E+03  0.31035903371E+03  0.00000000000E+00 0. -1.
        -12    1    3    3    0    0  0.29671331930E+02  0.49427815974E+01 -0.30547098166E+02  0.42871251845E+02  0.00000000000E+00 0.  1.
          5    1    4    4  501    0  0.12746025808E+02 -0.29111071934E+02  0.11637540131E+02  0.34100152835E+02  0.41800000000E+01 0. -1.
         -5    1    4    4    0  501 -0.71341384167E+02 -0.16513549204E+03  0.47060534672E+03  0.50383150813E+03  0.41800000000E+01 0. -1.
</event>
<event>
11    1  0.8041700E-009  0.1480568E+03  0.7561462E-02  0.1098881E+00
         22   -1    0    0    0    0  0.00000000000E+00  0.00000000000E+00  0.18691519273E+04  0.18691519273E+04  0.00000000000E+00 0.  1.
         22   -1    0    0    0    0 -0.00000000000E+00 -0.00000000000E+00 -0.12558735664E+04  0.12558735664E+04  0.00000000000E+00 0. -1.
         24    2    1    2    0    0 -0.15532597490E+02 -0.19096981265E+00 -0.11329223190E+04  0.11359048989E+04  0.80781559861E+02 0.  0.
         25    2    1    2    0    0 -0.31054282928E+01 -0.76782221495E+02 -0.74643975092E+02  0.16472488204E+03  0.12512957493E+03 0.  0.
        -24    2    1    2    0    0  0.18638025782E+02  0.76973191307E+02  0.18208446550E+04  0.18243957127E+04  0.81683600095E+02 0.  0.
        -13    1    3    3    0    0 -0.14813690285E+02 -0.39601305535E+02 -0.65236401820E+03  0.65373275967E+03  0.00000000000E+00 0.  1.
         14    1    3    3    0    0 -0.71890720477E+00  0.39410335723E+02 -0.48055830083E+03  0.48217213927E+03  0.00000000000E+00 0. -1.
         13    1    5    5    0    0  0.80138969493E+01 -0.14301502552E+02  0.54484589151E+03  0.54509247015E+03  0.00000000000E+00 0. -1.
        -14    1    5    5    0    0  0.10624128833E+02  0.91274693860E+02  0.12759987635E+04  0.12793032425E+04  0.00000000000E+00 0.  1.
          5    1    4    4  501    0 -0.52550289378E+02 -0.20918327998E+02  0.32235184857E+01  0.56806450614E+02  0.41800000000E+01 0.  1.
         -5    1    4    4    0  501  0.49444861085E+02 -0.55863893496E+02 -0.77867493578E+02  0.10791843142E+03  0.41800000000E+01 0.  1.
</event>
<event>
11    1  0.8041700E-009  0.1343801E+03  0.7561462E-02  0.1114001E+00
         22   -1    0    0    0    0  0.00000000000E+00  0.00000000000E+00  0.40303680240E+03  0.40303680240E+03  0.00000000000E+00 0.  1.
         22   -1    0    0    0    0 -0.00000000000E+00 -0.00000000000E+00 -0.26086353054E+04  0.26086353054E+04  0.00000000000E+00 0.  1.
        -24    2    1    2    0    0 -0.44428179095E+02 -0.39349185799E+00 -0.25674708324E+04  0.25691359824E+04  0.81112284121E+02 0.  0.
         25    2    1    2    0    0  0.66808034323E+02  0.36075074764E+02  0.14760087362E+03  0.20784015156E+03  0.12508711460E+03 0.  0.
         24    2    1    2    0    0 -0.22379855228E+02 -0.35681582906E+02  0.21427145579E+03  0.23469597388E+03  0.85999477376E+02 0.  0.
        -11    1    5    5    0    0  0.25055643267E+01  0.17006009004E+02  0.13618292157E+03  0.13726350688E+03  0.00000000000E+00 0.  1.
         12    1    5    5    0    0 -0.24885419555E+02 -0.52687591910E+02  0.78088534223E+02  0.97432466995E+02  0.00000000000E+00 0. -1.
         13    1    3    3    0    0 -0.55443787549E+02  0.25637980495E+02 -0.14139063741E+04  0.14152252663E+04  0.00000000000E+00 0. -1.
        -14    1    3    3    0    0  0.11015608454E+02 -0.26031472353E+02 -0.11535644584E+04  0.11539107161E+04  0.00000000000E+00 0.  1.
          5    1    4    4  501    0 -0.15365265073E+02  0.51602056500E+02  0.94040617140E+02  0.10844341233E+03  0.41800000000E+01 0.  1.
         -5    1    4    4    0  501  0.82173299396E+02 -0.15526981736E+02  0.53560256476E+02  0.99396739229E+02  0.41800000000E+01 0.  1.
</event>
<event>
11    1  0.8041700E-009  0.1373565E+03  0.7561462E-02  0.1110547E+00
         22   -1    0    0    0    0  0.00000000000E+00  0.00000000000E+00  0.94367927046E+02  0.94367927046E+02  0.00000000000E+00 0. -1.
         22   -1    0    0    0    0 -0.00000000000E+00 -0.00000000000E+00 -0.68099374823E+03  0.68099374823E+03  0.00000000000E+00 0.  1.
         24    2    1    2    0    0  0.31384386516E+02 -0.75658195832E+01 -0.52294417598E+03  0.53035495813E+03  0.82240799365E+02 0.  0.
         25    2    1    2    0    0  0.38439864745E+02  0.73694552868E+01 -0.41657238026E+02  0.13753205427E+03  0.12509120032E+03 0.  0.
        -24    2    1    2    0    0 -0.69824251261E+02  0.19636429635E+00 -0.22024407172E+02  0.10747466287E+03  0.78678230945E+02 0.  0.
        -11    1    3    3    0    0  0.56881472670E+02  0.94857799836E+01 -0.33757766602E+03  0.34246775403E+03  0.00000000000E+00 0.  1.
         12    1    3    3    0    0 -0.25497086155E+02 -0.17051599567E+02 -0.18536650996E+03  0.18788720410E+03  0.00000000000E+00 0. -1.
         11    1    5    5    0    0 -0.32495179948E+02 -0.28763502001E+02  0.16586851287E+02  0.46458577279E+02  0.00000000000E+00 0. -1.
        -12    1    5    5    0    0 -0.37329071313E+02  0.28959866298E+02 -0.38611258459E+02  0.61016085591E+02  0.00000000000E+00 0.  1.
          5    1    4    4  501    0  0.84281588530E+02  0.43656522267E+01 -0.32310700544E+02  0.90464903991E+02  0.41800000000E+01 0. -1.
         -5    1    4    4    0  501 -0.45841723785E+02  0.30038030602E+01 -0.93465374824E+01  0.47067150278E+02  0.41800000000E+01 0. -1.
</event>
<event>
11    1  0.8041700E-009  0.1542952E+03  0.7561462E-02  0.1092569E+00
         22   -1    0    0    0    0  0.00000000000E+00  0.00000000000E+00  0.33687980898E+03  0.33687980898E+03  0.00000000000E+00 0.  1.
         22   -1    0    0    0    0 -0.00000000000E+00 -0.00000000000E+00 -0.84064175397E+03  0.84064175397E+03  0.00000000000E+00 0. -1.
        -24    2    1    2    0    0 -0.69789314424E+02 -0.47671918263E+02 -0.46525763352E+03  0.48044939461E+03  0.84992911642E+02 0.  0.
         25    2    1    2    0    0  0.94049205109E+02  0.46840839575E+02 -0.34357380363E+03  0.38043501458E+03  0.12509406279E+03 0.  0.
         24    2    1    2    0    0 -0.24259890685E+02  0.83107868804E+00  0.30506949217E+03  0.31663715376E+03  0.81255517365E+02 0.  0.
        -11    1    5    5    0    0 -0.45862553574E+02 -0.35356904872E+01  0.27776298096E+03  0.28154599716E+03  0.00000000000E+00 0.  1.
         12    1    5    5    0    0  0.21602662889E+02  0.43667691753E+01  0.27306511208E+02  0.35091156596E+02  0.00000000000E+00 0. -1.
         11    1    3    3    0    0 -0.59782460782E+02 -0.89270938133E+01 -0.39497409826E+03  0.39957248894E+03  0.00000000000E+00 0. -1.
        -12    1    3    3    0    0 -0.10006853642E+02 -0.38744824449E+02 -0.70283535260E+02  0.80876905666E+02  0.00000000000E+00 0.  1.
          5    1    4    4  501    0 -0.51249328492E+01 -0.33456615550E+02 -0.52672889579E+02  0.62749627548E+02  0.41800000000E+01 0.  1.
         -5    1    4    4    0  501  0.99174137958E+02  0.80297455125E+02 -0.29090091405E+03  0.31768538703E+03  0.41800000000E+01 0.  1.
</event>
<event>
11    1  0.8041700E-009  0.1423448E+03  0.7561462E-02  0.1104968E+00
         22   -1    0    0    0    0  0.00000000000E+00  0.00000000000E+00  0.23601570981E+03  0.23601570981E+03  0.00000000000E+00 0. -1.
         22   -1    0    0    0    0 -0.00000000000E+00 -0.00000000000E+00 -0.19610796512E+04  0.19610796512E+04  0.00000000000E+00 0. -1.
         24    2    1    2    0    0  0.61828160872E+02  0.31201102959E+02 -0.14162827659E+04  0.14200762266E+04  0.77222962547E+02 0.  0.
         25    2    1    2    0    0 -0.22414553637E+02 -0.80451131136E+02 -0.52046157952E+03  0.54175835501E+03  0.12508821988E+03 0.  0.
        -24    2    1    2    0    0 -0.39413607235E+02  0.49250028177E+02  0.21168040410E+03  0.23526077937E+03  0.80994093119E+02 0.  0.
        -11    1    3    3    0    0  0.14197077711E+02 -0.25022189207E+02 -0.50519006470E+03  0.50600856558E+03  0.00000000000E+00 0.  1.
         12    1    3    3    0    0  0.47631083161E+02  0.56223292166E+02 -0.91109270123E+03  0.91406766101E+03  0.00000000000E+00 0. -1.
         13    1    5    5    0    0 -0.39162510785E+02  0.42317151277E+02  0.21823103950E+03  0.22571936147E+03  0.00000000000E+00 0. -1.
        -14    1    5    5    0    0 -0.25109645000E+00  0.69328769006E+01 -0.65506353940E+01  0.95414179036E+01  0.00000000000E+00 0.  1.
          5    1    4    4  501    0 -0.21084967989E+02  0.28774387857E+02 -0.19909885066E+03  0.20231254535E+03  0.41800000000E+01 0. -1.
         -5    1    4    4    0  501 -0.13295856485E+01 -0.10922551899E+03 -0.32136272886E+03  0.33944580966E+03  0.41800000000E+01 0. -1.
</event>
<event>
11    1  0.8041700E-009  0.1398441E+03  0.7561462E-02  0.1107733E+00
         22   -1    0    0    0    0  0.00000000000E+00  0.00000000000E+00  0.89412837963E+03  0.89412837963E+03  0.00000000000E+00 0. -1.
         22   -1    0    0    0    0 -0.00000000000E+00 -0.00000000000E+00 -0.51755111340E+03  0.51755111340E+03  0.00000000000E+00 0.  1.
        -24    2    1    2    0    0  0.13370600026E+01 -0.11492792696E+02 -0.42525992741E+03  0.43320261841E+03  0.81759591029E+02 0.  0.
         25    2    1    2    0    0 -0.59764762164E+02 -0.11026235958E+02 -0.28469625896E+02  0.14195755746E+03  0.12509206148E+03 0.  0.
         24    2    1    2    0    0  0.58427702162E+02  0.22519028653E+02  0.83030681954E+03  0.83651931716E+03  0.80213779244E+02 0.  0.
        -11    1    5    5    0    0  0.14210604788E+02  0.47570661501E+02  0.34400058926E+03  0.34756483501E+03  0.00000000000E+00 0.  1.
         12    1    5    5    0    0  0.44217097374E+02 -0.25051632848E+02  0.48630623028E+03  0.48895448215E+03  0.00000000000E+00 0. -1.
         13    1    3    3    0    0  0.39695370841E+02  0.12685901288E+01 -0.15866432118E+03  0.16355946503E+03  0.00000000000E+00 0. -1.
        -14    1    3    3    0    0 -0.38358310839E+02 -0.12761382824E+02 -0.26659560623E+03  0.26964315338E+03  0.00000000000E+00 0.  1.
          5    1    4    4  501    0 -0.86913770604E+02  0.19763861041E+02 -0.41881281277E+02  0.98570420742E+02  0.41800000000E+01 0.  1.
         -5    1    4    4    0  501  0.27149008440E+02 -0.30790096999E+02  0.13411655381E+02  0.43387136718E+02  0.41800000000E+01 0.  1.
</event>
<event>
11    1  0.1155366E-008  0.1586097E+03  0.7561462E-02  0.1088392E+00
         22   -1    0    0    0    0  0.00000000000E+00  0.00000000000E+00  0.21379746626E+03  0.21379746626E+03  0.00000000000E+00 0. -1.
         22   -1    0    0    0    0 -0.00000000000E+00 -0.00000000000E+00 -0.13032105037E+04  0.13032105037E+04  0.00000000000E+00 0.  1.
         24    2    1    2    0    0 -0.28638123259E+02  0.73283646764E+02 -0.75862022454E+03  0.77076836353E+03  0.11130404375E+03 0.  0.
         25    2    1    2    0    0  0.64501448913E+02 -0.14368207697E+03 -0.50464574162E+03  0.54324910486E+03  0.12508912518E+03 0.  0.
        -24    2    1    2    0    0 -0.35863325655E+02  0.70398430206E+02  0.17385292868E+03  0.20299050161E+03  0.68834481420E+02 0.  0.
        -13    1    3    3    0    0 -0.14761080722E+02  0.79062931465E+02 -0.74812211381E+03  0.75243307597E+03  0.00000000000E+00 0.  1.
         14    1    3    3    0    0 -0.13877042537E+02 -0.57792847019E+01 -0.10498110729E+02  0.18335287566E+02  0.00000000000E+00 0. -1.
         13    1    5    5    0    0 -0.28790717773E+02  0.67632471443E+02  0.79278613765E+02  0.10811177190E+03  0.00000000000E+00 0. -1.
        -14    1    5    5    0    0 -0.70726078817E+01  0.27659587633E+01  0.94574314912E+02  0.94878729709E+02  0.00000000000E+00 0.  1.
          5    1    4    4  501    0  0.29971339462E+02  0.38976759600E+01 -0.22739775781E+02  0.38053158470E+02  0.41800000000E+01 0. -1.
         -5    1    4    4    0  501  0.34530109452E+02 -0.14757975293E+03 -0.48190596584E+03  0.50519594639E+03  0.41800000000E+01 0. -1.
</event>
<event>
11    1  0.8041700E-009  0.1780670E+03  0.7561462E-02  0.1071217E+00
         22   -1    0    0    0    0  0.00000000000E+00  0.00000000000E+00  0.71071124711E+02  0.71071124711E+02  0.00000000000E+00 0. -1.
         22   -1    0    0    0    0 -0.00000000000E+00 -0.00000000000E+00 -0.10886333902E+04  0.10886333902E+04  0.00000000000E+00 0.  1.
         24    2    1    2    0    0 -0.77611103853E+02 -0.86807661481E+02 -0.42476539743E+03  0.44775676578E+03  0.80631413949E+02 0.  0.
         25    2    1    2    0    0  0.66060644580E+02  0.12567330396E+03 -0.59648428177E+03  0.62578245948E+03  0.12510955240E+03 0.  0.
        -24    2    1    2    0    0  0.11550459272E+02 -0.38865642478E+02  0.36874136944E+01  0.86165289669E+02  0.75940166245E+02 0.  0.
        -13    1    3    3    0    0 -0.27182012014E+02 -0.99343880663E+01 -0.23626373243E+03  0.23802963073E+03  0.00000000000E+00 0.  1.
         14    1    3    3    0    0 -0.50429091839E+02 -0.76873273414E+02 -0.18850166500E+03  0.20972713505E+03  0.00000000000E+00 0. -1.
         13    1    5    5    0    0  0.16177453595E+00 -0.54674236957E+02 -0.17475391776E+02  0.57399369993E+02  0.00000000000E+00 0. -1.
        -14    1    5    5    0    0  0.11388684736E+02  0.15808594479E+02  0.21162805470E+02  0.28765919676E+02  0.00000000000E+00 0.  1.
          5    1    4    4  501    0  0.95467571999E+02  0.61560636470E+02 -0.29534776219E+03  0.31646728472E+03  0.41800000000E+01 0. -1.
         -5    1    4    4    0  501 -0.29406927419E+02  0.64112667488E+02 -0.30113651959E+03  0.30931517477E+03  0.41800000000E+01 0. -1.
</event>
<event>
11    1  0.8041700E-009  0.1335260E+03  0.7561462E-02  0.1115011E+00
         22   -1    0    0    0    0  0.00000000000E+00  0.00000000000E+00  0.12812187153E+03  0.12812187153E+03  0.00000000000E+00 0. -1.
         22   -1    0    0    0    0 -0.00000000000E+00 -0.00000000000E+00 -0.75911307216E+03  0.75911307216E+03  0.00000000000E+00 0. -1.
         24    2    1    2    0    0 -0.36400550867E+02  0.27933457000E+02 -0.63762125032E+03  0.64426974720E+03  0.80108490035E+02 0.  0.
         25    2    1    2    0    0  0.37552321263E-01 -0.58783663911E+02 -0.32083628371E+02  0.14190578068E+03  0.12510943541E+03 0.  0.
        -24    2    1    2    0    0  0.36362998546E+02  0.30850206911E+02  0.38713678058E+02  0.10105941580E+03  0.80251191418E+02 0.  0.
        -13    1    3    3    0    0 -0.28969507018E+02  0.34786897251E+02 -0.15333554463E+03  0.15987854704E+03  0.00000000000E+00 0.  1.
         14    1    3    3    0    0 -0.74310438489E+01 -0.68534402514E+01 -0.48428570569E+03  0.48439120016E+03  0.00000000000E+00 0. -1.
         11    1    5    5    0    0  0.17888826815E+02  0.21194791630E+02  0.63130853658E+02  0.68954579258E+02  0.00000000000E+00 0. -1.
        -12    1    5    5    0    0  0.18474171731E+02  0.96554152810E+01 -0.24417175599E+02  0.32104836546E+02  0.00000000000E+00 0.  1.
          5    1    4    4  501    0  0.18512232824E+02 -0.40691200254E+02  0.43131702418E+02  0.62259880306E+02  0.41800000000E+01 0.  1.
         -5    1    4    4    0  501 -0.18474680503E+02 -0.18092463657E+02 -0.75215330789E+02  0.79645900376E+02  0.41800000000E+01 0.  1.
</event>
<event>
11    1  0.8041700E-009  0.1684338E+03  0.7561462E-02  0.1079403E+00
         22   -1    0    0    0    0  0.00000000000E+00  0.00000000000E+00  0.14210775195E+03  0.14210775195E+03  0.00000000000E+00 0.  1.
         22   -1    0    0    0    0 -0.00000000000E+00 -0.00000000000E+00 -0.12359917470E+04  0.12359917470E+04  0.00000000000E+00 0. -1.
        -24    2    1    2    0    0  0.63541881465E+01 -0.20668610681E+02 -0.10584649571E+04  0.10617956491E+04  0.81205714129E+02 0.  0.
         25    2    1    2    0    0 -0.33898269796E+02 -0.95331265379E+02 -0.58017853379E+02  0.17103206325E+03  0.12509497390E+03 0.  0.
         24    2    1    2    0    0  0.27544081649E+02  0.11599987606E+03  0.22598815392E+02  0.14527178658E+03  0.79865748848E+02 0.  0.
        -11    1    5    5    0    0  0.33756750257E+02  0.51006328372E+02  0.45337383443E+02  0.76135681906E+02  0.00000000000E+00 0.  1.
         12    1    5    5    0    0 -0.62126686075E+01  0.64993547688E+02 -0.22738568052E+02  0.69136104673E+02  0.00000000000E+00 0. -1.
         13    1    3    3    0    0 -0.21881147362E+01 -0.47363551887E+01 -0.10108644148E+04  0.10108778788E+04  0.00000000000E+00 0. -1.
        -14    1    3    3    0    0  0.85423028827E+01 -0.15932255493E+02 -0.47600542328E+02  0.50917770312E+02  0.00000000000E+00 0.  1.
          5    1    4    4  501    0  0.90922560181E+00  0.30134819878E+02 -0.78391609519E+01  0.31430222791E+02  0.41800000000E+01 0. -1.
         -5    1    4    4    0  501 -0.34807495397E+02 -0.12546608526E+03 -0.50178692427E+02  0.13960184046E+03  0.41800000000E+01 0. -1.
</event>
<event>
11    1  0.8041700E-009  0.1560760E+03  0.7561462E-02  0.1090827E+00
         22   -1    0    0    0    0  0.00000000000E+00  0.00000000000E+00  0.11413642544E+04  0.11413642544E+04  0.00000000000E+00 0. -1.
         22   -1    0    0    0    0 -0.00000000000E+00 -0.00000000000E+00 -0.68122010149E+03  0.68122010149E+03  0.00000000000E+00 0. -1.
         24    2    1    2    0    0  0.85694594548E+02 -0.32026902109E+02 -0.52124229130E+03  0.53548034610E+03  0.81709172202E+02 0.  0.
         25    2    1    2    0    0 -0.11853785352E+03 -0.20382031112E+02 -0.10042231832E+03  0.20049785434E+03  0.12509235655E+03 0.  0.
        -24    2    1    2    0    0  0.32843258972E+02  0.52408933221E+02  0.10818087626E+04  0.10866061555E+04  0.81100939819E+02 0.  0.
        -13    1    3    3    0    0 -0.11529410941E+02  0.10189249260E+01 -0.15095348590E+02  0.19021962930E+02  0.00000000000E+00 0.  1.
         14    1    3    3    0    0  0.97224005489E+02 -0.33045827035E+02 -0.50614694271E+03  0.51645838317E+03  0.00000000000E+00 0. -1.
         13    1    5    5    0    0  0.62443710847E+01  0.69349884152E+02  0.80537086372E+03  0.80837530067E+03  0.00000000000E+00 0. -1.
        -14    1    5    5    0    0  0.26598887888E+02 -0.16940950931E+02  0.27643789883E+03  0.27823085480E+03  0.00000000000E+00 0.  1.
          5    1    4    4  501    0 -0.13182402100E+03 -0.23205146441E+02 -0.11758668114E+03  0.17821377981E+03  0.41800000000E+01 0. -1.
         -5    1    4    4    0  501  0.13286167478E+02  0.28231153293E+01  0.17164362821E+02  0.22284074525E+02  0.41800000000E+01 0. -1.
</event>
<event>
11    1  0.8041700E-009  0.1416548E+03  0.7561462E-02  0.1105725E+00
         22   -1    0    0    0    0  0.00000000000E+00  0.00000000000E+00  0.14740372866E+04  0.14740372866E+04  0.00000000000E+00 0.  1.
         22   -1    0    0    0    0 -0.00000000000E+00 -0.00000000000E+00 -0.18910058717E+03  0.18910058717E+03  0.00000000000E+00 0. -1.
        -24    2    1    2    0    0 -0.51724143096E+02 -0.44809868408E+02 -0.15844232340E+03  0.19045827249E+03  0.80542364191E+02 0.  0.
         25    2    1    2    0    0 -0.62400077060E+01  0.42776475391E+02  0.33740028109E+03  0.36242837187E+03  0.12508641218E+03 0.  0.
         24    2    1    2    0    0  0.57964150802E+02  0.20333930177E+01  0.11059787417E+04  0.11102512294E+04  0.78133461327E+02 0.  0.
        -11    1    5    5    0    0  0.61719544120E+02 -0.70207955784E+01  0.10880182850E+04  0.10897900634E+04  0.00000000000E+00 0.  1.
         12    1    5    5    0    0 -0.37553933177E+01  0.90541885961E+01  0.17960456702E+02  0.20461166024E+02  0.00000000000E+00 0. -1.
         13    1    3    3    0    0 -0.27143780727E+02  0.16032373701E+02 -0.91237471753E+02  0.96530296231E+02  0.00000000000E+00 0. -1.
        -14    1    3    3    0    0 -0.24580362369E+02 -0.60842242110E+02 -0.67204851650E+02  0.93927976260E+02  0.00000000000E+00 0.  1.
          5    1    4    4  501    0 -0.20583984122E+02  0.84219210813E+02  0.19688328629E+03  0.21516755493E+03  0.41800000000E+01 0.  1.
         -5    1    4    4    0  501  0.14343976416E+02 -0.41442735422E+02  0.14051699480E+03  0.14726081694E+03  0.41800000000E+01 0.  1.
</event>
<event>
11    1  0.8041700E-009  0.1436870E+03  0.7561462E-02  0.1103510E+00
         22   -1    0    0    0    0  0.00000000000E+00  0.00000000000E+00  0.20342703026E+02  0.20342703026E+02  0.00000000000E+00 0.  1.
         22   -1    0    0    0    0 -0.00000000000E+00 -0.00000000000E+00 -0.19302490225E+04  0.19302490225E+04  0.00000000000E+00 0.  1.
        -24    2    1    2    0    0  0.18285876677E+02  0.35460858812E+01 -0.93924750698E+03  0.94288028046E+03  0.80562993300E+02 0.  0.
         25    2    1    2    0    0 -0.29349704526E+02 -0.71614603495E+02 -0.73547735131E+03  0.75004307428E+03  0.12509045688E+03 0.  0.
         24    2    1    2    0    0  0.11063827849E+02  0.68068517614E+02 -0.23518146119E+03  0.25766837080E+03  0.79542053303E+02 0.  0.
        -13    1    5    5    0    0  0.11299550824E+02  0.85880951808E+02 -0.20612214625E+03  0.22358344507E+03  0.00000000000E+00 0.  1.
         14    1    5    5    0    0 -0.23572297525E+00 -0.17812434194E+02 -0.29059314937E+02  0.34084925727E+02  0.00000000000E+00 0. -1.
         13    1    3    3    0    0  0.22700622655E+02 -0.24845982517E+02 -0.18185337208E+03  0.18494131516E+03  0.00000000000E+00 0. -1.
        -14    1    3    3    0    0 -0.44147459780E+01  0.28392068398E+02 -0.75739413491E+03  0.75793896530E+03  0.00000000000E+00 0.  1.
          5    1    4    4  501    0  0.25089757990E+02  0.15516493242E+02 -0.62301310634E+02  0.69059273275E+02  0.41800000000E+01 0. -1.
         -5    1    4    4    0  501 -0.54439462515E+02 -0.87131096737E+02 -0.67317604068E+03  0.68098380101E+03  0.41800000000E+01 0. -1.
</event>
<event>
11    1  0.8041700E-009  0.1570267E+03  0.7561462E-02  0.1089908E+00
         22   -1    0    0    0    0  0.00000000000E+00  0.00000000000E+00  0.40200347612E+03  0.40200347612E+03  0.00000000000E+00 0. -1.
         22   -1    0    0    0    0 -0.00000000000E+00 -0.00000000000E+00 -0.33154703505E+03  0.33154703505E+03  0.00000000000E+00 0. -1.
         24    2    1    2    0    0 -0.52456315451E+02  0.80714935298E+02 -0.25449543861E+03  0.28383294000E+03  0.80787645991E+02 0.  0.
         25    2    1    2    0    0  0.90519106056E+02 -0.39308021900E+02  0.66579489362E+02  0.17268080928E+03  0.12508798640E+03 0.  0.
        -24    2    1    2    0    0 -0.38062790605E+02 -0.41406913398E+02  0.25837239031E+03  0.27703676189E+03  0.82642403500E+02 0.  0.
        -13    1    3    3    0    0  0.57642329371E+01  0.26530329230E+02 -0.14038653061E+02  0.30564170693E+02  0.00000000000E+00 0.  1.
         14    1    3    3    0    0 -0.58220548388E+02  0.54184606068E+02 -0.24045678555E+03  0.25326876931E+03  0.00000000000E+00 0. -1.
         11    1    5    5    0    0 -0.31163718967E+02 -0.27355126096E+02  0.25806956449E+03  0.26137976284E+03  0.00000000000E+00 0. -1.
        -12    1    5    5    0    0 -0.68990716376E+01 -0.14051787302E+02  0.30282582067E+00  0.15656999052E+02  0.00000000000E+00 0.  1.
          5    1    4    4  501    0  0.98087910680E+02 -0.67869868944E+02  0.75870328834E+02  0.14142608150E+03  0.41800000000E+01 0. -1.
         -5    1    4    4    0  501 -0.75688046241E+01  0.28561847044E+02 -0.92908394726E+01  0.31254727772E+02  0.41800000000E+01 0. -1.
</event>
<event>
11    1  0.8041700E-009  0.1307628E+03  0.7561462E-02  0.1118335E+00
         22   -1    0    0    0    0  0.00000000000E+00  0.00000000000E+00  0.70662238016E+03  0.70662238016E+03  0.00000000000E+00 0.  1.
         22   -1    0    0    0    0 -0.00000000000E+00 -0.00000000000E+00 -0.18226055051E+03  0.18226055051E+03  0.00000000000E+00 0. -1.
         24    2    1    2    0    0 -0.11292325216E+02 -0.36868062764E+02 -0.14887867340E+03  0.17486437123E+03  0.83222102053E+02 0.  0.
         25    2    1    2    0    0  0.11749084769E+02  0.26591127790E+02  0.23003146839E+03  0.26345565116E+03  0.12509706074E+03 0.  0.
        -24    2    1    2    0    0 -0.45675955224E+00  0.10276934974E+02  0.44320903466E+03  0.45056290828E+03  0.80416801067E+02 0.  0.
        -13    1    3    3    0    0 -0.32590360996E+02  0.10944452751E+02 -0.32733531951E+02  0.47469956708E+02  0.00000000000E+00 0.  1.
         14    1    3    3    0    0  0.21298035780E+02 -0.47812515515E+02 -0.11614514145E+03  0.12739441452E+03  0.00000000000E+00 0. -1.
         13    1    5    5    0    0 -0.17370582152E+02 -0.23665131357E+02  0.77176316909E+02  0.82570935917E+02  0.00000000000E+00 0. -1.
        -14    1    5    5    0    0  0.16913822600E+02  0.33942066330E+02  0.36603271775E+03  0.36799197237E+03  0.00000000000E+00 0.  1.
          5    1    4    4  501    0  0.34178314988E+02  0.25954342268E+02  0.23596530172E+03  0.23987263519E+03  0.41800000000E+01 0.  1.
         -5    1    4    4    0  501 -0.22429230220E+02  0.63678552258E+00 -0.59338333274E+01  0.23583015965E+02  0.41800000000E+01 0.  1.
</event>
<event>
11    1  0.8041700E-009  0.1395278E+03  0.7561462E-02  0.1108087E+00
         22   -1    0    0    0    0  0.00000000000E+00  0.00000000000E+00  0.12116538490E+04  0.12116538490E+04  0.00000000000E+00 0.  1.
         22   -1    0    0    0    0 -0.00000000000E+00 -0.00000000000E+00 -0.37668803160E+03  0.37668803160E+03  0.00000000000E+00 0. -1.
         24    2    1    2    0    0  0.11210152064E+02 -0.46982564794E+02 -0.29693154893E+03  0.31106002123E+03  0.79100968131E+02 0.  0.
         25    2    1    2    0    0 -0.12860096489E+02 -0.16259708988E+02 -0.13356408159E+02  0.12749753721E+03  0.12508984026E+03 0.  0.
        -24    2    1    2    0    0  0.16499444250E+01  0.63242273783E+02  0.11452537745E+04  0.11497843222E+04  0.79971695098E+02 0.  0.
        -13    1    3    3    0    0 -0.24521571655E+02  0.44348934429E+01 -0.44739294514E+02  0.51211133847E+02  0.00000000000E+00 0.  1.
         14    1    3    3    0    0  0.35731723718E+02 -0.51417458237E+02 -0.25219225441E+03  0.25984888739E+03  0.00000000000E+00 0. -1.
         11    1    5    5    0    0  0.35915678319E+02  0.27201810254E+02  0.33645693350E+03  0.33946007502E+03  0.00000000000E+00 0. -1.
        -12    1    5    5    0    0 -0.34265733894E+02  0.36040463529E+02  0.80879684101E+03  0.81032424717E+03  0.00000000000E+00 0.  1.
          5    1    4    4  501    0 -0.66197036214E+02 -0.20639572811E+02 -0.22554483002E+02  0.73035721896E+02  0.41800000000E+01 0. -1.
         -5    1    4    4    0  501  0.53336939726E+02  0.43798638223E+01  0.91980748431E+01  0.54461815313E+02  0.41800000000E+01 0. -1.
</event>
<event>
11    1  0.8041700E-009  0.1561669E+03  0.7561462E-02  0.1090739E+00
         22   -1    0    0    0    0  0.00000000000E+00  0.00000000000E+00  0.80138891469E+03  0.80138891469E+03  0.00000000000E+00 0. -1.
         22   -1    0    0    0    0 -0.00000000000E+00 -0.00000000000E+00 -0.22970999739E+03  0.22970999739E+03  0.00000000000E+00 0.  1.
         24    2    1    2    0    0 -0.22414993680E+02  0.50000246715E+02 -0.15243342719E+03  0.18052987989E+03  0.79703395135E+02 0.  0.
         25    2    1    2    0    0  0.99695581990E+02 -0.94784565109E+02  0.93269874935E+02  0.20801831021E+03  0.12509606292E+03 0.  0.
        -24    2    1    2    0    0 -0.77280588309E+02  0.44784318393E+02  0.63084246956E+03  0.64255072198E+03  0.83254335764E+02 0.  0.
        -11    1    3    3    0    0 -0.46826392164E+02  0.28530207472E+02 -0.12983021728E+03  0.14093462690E+03  0.00000000000E+00 0.  1.
         12    1    3    3    0    0  0.24411398484E+02  0.21470039243E+02 -0.22603209911E+02  0.39595252990E+02  0.00000000000E+00 0. -1.
         11    1    5    5    0    0 -0.79252835529E+02  0.34796859669E+02  0.62468524124E+03  0.63065322009E+03  0.00000000000E+00 0. -1.
        -12    1    5    5    0    0  0.19722472196E+01  0.99874587240E+01  0.61572283147E+01  0.11897501897E+02  0.00000000000E+00 0.  1.
          5    1    4    4  501    0 -0.27710575504E+02 -0.14553311206E+02  0.14391049937E+01  0.31610414186E+02  0.41800000000E+01 0. -1.
         -5    1    4    4    0  501  0.12740615749E+03 -0.80231253903E+02  0.91830769941E+02  0.17640789602E+03  0.41800000000E+01 0. -1.
</event>
<event>
11    1  0.8041700E-009  0.1564685E+03  0.7561462E-02  0.1090447E+00
         22   -1    0    0    0    0  0.00000000000E+00  0.00000000000E+00  0.20879003158E+03  0.20879003158E+03  0.00000000000E+00 0. -1.
         22   -1    0    0    0    0 -0.00000000000E+00 -0.00000000000E+00 -0.34315538072E+03  0.34315538072E+03  0.00000000000E+00 0. -1.
         24    2    1    2    0    0 -0.34866950551E+02  0.75570859287E+02 -0.17557853983E+03  0.21175364724E+03  0.84173181338E+02 0.  0.
         25    2    1    2    0    0 -0.35604867956E+02  0.90984047083E+01 -0.83585292783E+02  0.15487282460E+03  0.12509437653E+03 0.  0.
        -24    2    1    2    0    0  0.70471818507E+02 -0.84669263995E+02  0.12479848347E+03  0.18531894046E+03  0.81444992146E+02 0.  0.
        -13    1    3    3    0    0 -0.60482500436E+02  0.62958224262E+02 -0.11158631519E+03  0.14168054418E+03  0.00000000000E+00 0.  1.
         14    1    3    3    0    0  0.25615549885E+02  0.12612635025E+02 -0.63992224644E+02  0.70073103064E+02  0.00000000000E+00 0. -1.
         11    1    5    5    0    0  0.74205382616E+02 -0.39353331958E+02  0.49900613427E+02  0.97699512618E+02  0.00000000000E+00 0. -1.
        -12    1    5    5    0    0 -0.37335641091E+01 -0.45315932037E+02  0.74897870046E+02  0.87619427838E+02  0.00000000000E+00 0.  1.
          5    1    4    4  501    0 -0.31472551336E+02 -0.29280390671E+02 -0.10283510634E+03  0.11153651537E+03  0.41800000000E+01 0. -1.
         -5    1    4    4    0  501 -0.41323166198E+01  0.38378795379E+02  0.19249813556E+02  0.43336309226E+02  0.41800000000E+01 0. -1.
</event>
<event>
11    1  0.8041700E-009  0.1482482E+03  0.7561462E-02  0.1098682E+00
         22   -1    0    0    0    0  0.00000000000E+00  0.00000000000E+00  0.54440863564E+03  0.54440863564E+03  0.00000000000E+00 0.  1.
         22   -1    0    0    0    0 -0.00000000000E+00 -0.00000000000E+00 -0.15060994158E+03  0.15060994158E+03  0.00000000000E+00 0.  1.
        -24    2    1    2    0    0  0.17458129876E+02 -0.80363751624E+02 -0.39281935138E+02  0.12169824305E+03  0.80649073511E+02 0.  0.
         25    2    1    2    0    0 -0.12334474551E+02  0.73396986846E+02  0.13715142336E+02  0.14620114424E+03  0.12508961790E+03 0.  0.
         24    2    1    2    0    0 -0.51236553251E+01  0.69667647782E+01  0.41936548686E+03  0.42711918993E+03  0.80551866403E+02 0.  0.
        -11    1    5    5    0    0 -0.11477754990E+02 -0.56645151255E+00  0.41676945140E+03  0.41692785389E+03  0.00000000000E+00 0.  1.
         12    1    5    5    0    0  0.63540996647E+01  0.75332162907E+01  0.25960354619E+01  0.10191336044E+02  0.00000000000E+00 0. -1.
         13    1    3    3    0    0  0.42282728539E+02 -0.42604551317E+02  0.26062800629E+01  0.60081358352E+02  0.00000000000E+00 0. -1.
        -14    1    3    3    0    0 -0.24824598663E+02 -0.37759200308E+02 -0.41888215201E+02  0.61616884694E+02  0.00000000000E+00 0.  1.
          5    1    4    4  501    0 -0.65604711133E+02  0.17139256383E+02  0.48814641709E+01  0.68110449453E+02  0.41800000000E+01 0. -1.
         -5    1    4    4    0  501  0.53270236583E+02  0.56257730464E+02  0.88336781653E+01  0.78090694788E+02  0.41800000000E+01 0. -1.
</event>
<event>
11    1  0.8041700E-009  0.1391922E+03  0.7561462E-02  0.1108464E+00
         22   -1    0    0    0    0  0.00000000000E+00  0.00000000000E+00  0.36334191902E+03  0.36334191902E+03  0.00000000000E+00 0. -1.
         22   -1    0    0    0    0 -0.00000000000E+00 -0.00000000000E+00 -0.28723910022E+03  0.28723910022E+03  0.00000000000E+00 0.  1.
         24    2    1    2    0    0 -0.29157485572E+02 -0.52388035420E+02 -0.10046802495E+03  0.14182852973E+03  0.80167590628E+02 0.  0.
         25    2    1    2    0    0  0.64641010356E+02  0.11431932737E+01 -0.12625459734E+03  0.18912190425E+03  0.12508838559E+03 0.  0.
        -24    2    1    2    0    0 -0.35483524784E+02  0.51244842146E+02  0.30282544109E+03  0.31963058527E+03  0.81088525044E+02 0.  0.
        -13    1    3    3    0    0 -0.50488020477E+02 -0.11741149831E+02 -0.68447150393E+02  0.85859811367E+02  0.00000000000E+00 0.  1.
         14    1    3    3    0    0  0.21330534905E+02 -0.40646885589E+02 -0.32020874557E+02  0.55968718360E+02  0.00000000000E+00 0. -1.
         11    1    5    5    0    0  0.16340873390E+02  0.33023483225E+02  0.19679325747E+03  0.20021278873E+03  0.00000000000E+00 0. -1.
        -12    1    5    5    0    0 -0.51824398174E+02  0.18221358922E+02  0.10603218362E+03  0.11941779654E+03  0.00000000000E+00 0.  1.
          5    1    4    4  501    0  0.48020426043E+02  0.55201112104E+02 -0.33898529175E+02  0.80744701220E+02  0.41800000000E+01 0. -1.
         -5    1    4    4    0  501  0.16620584313E+02 -0.54057918830E+02 -0.92356068160E+02  0.10837720303E+03  0.41800000000E+01 0. -1.
</event>
<event>
11    1  0.8041700E-009  0.1856653E+03  0.7561462E-02  0.1065150E+00
         22   -1    0    0    0    0  0.00000000000E+00  0.00000000000E+00  0.76698097386E+03  0.76698097386E+03  0.00000000000E+00 0.  1.
         22   -1    0    0    0    0 -0.00000000000E+00 -0.00000000000E+00 -0.88285206134E+03  0.88285206134E+03  0.00000000000E+00 0. -1.
         24    2    1    2    0    0  0.13063838575E+03 -0.22749601874E+02 -0.72629677004E+03  0.74280678949E+03  0.81676166120E+02 0.  0.
         25    2    1    2    0    0 -0.18348073770E+03  0.25808178091E+02 -0.58633583778E+02  0.23112165549E+03  0.12509228324E+03 0.  0.
        -24    2    1    2    0    0  0.52842351953E+02 -0.30585762168E+01  0.66905926634E+03  0.67590459022E+03  0.80031519765E+02 0.  0.
        -13    1    3    3    0    0  0.91018054545E+01 -0.17391581394E+02 -0.29266000593E+02  0.35239306982E+02  0.00000000000E+00 0.  1.
         14    1    3    3    0    0  0.12153658030E+03 -0.53580204802E+01 -0.69703076945E+03  0.70756748250E+03  0.00000000000E+00 0. -1.
         11    1    5    5    0    0  0.37321814399E+02 -0.34558078183E+02  0.23574748076E+03  0.24117224816E+03  0.00000000000E+00 0. -1.
        -12    1    5    5    0    0  0.15520537554E+02  0.31499501967E+02  0.43331178558E+03  0.43473234206E+03  0.00000000000E+00 0.  1.
          5    1    4    4  501    0 -0.95118838911E+02 -0.46564373743E+02 -0.47950803414E+02  0.11632964526E+03  0.41800000000E+01 0.  1.
         -5    1    4    4    0  501 -0.88361898794E+02  0.72372551834E+02 -0.10682780363E+02  0.11479201023E+03  0.41800000000E+01 0.  1.
</event>
<event>
11    1  0.8041700E-009  0.1472270E+03  0.7561462E-02  0.1099746E+00
         22   -1    0    0    0    0  0.00000000000E+00  0.00000000000E+00  0.35461431596E+03  0.35461431596E+03  0.00000000000E+00 0.  1.
         22   -1    0    0    0    0 -0.00000000000E+00 -0.00000000000E+00 -0.70652411969E+03  0.70652411969E+03  0.00000000000E+00 0. -1.
         24    2    1    2    0    0 -0.77901349840E+01  0.75472906716E+02 -0.58149495908E+03  0.59158296097E+03  0.77956182774E+02 0.  0.
         25    2    1    2    0    0  0.22366526545E+02  0.75142795459E+01 -0.71944723404E+02  0.14621711246E+03  0.12508666933E+03 0.  0.
        -24    2    1    2    0    0 -0.14576391561E+02 -0.82987186262E+02  0.30152987875E+03  0.32333836222E+03  0.80796561992E+02 0.  0.
        -13    1    3    3    0    0 -0.35852992504E+02  0.12418630862E+02 -0.26078313114E+03  0.26352893759E+03  0.00000000000E+00 0.  1.
         14    1    3    3    0    0  0.28062857520E+02  0.63054275854E+02 -0.32071182794E+03  0.32805402338E+03  0.00000000000E+00 0. -1.
         13    1    5    5    0    0  0.13446818696E+02 -0.23755809294E+02  0.18875038507E+02  0.33187685772E+02  0.00000000000E+00 0. -1.
        -14    1    5    5    0    0 -0.28023210257E+02 -0.59231376968E+02  0.28265484025E+03  0.29015067645E+03  0.00000000000E+00 0.  1.
          5    1    4    4  501    0 -0.21303956553E+02 -0.78654851166E+01  0.27819061716E+02  0.36153796698E+02  0.41800000000E+01 0. -1.
         -5    1    4    4    0  501  0.43670483098E+02  0.15379764662E+02 -0.99763785120E+02  0.11006331576E+03  0.41800000000E+01 0. -1.
</event>
<event>
11    1  0.8041700E-009  0.1470184E+03  0.7561462E-02  0.1099965E+00
         22   -1    0    0    0    0  0.00000000000E+00  0.00000000000E+00  0.17208372273E+03  0.17208372273E+03  0.00000000000E+00 0. -1.
         22   -1    0    0    0    0 -0.00000000000E+00 -0.00000000000E+00 -0.16975772536E+04  0.16975772536E+04  0.00000000000E+00 0.  1.
         24    2    1    2    0    0  0.32409336744E+02 -0.77474589933E+02 -0.12690099100E+04  0.12737542835E+04  0.70789447773E+02 0.  0.
         25    2    1    2    0    0  0.12031972432E+02  0.13799927869E+03 -0.38421758232E+03  0.42715201823E+03  0.12508847601E+03 0.  0.
        -24    2    1    2    0    0 -0.44441309176E+02 -0.60524688755E+02  0.12773396141E+03  0.16875467462E+03  0.80770708790E+02 0.  0.
        -11    1    3    3    0    0  0.23967053461E+02 -0.90766533848E+02 -0.11127595657E+04  0.11167125120E+04  0.00000000000E+00 0.  1.
         12    1    3    3    0    0  0.84422832828E+01  0.13291943915E+02 -0.15625034431E+03  0.15704177156E+03  0.00000000000E+00 0. -1.
         11    1    5    5    0    0 -0.50137754376E+02 -0.59708406978E+02  0.54105083244E+02  0.94901255580E+02  0.00000000000E+00 0. -1.
        -12    1    5    5    0    0  0.56964452009E+01 -0.81628177681E+00  0.73628878169E+02  0.73853419042E+02  0.00000000000E+00 0.  1.
          5    1    4    4  501    0 -0.51668641165E+02  0.63360033799E+02 -0.11994112062E+03  0.14521531317E+03  0.41800000000E+01 0.  1.
         -5    1    4    4    0  501  0.63700613597E+02  0.74639244889E+02 -0.26427646170E+03  0.28193670506E+03  0.41800000000E+01 0.  1.
</event>
<event>
11    1  0.8041700E-009  0.2162966E+03  0.7561462E-02  0.1043562E+00
         22   -1    0    0    0    0  0.00000000000E+00  0.00000000000E+00  0.13586775371E+04  0.13586775371E+04  0.00000000000E+00 0.  1.
         22   -1    0    0    0    0 -0.00000000000E+00 -0.00000000000E+00 -0.97717198941E+03  0.97717198941E+03  0.00000000000E+00 0. -1.
         24    2    1    2    0    0  0.81830772532E+02  0.15216799775E+03 -0.70685026533E+03  0.73221086302E+03  0.81511198286E+02 0.  0.
         25    2    1    2    0    0 -0.62809318898E+02 -0.18302434936E+03 -0.20440808177E+03  0.30801490032E+03  0.12509033508E+03 0.  0.
        -24    2    1    2    0    0 -0.19021453635E+02  0.30856351608E+02  0.12927638948E+04  0.12956237632E+04  0.78028955489E+02 0.  0.
        -13    1    3    3    0    0 -0.15742701658E+02  0.12014510695E+02 -0.59228456041E+02  0.62451510212E+02  0.00000000000E+00 0.  1.
         14    1    3    3    0    0  0.97573474190E+02  0.14015348706E+03 -0.64762180929E+03  0.66975935281E+03  0.00000000000E+00 0. -1.
         13    1    5    5    0    0  0.27882699207E+02 -0.31014620540E+01  0.39668405095E+03  0.39767486752E+03  0.00000000000E+00 0. -1.
        -14    1    5    5    0    0 -0.46904152842E+02  0.33957813662E+02  0.89607984387E+03  0.89794889568E+03  0.00000000000E+00 0.  1.
          5    1    4    4  501    0 -0.12886264593E+02 -0.12418521454E+02 -0.10029981180E+03  0.10196960399E+03  0.41800000000E+01 0.  1.
         -5    1    4    4    0  501 -0.49923054305E+02 -0.17060582790E+03 -0.10410826997E+03  0.20604529633E+03  0.41800000000E+01 0.  1.
</event>
<event>
11    1  0.8041700E-009  0.1891950E+03  0.7561462E-02  0.1062439E+00
         22   -1    0    0    0    0  0.00000000000E+00  0.00000000000E+00  0.41622836412E+03  0.41622836412E+03  0.00000000000E+00 0.  1.
         22   -1    0    0    0    0 -0.00000000000E+00 -0.00000000000E+00 -0.11565666581E+04  0.11565666581E+04  0.00000000000E+00 0.  1.
         24    2    1    2    0    0  0.86002207607E+02  0.96513952394E+02 -0.59910121098E+03  0.61845870060E+03  0.82810510339E+02 0.  0.
         25    2    1    2    0    0 -0.11211814137E+03 -0.12579098572E+03 -0.52237403022E+03  0.56295233729E+03  0.12508739703E+03 0.  0.
        -24    2    1    2    0    0  0.26115933768E+02  0.29277033323E+02  0.38113694720E+03  0.39138398435E+03  0.79855269126E+02 0.  0.
        -11    1    3    3    0    0  0.50541535078E+02  0.91372964667E+02 -0.53432767572E+03  0.54443505626E+03  0.00000000000E+00 0.  1.
         12    1    3    3    0    0  0.35460672529E+02  0.51409877270E+01 -0.64773535260E+02  0.74023644338E+02  0.00000000000E+00 0. -1.
         13    1    5    5    0    0 -0.23172655034E+01  0.15232850494E+02  0.88903151204E+01  0.17788961648E+02  0.00000000000E+00 0. -1.
        -14    1    5    5    0    0  0.28433199271E+02  0.14044182829E+02  0.37224663208E+03  0.37359502271E+03  0.00000000000E+00 0.  1.
          5    1    4    4  501    0  0.27073145718E+02 -0.24887891065E+02 -0.11363461732E+03  0.11951008742E+03  0.41800000000E+01 0. -1.
         -5    1    4    4    0  501 -0.13919128709E+03 -0.10090309465E+03 -0.40873941290E+03  0.44344224987E+03  0.41800000000E+01 0. -1.
</event>
<event>
11    1  0.8041700E-009  0.1747108E+03  0.7561462E-02  0.1074003E+00
         22   -1    0    0    0    0  0.00000000000E+00  0.00000000000E+00  0.14657055276E+03  0.14657055276E+03  0.00000000000E+00 0.  1.
         22   -1    0    0    0    0 -0.00000000000E+00 -0.00000000000E+00 -0.75136228135E+03  0.75136228135E+03  0.00000000000E+00 0.  1.
        -24    2    1    2    0    0 -0.73695311444E+02 -0.10544448514E+03 -0.53219550501E+03  0.55362434967E+03  0.81965398889E+02 0.  0.
         25    2    1    2    0    0  0.27644383697E+02  0.10102220966E+03 -0.15153959447E+03  0.22266767999E+03  0.12508776209E+03 0.  0.
         24    2    1    2    0    0  0.46050927747E+02  0.44222754734E+01  0.78943370891E+02  0.12164080446E+03  0.80151013939E+02 0.  0.
        -11    1    5    5    0    0  0.42226659869E+02  0.31351405498E+02  0.78436603316E+02  0.94436762811E+02  0.00000000000E+00 0.  1.
         12    1    5    5    0    0  0.38242678777E+01 -0.26929130025E+02  0.50676757540E+00  0.27204041650E+02  0.00000000000E+00 0. -1.
         13    1    3    3    0    0 -0.47459748000E+02 -0.30824214461E+02 -0.10609413730E+03  0.12024361042E+03  0.00000000000E+00 0. -1.
        -14    1    3    3    0    0 -0.26235563444E+02 -0.74620270675E+02 -0.42610136771E+03  0.43338073924E+03  0.00000000000E+00 0.  1.
          5    1    4    4  501    0  0.54506630230E+02  0.65866878980E+02 -0.15606476405E+03  0.17799747600E+03  0.41800000000E+01 0. -1.
         -5    1    4    4    0  501 -0.26862246533E+02  0.35155330683E+02  0.45251695813E+01  0.44670203984E+02  0.41800000000E+01 0. -1.
</event>
<event>
11    1  0.8041700E-009  0.1480509E+03  0.7561462E-02  0.1098887E+00
         22   -1    0    0    0    0  0.00000000000E+00  0.00000000000E+00  0.65467752433E+02  0.65467752433E+02  0.00000000000E+00 0.  1.
         22   -1    0    0    0    0 -0.00000000000E+00 -0.00000000000E+00 -0.14247570463E+04  0.14247570463E+04  0.00000000000E+00 0.  1.
        -24    2    1    2    0    0  0.65667724768E+01 -0.41636226037E+02 -0.10843520997E+04  0.10880831462E+04  0.79553498046E+02 0.  0.
         25    2    1    2    0    0  0.46395406520E+02  0.91418329090E+02 -0.22684307820E+03  0.27859416998E+03  0.12508830793E+03 0.  0.
         24    2    1    2    0    0 -0.52962178997E+02 -0.49782103052E+02 -0.48094115985E+02  0.12354748259E+03  0.87565325752E+02 0.  0.
        -13    1    5    5    0    0  0.30166772197E+01 -0.27259573640E+02  0.18959743436E+02  0.33341514178E+02  0.00000000000E+00 0.  1.
         14    1    5    5    0    0 -0.55978856217E+02 -0.22522529412E+02 -0.67053859421E+02  0.90205968415E+02  0.00000000000E+00 0. -1.
         11    1    3    3    0    0 -0.10685387408E+02  0.11414653147E+02 -0.53897575317E+02  0.56119697393E+02  0.00000000000E+00 0. -1.
        -12    1    3    3    0    0  0.17252159885E+02 -0.53050879185E+02 -0.10304545244E+04  0.10319634488E+04  0.00000000000E+00 0.  1.
          5    1    4    4  501    0  0.60726056111E+02  0.11007800739E+02 -0.37483061667E+02  0.72327573441E+02  0.41800000000E+01 0. -1.
         -5    1    4    4    0  501 -0.14330649591E+02  0.80410528350E+02 -0.18936001653E+03  0.20626659654E+03  0.41800000000E+01 0. -1.
</event>
<event>
11    1  0.8041700E-009  0.2304290E+03  0.7561462E-02  0.1034874E+00
         22   -1    0    0    0    0  0.00000000000E+00  0.00000000000E+00  0.16185644691E+04  0.16185644691E+04  0.00000000000E+00 0. -1.
         22   -1    0    0    0    0 -0.00000000000E+00 -0.00000000000E+00 -0.10594719889E+04  0.10594719889E+04  0.00000000000E+00 0.  1.
        -24    2    1    2    0    0 -0.17347228405E+03  0.86950657607E+02 -0.10203645338E+04  0.10417820149E+04  0.80702753547E+02 0.  0.
         25    2    1    2    0    0  0.17380265317E+03 -0.36190675710E+02  0.41876505452E+03  0.47172974871E+03  0.12509059786E+03 0.  0.
         24    2    1    2    0    0 -0.33036912462E+00 -0.50759981897E+02  0.11606919594E+04  0.11645246944E+04  0.79594311187E+02 0.  0.
        -13    1    5    5    0    0  0.21890059879E+02  0.13934903382E+02  0.30265465450E+03  0.30376503443E+03  0.00000000000E+00 0.  1.
         14    1    5    5    0    0 -0.22220429003E+02 -0.64694885279E+02  0.85803730493E+03  0.86075966001E+03  0.00000000000E+00 0. -1.
         11    1    3    3    0    0 -0.14761379231E+03  0.61664241428E+02 -0.63957489320E+03  0.65927866215E+03  0.00000000000E+00 0. -1.
        -12    1    3    3    0    0 -0.25858491741E+02  0.25286416179E+02 -0.38078964062E+03  0.38250335272E+03  0.00000000000E+00 0.  1.
          5    1    4    4  501    0 -0.15729359222E+02 -0.16959958775E+02  0.25194793909E+02  0.34457263143E+02  0.41800000000E+01 0. -1.
         -5    1    4    4    0  501  0.18953201239E+03 -0.19230716934E+02  0.39357026061E+03  0.43727248556E+03  0.41800000000E+01 0. -1.
</event>
<event>
11    1  0.8041700E-009  0.1270812E+03  0.7561462E-02  0.1122908E+00
         22   -1    0    0    0    0  0.00000000000E+00  0.00000000000E+00  0.81518758448E+03  0.81518758448E+03  0.00000000000E+00 0. -1.
         22   -1    0    0    0    0 -0.00000000000E+00 -0.00000000000E+00 -0.26514954649E+03  0.26514954649E+03  0.00000000000E+00 0.  1.
        -24    2    1    2    0    0 -0.18727312914E+02 -0.46045675573E+01 -0.23000505294E+03  0.24451903471E+03  0.80717530099E+02 0.  0.
         25    2    1    2    0    0  0.49611112228E+01 -0.14748937488E+02  0.13226862746E+03  0.18271719059E+03  0.12509371745E+03 0.  0.
         24    2    1    2    0    0  0.13766201691E+02  0.19353505045E+02  0.64777446346E+03  0.65310090567E+03  0.79780768422E+02 0.  0.
        -13    1    5    5    0    0 -0.25042486301E+02 -0.88660115250E+01  0.38963636957E+03  0.39054094891E+03  0.00000000000E+00 0.  1.
         14    1    5    5    0    0  0.38808687991E+02  0.28219516570E+02  0.25813809389E+03  0.26255995676E+03  0.00000000000E+00 0. -1.
         11    1    3    3    0    0 -0.20896439666E+02  0.18724097714E+02 -0.23245725229E+02  0.36436475780E+02  0.00000000000E+00 0. -1.
        -12    1    3    3    0    0  0.21691267522E+01 -0.23328665271E+02 -0.20675932771E+03  0.20808255893E+03  0.00000000000E+00 0.  1.
          5    1    4    4  501    0 -0.11214638493E+02 -0.67983219805E+02  0.60324231802E+02  0.91673178379E+02  0.41800000000E+01 0. -1.
         -5    1    4    4    0  501  0.16175749716E+02  0.53234282318E+02  0.71944395661E+02  0.91044012213E+02  0.41800000000E+01 0. -1.
</event>
<event>
11    1  0.8041700E-009  0.1407217E+03  0.7561462E-02  0.1106755E+00
         22   -1    0    0    0    0  0.00000000000E+00  0.00000000000E+00  0.78620173944E+03  0.78620173944E+03  0.00000000000E+00 0. -1.
         22   -1    0    0    0    0 -0.00000000000E+00 -0.00000000000E+00 -0.33731797040E+03  0.33731797040E+03  0.00000000000E+00 0.  1.
         24    2    1    2    0    0  0.81436825494E+01  0.64035807912E+02 -0.26252157414E+03  0.28172265188E+03  0.79266458438E+02 0.  0.
         25    2    1    2    0    0 -0.54006821263E+01 -0.63514609379E+02  0.15557833156E+02  0.14125535738E+03  0.12509099425E+03 0.  0.
        -24    2    1    2    0    0 -0.27430004231E+01 -0.52119853287E+00  0.69584751003E+03  0.70054170058E+03  0.80914283959E+02 0.  0.
        -13    1    3    3    0    0 -0.14518703828E+02  0.73947762461E+02 -0.17005312021E+03  0.18600303231E+03  0.00000000000E+00 0.  1.
         14    1    3    3    0    0  0.22662386378E+02 -0.99119545494E+01 -0.92468453931E+02  0.95719619576E+02  0.00000000000E+00 0. -1.
         11    1    5    5    0    0  0.22099852900E+01 -0.30466662002E+02  0.57936171761E+03  0.58016644281E+03  0.00000000000E+00 0. -1.
        -12    1    5    5    0    0 -0.49529857130E+01  0.29945463469E+02  0.11648579241E+03  0.12037525777E+03  0.00000000000E+00 0.  1.
          5    1    4    4  501    0  0.27402741687E+02 -0.41586379981E+02  0.62347747595E+02  0.79906515892E+02  0.41800000000E+01 0. -1.
         -5    1    4    4    0  501 -0.32803423813E+02 -0.21928229398E+02 -0.46789914439E+02  0.61348841485E+02  0.41800000000E+01 0. -1.
</event>
<event>
11    1  0.8041700E-009  0.1769023E+03  0.7561462E-02  0.1072176E+00
         22   -1    0    0    0    0  0.00000000000E+00  0.00000000000E+00  0.23913776716E+04  0.23913776716E+04  0.00000000000E+00 0.  1.
         22   -1    0    0    0    0 -0.00000000000E+00 -0.00000000000E+00 -0.20360695042E+03  0.20360695042E+03  0.00000000000E+00 0. -1.
         24    2    1    2    0    0  0.87039040912E+02 -0.96937749607E+02 -0.89527055149E+02  0.17746214567E+03  0.80653565323E+02 0.  0.
         25    2    1    2    0    0 -0.38517261804E+02  0.11296648603E+03  0.38847182993E+02  0.17720530843E+03  0.12509041244E+03 0.  0.
        -24    2    1    2    0    0 -0.48521779108E+02 -0.16028736427E+02  0.22384505934E+04  0.22403171680E+04  0.75819988743E+02 0.  0.
        -13    1    3    3    0    0 -0.15170810826E+02 -0.20154537430E+02 -0.11803125044E+02  0.27850900182E+02  0.00000000000E+00 0.  1.
         14    1    3    3    0    0  0.10220985174E+03 -0.76783212176E+02 -0.77723930105E+02  0.14961124548E+03  0.00000000000E+00 0. -1.
         11    1    5    5    0    0 -0.43028217144E+02  0.22526128771E+02  0.90928661124E+03  0.91058277785E+03  0.00000000000E+00 0. -1.
        -12    1    5    5    0    0 -0.54935619636E+01 -0.38554865197E+02  0.13291639821E+04  0.13297343901E+04  0.00000000000E+00 0.  1.
          5    1    4    4  501    0 -0.77743763712E+02  0.58866729567E+02 -0.40457109169E+01  0.97689430456E+02  0.41800000000E+01 0. -1.
         -5    1    4    4    0  501  0.39226501907E+02  0.54099756466E+02  0.42892893910E+02  0.79515877971E+02  0.41800000000E+01 0. -1.
</event>
<event>
11    1  0.8041700E-009  0.1268447E+03  0.7561462E-02  0.1123208E+00
         22   -1    0    0    0    0  0.00000000000E+00  0.00000000000E+00  0.13457659333E+03  0.13457659333E+03  0.00000000000E+00 0.  1.
         22   -1    0    0    0    0 -0.00000000000E+00 -0.00000000000E+00 -0.44864925194E+04  0.44864925194E+04  0.00000000000E+00 0. -1.
        -24    2    1    2    0    0  0.24955809468E+01 -0.22235076718E+02 -0.37135840821E+04  0.37145562028E+04  0.81978183897E+02 0.  0.
         25    2    1    2    0    0  0.76340553487E+01  0.73575373659E+01 -0.75394511896E+03  0.76432533339E+03  0.12509021023E+03 0.  0.
         24    2    1    2    0    0 -0.10129636295E+02  0.14877539352E+02  0.11561327497E+03  0.14218757653E+03  0.80789398206E+02 0.  0.
        -11    1    5    5    0    0 -0.38715373310E+02  0.20169296112E+01  0.99828704568E+02  0.10709210238E+03  0.00000000000E+00 0.  1.
         12    1    5    5    0    0  0.28585737014E+02  0.12860609741E+02  0.15784570402E+02  0.35095474157E+02  0.00000000000E+00 0. -1.
         13    1    3    3    0    0  0.15430753703E+02  0.59537099606E+01 -0.31965119749E+04  0.31965547642E+04  0.00000000000E+00 0. -1.
        -14    1    3    3    0    0 -0.12935172756E+02 -0.28188786679E+02 -0.51707210719E+03  0.51800143863E+03  0.00000000000E+00 0.  1.
          5    1    4    4  501    0  0.21008101419E+02 -0.50251177354E+02 -0.20377125883E+03  0.21096615718E+03  0.41800000000E+01 0.  1.
         -5    1    4    4    0  501 -0.13374046071E+02  0.57608714720E+02 -0.55017386013E+03  0.55335917620E+03  0.41800000000E+01 0.  1.
</event>
<event>
11    1  0.8041700E-009  0.1377266E+03  0.7561462E-02  0.1110124E+00
         22   -1    0    0    0    0  0.00000000000E+00  0.00000000000E+00  0.10252307059E+03  0.10252307059E+03  0.00000000000E+00 0. -1.
         22   -1    0    0    0    0 -0.00000000000E+00 -0.00000000000E+00 -0.17018869335E+04  0.17018869335E+04  0.00000000000E+00 0. -1.
        -24    2    1    2    0    0  0.45845107255E+02  0.32784287188E+02 -0.14749006215E+04  0.14781513992E+04  0.80144447098E+02 0.  0.
         25    2    1    2    0    0 -0.44973881526E+02 -0.74251560623E+02 -0.16749707655E+03  0.22636347329E+03  0.12509679098E+03 0.  0.
         24    2    1    2    0    0 -0.87122572884E+00  0.41467273435E+02  0.43033835158E+02  0.99895131555E+02  0.80042691981E+02 0.  0.
        -13    1    5    5    0    0  0.25995670738E+02  0.42620361036E+02  0.92403170158E+00  0.49931191719E+02  0.00000000000E+00 0.  1.
         14    1    5    5    0    0 -0.26866896467E+02 -0.11530876006E+01  0.42109803456E+02  0.49963939836E+02  0.00000000000E+00 0. -1.
         13    1    3    3    0    0 -0.13470166865E+02  0.32417551557E+02 -0.75304692998E+03  0.75386472381E+03  0.00000000000E+00 0. -1.
        -14    1    3    3    0    0  0.59315274120E+02  0.36673563087E+00 -0.72185369153E+03  0.72428667544E+03  0.00000000000E+00 0.  1.
          5    1    4    4  501    0  0.39073323620E+02 -0.49206533808E+02 -0.54614463823E+02  0.83355981470E+02  0.41800000000E+01 0. -1.
         -5    1    4    4    0  501 -0.84047205146E+02 -0.25045026816E+02 -0.11288261273E+03  0.14300749182E+03  0.41800000000E+01 0. -1.
</event>
<event>
11    1  0.8041700E-009  0.1296195E+03  0.7561462E-02  0.1119737E+00
         22   -1    0    0    0    0  0.00000000000E+00  0.00000000000E+00  0.44378242032E+03  0.44378242032E+03  0.00000000000E+00 0. -1.
         22   -1    0    0    0    0 -0.00000000000E+00 -0.00000000000E+00 -0.94543409817E+03  0.94543409817E+03  0.00000000000E+00 0. -1.
         24    2    1    2    0    0  0.83059989294E+01 -0.11665656755E+02 -0.83253302224E+03  0.83692319467E+03  0.84404522973E+02 0.  0.
         25    2    1    2    0    0 -0.33967465950E+02  0.33016848762E+02 -0.63903695178E+02  0.14824093165E+03  0.12509112884E+03 0.  0.
        -24    2    1    2    0    0  0.25661467021E+02 -0.21351192008E+02  0.39478503957E+03  0.40405239217E+03  0.79301474514E+02 0.  0.
        -11    1    3    3    0    0  0.11505051485E+02 -0.47286617438E+02 -0.54659074917E+03  0.54875298403E+03  0.00000000000E+00 0.  1.
         12    1    3    3    0    0 -0.31990525552E+01  0.35620960683E+02 -0.28594227306E+03  0.28817021064E+03  0.00000000000E+00 0. -1.
         11    1    5    5    0    0  0.12581319565E+02 -0.12204087870E+02  0.38485591785E+03  0.38525485962E+03  0.00000000000E+00 0. -1.
        -12    1    5    5    0    0  0.13080147456E+02 -0.91471041378E+01  0.99291217218E+01  0.18797532544E+02  0.00000000000E+00 0.  1.
          5    1    4    4  501    0 -0.49316728116E+01 -0.44120571711E+02 -0.45457601338E+02  0.63677407016E+02  0.41800000000E+01 0.  1.
         -5    1    4    4    0  501 -0.29035793139E+02  0.77137420474E+02 -0.18446093840E+02  0.84563524634E+02  0.41800000000E+01 0.  1.
</event>
<event>
11    1  0.8041700E-009  0.1321672E+03  0.7561462E-02  0.1116635E+00
         22   -1    0    0    0    0  0.00000000000E+00  0.00000000000E+00  0.25364322947E+03  0.25364322947E+03  0.00000000000E+00 0.  1.
         22   -1    0    0    0    0 -0.00000000000E+00 -0.00000000000E+00 -0.50119979176E+03  0.50119979176E+03  0.00000000000E+00 0. -1.
        -24    2    1    2    0    0 -0.20294987517E+02 -0.67018450135E+01 -0.28503965337E+03  0.29653761159E+03  0.78931298266E+02 0.  0.
         25    2    1    2    0    0  0.62061054511E+02  0.52380100063E+01 -0.17702034082E+03  0.22552873337E+03  0.12509195528E+03 0.  0.
         24    2    1    2    0    0 -0.41766066994E+02  0.14638350071E+01  0.21450343191E+03  0.23277667628E+03  0.80166773378E+02 0.  0.
        -13    1    5    5    0    0 -0.30522938128E+02 -0.36006053631E+02  0.15085147697E+03  0.15806408117E+03  0.00000000000E+00 0.  1.
         14    1    5    5    0    0 -0.11243128865E+02  0.37469888638E+02  0.63651954931E+02  0.74712595108E+02  0.00000000000E+00 0. -1.
         13    1    3    3    0    0 -0.13787229823E+02  0.13186151252E+01 -0.28584256399E+03  0.28617791292E+03  0.00000000000E+00 0. -1.
        -14    1    3    3    0    0 -0.65077576942E+01 -0.80204601387E+01  0.80291062039E+00  0.10359698669E+02  0.00000000000E+00 0.  1.
          5    1    4    4  501    0 -0.35036804558E+02  0.21298390747E+02 -0.50563512418E+02  0.65232969503E+02  0.41800000000E+01 0.  1.
         -5    1    4    4    0  501  0.97097859069E+02 -0.16060380741E+02 -0.12645682840E+03  0.16029576387E+03  0.41800000000E+01 0.  1.
</event>
<event>
11    1  0.8041700E-009  0.1342924E+03  0.7561462E-02  0.1114105E+00
         22   -1    0    0    0    0  0.00000000000E+00  0.00000000000E+00  0.23769568394E+04  0.23769568394E+04  0.00000000000E+00 0. -1.
         22   -1    0    0    0    0 -0.00000000000E+00 -0.00000000000E+00 -0.58481162642E+02  0.58481162642E+02  0.00000000000E+00 0.  1.
        -24    2    1    2    0    0  0.25408368438E+02  0.43127404353E+02  0.71142558178E+01  0.95155206938E+02  0.80612297937E+02 0.  0.
         25    2    1    2    0    0 -0.28349568261E+02 -0.31135646164E+02  0.30568074258E+03  0.33295940672E+03  0.12509246043E+03 0.  0.
         24    2    1    2    0    0  0.29411998232E+01 -0.11991758189E+02  0.20056806783E+04  0.20073233883E+04  0.80248047232E+02 0.  0.
        -11    1    5    5    0    0 -0.37669967406E+02 -0.51353207815E+01  0.74409952643E+03  0.74507013307E+03  0.00000000000E+00 0.  1.
         12    1    5    5    0    0  0.40611167229E+02 -0.68564374073E+01  0.12615811519E+04  0.12622532553E+04  0.00000000000E+00 0. -1.
         13    1    3    3    0    0  0.66946747096E+01  0.10143030278E+02  0.41941192464E+02  0.43666501554E+02  0.00000000000E+00 0. -1.
        -14    1    3    3    0    0  0.18713693728E+02  0.32984374075E+02 -0.34826936646E+02  0.51488705384E+02  0.00000000000E+00 0.  1.
          5    1    4    4  501    0 -0.21892927824E+02  0.44469393261E+02  0.74261489380E+02  0.89381588879E+02  0.41800000000E+01 0.  1.
         -5    1    4    4    0  501 -0.64566404375E+01 -0.75605039425E+02  0.23141925320E+03  0.24357781784E+03  0.41800000000E+01 0.  1.
</event>
<event>
11    1  0.8041700E-009  0.1469655E+03  0.7561462E-02  0.1100020E+00
         22   -1    0    0    0    0  0.00000000000E+00  0.00000000000E+00  0.86517602959E+03  0.86517602959E+03  0.00000000000E+00 0. -1.
         22   -1    0    0    0    0 -0.00000000000E+00 -0.00000000000E+00 -0.31152537287E+03  0.31152537287E+03  0.00000000000E+00 0.  1.
         24    2    1    2    0    0  0.99772294545E+01  0.24065335020E+02 -0.22118846815E+03  0.23923000812E+03  0.87338267008E+02 0.  0.
         25    2    1    2    0    0  0.54742774833E+02  0.19843673195E+02 -0.15817490826E+02  0.13887921212E+03  0.12508676901E+03 0.  0.
        -24    2    1    2    0    0 -0.64720004287E+02 -0.43909008215E+02  0.79065661570E+03  0.79859218221E+03  0.80591001880E+02 0.  0.
        -13    1    3    3    0    0  0.10273624727E+02  0.16727640325E+02 -0.22822004933E+03  0.22906276919E+03  0.00000000000E+00 0.  1.
         14    1    3    3    0    0 -0.29639527259E+00  0.73376946952E+01  0.70315811733E+01  0.10167238927E+02  0.00000000000E+00 0. -1.
         11    1    5    5    0    0 -0.82807722136E+02 -0.36104518134E+02  0.57693614040E+03  0.58396572260E+03  0.00000000000E+00 0. -1.
        -12    1    5    5    0    0  0.18087717849E+02 -0.78044900815E+01  0.21372047530E+03  0.21462645961E+03  0.00000000000E+00 0.  1.
          5    1    4    4  501    0  0.74995545826E+02  0.40802383796E+02 -0.45699854030E+02  0.96928403864E+02  0.41800000000E+01 0. -1.
         -5    1    4    4    0  501 -0.20252770994E+02 -0.20958710601E+02  0.29882363203E+02  0.41950808259E+02  0.41800000000E+01 0. -1.
</event>
<event>
11    1  0.8041700E-009  0.1439531E+03  0.7561462E-02  0.1103223E+00
         22   -1    0    0    0    0  0.00000000000E+00  0.00000000000E+00  0.56286174023E+03  0.56286174023E+03  0.00000000000E+00 0.  1.
         22   -1    0    0    0    0 -0.00000000000E+00 -0.00000000000E+00 -0.71916945482E+03  0.71916945482E+03  0.00000000000E+00 0. -1.
         24    2    1    2    0    0 -0.47962653544E+02 -0.51492203839E+02 -0.63730377692E+03  0.64595986402E+03  0.78461319523E+02 0.  0.
         25    2    1    2    0    0  0.48426369280E+02  0.74355356363E+02  0.59715347212E+01  0.15347706702E+03  0.12508284700E+03 0.  0.
        -24    2    1    2    0    0 -0.46371573535E+00 -0.22863152524E+02  0.47502452761E+03  0.48259426401E+03  0.82012090863E+02 0.  0.
        -11    1    3    3    0    0 -0.27886789495E+02  0.16700695439E+02 -0.14864452750E+03  0.15215709583E+03  0.00000000000E+00 0.  1.
         12    1    3    3    0    0 -0.20075864049E+02 -0.68192899277E+02 -0.48865924942E+03  0.49380276819E+03  0.00000000000E+00 0. -1.
         11    1    5    5    0    0  0.11202580759E+02  0.11508398420E+02  0.17971499133E+02  0.24102195562E+02  0.00000000000E+00 0. -1.
        -12    1    5    5    0    0 -0.11666296494E+02 -0.34371550944E+02  0.45705302848E+03  0.45849206845E+03  0.00000000000E+00 0.  1.
          5    1    4    4  501    0 -0.41827236137E+02  0.34526779240E+02  0.60908064378E+01  0.54737432262E+02  0.41800000000E+01 0.  1.
         -5    1    4    4    0  501  0.90253605417E+02  0.39828577122E+02 -0.11927171657E+00  0.98739634758E+02  0.41800000000E+01 0.  1.
</event>
<event>
11    1  0.8041700E-009  0.1515041E+03  0.7561462E-02  0.1095352E+00
         22   -1    0    0    0    0  0.00000000000E+00  0.00000000000E+00  0.29799413660E+03  0.29799413660E+03  0.00000000000E+00 0. -1.
         22   -1    0    0    0    0 -0.00000000000E+00 -0.00000000000E+00 -0.31514534590E+03  0.31514534590E+03  0.00000000000E+00 0.  1.
         24    2    1    2    0    0 -0.62504659409E+02 -0.56106665366E+02 -0.23526448101E+03  0.26216631524E+03  0.79542507329E+02 0.  0.
         25    2    1    2    0    0  0.85442021315E+02  0.51483607609E+02  0.59770973608E+02  0.17079460125E+03  0.12508927081E+03 0.  0.
        -24    2    1    2    0    0 -0.22937361906E+02  0.46230577563E+01  0.15834229810E+03  0.18017856601E+03  0.82731717303E+02 0.  0.
        -13    1    3    3    0    0 -0.34593090669E+02  0.10528507353E+02 -0.39776125930E+02  0.53755665591E+02  0.00000000000E+00 0.  1.
         14    1    3    3    0    0 -0.27911568740E+02 -0.66635172718E+02 -0.19548835508E+03  0.20841064965E+03  0.00000000000E+00 0. -1.
         11    1    5    5    0    0 -0.53572950718E+02 -0.21921764166E+01  0.86345958763E+02  0.10163902440E+03  0.00000000000E+00 0. -1.
        -12    1    5    5    0    0  0.30635588812E+02  0.68152341728E+01  0.71996339337E+02  0.78539541612E+02  0.00000000000E+00 0.  1.
          5    1    4    4  501    0 -0.23779149352E+02  0.20707438691E+02  0.46686308996E+02  0.56491856128E+02  0.41800000000E+01 0. -1.
         -5    1    4    4    0  501  0.10922117067E+03  0.30776168918E+02  0.13084664612E+02  0.11430274513E+03  0.41800000000E+01 0. -1.
</event>
<event>
11    1  0.8041700E-009  0.1574543E+03  0.7561462E-02  0.1089496E+00
         22   -1    0    0    0    0  0.00000000000E+00  0.00000000000E+00  0.24223651487E+03  0.24223651487E+03  0.00000000000E+00 0.  1.
         22   -1    0    0    0    0 -0.00000000000E+00 -0.00000000000E+00 -0.59685914801E+03  0.59685914801E+03  0.00000000000E+00 0. -1.
         24    2    1    2    0    0  0.36896374937E+02 -0.75001194328E+02 -0.25063359620E+03  0.27552297353E+03  0.78161293295E+02 0.  0.
         25    2    1    2    0    0  0.12169870988E+02  0.13146328088E+03 -0.29243494448E+03  0.34437817515E+03  0.12508969096E+03 0.  0.
        -24    2    1    2    0    0 -0.49066245925E+02 -0.56462086556E+02  0.18844590754E+03  0.21919451420E+03  0.83300127734E+02 0.  0.
        -11    1    3    3    0    0 -0.14624921166E+02 -0.27033184298E+02 -0.26458833313E+02  0.40555532702E+02  0.00000000000E+00 0.  1.
         12    1    3    3    0    0  0.51521296104E+02 -0.47968010030E+02 -0.22417476288E+03  0.23496744083E+03  0.00000000000E+00 0. -1.
         11    1    5    5    0    0 -0.26809516114E+01  0.21262033422E+02  0.34752520324E+02  0.40828901965E+02  0.00000000000E+00 0. -1.
        -12    1    5    5    0    0 -0.46385294314E+02 -0.77724119978E+02  0.15369338721E+03  0.17836561223E+03  0.00000000000E+00 0.  1.
          5    1    4    4  501    0 -0.30708027376E+02  0.13496909537E+03 -0.21640846777E+03  0.25692360143E+03  0.41800000000E+01 0. -1.
         -5    1    4    4    0  501  0.42877898364E+02 -0.35058144828E+01 -0.76026476717E+02  0.87454573724E+02  0.41800000000E+01 0. -1.
</event>
<event>
11    1  0.8041700E-009  0.1580082E+03  0.7561462E-02  0.1088966E+00
         22   -1    0    0    0    0  0.00000000000E+00  0.00000000000E+00  0.44481933213E+03  0.44481933213E+03  0.00000000000E+00 0. -1.
         22   -1    0    0    0    0 -0.00000000000E+00 -0.00000000000E+00 -0.10438958073E+04  0.10438958073E+04  0.00000000000E+00 0. -1.
         24    2    1    2    0    0 -0.73416884690E+01 -0.22028596737E+02 -0.74440098287E+03  0.74872723270E+03  0.76944695898E+02 0.  0.
         25    2    1    2    0    0  0.10206975136E+03  0.39951326352E+01 -0.26554566109E+03  0.31080186780E+03  0.12509639354E+03 0.  0.
        -24    2    1    2    0    0 -0.94728062894E+02  0.18033464102E+02  0.41087016874E+03  0.42918603898E+03  0.78024026831E+02 0.  0.
        -11    1    3    3    0    0 -0.28993869220E+02 -0.59499313072E+00 -0.11537336169E+03  0.11896222534E+03  0.00000000000E+00 0.  1.
         12    1    3    3    0    0  0.21652180751E+02 -0.21433603606E+02 -0.62902762118E+03  0.62976500736E+03  0.00000000000E+00 0. -1.
         13    1    5    5    0    0 -0.64181818746E+02  0.48560568683E+02  0.28289791055E+03  0.29412354969E+03  0.00000000000E+00 0. -1.
        -14    1    5    5    0    0 -0.30546244148E+02 -0.30527104581E+02  0.12797225820E+03  0.13506248929E+03  0.00000000000E+00 0.  1.
          5    1    4    4  501    0  0.12648534067E+03  0.20930870829E+02 -0.23646040526E+03  0.26901233878E+03  0.41800000000E+01 0. -1.
         -5    1    4    4    0  501 -0.24415589308E+02 -0.16935738193E+02 -0.29085255825E+02  0.41789529021E+02  0.41800000000E+01 0. -1.
</event>
<event>
11    1  0.8041700E-009  0.1639513E+03  0.7561462E-02  0.1083419E+00
         22   -1    0    0    0    0  0.00000000000E+00  0.00000000000E+00  0.91987950861E+03  0.91987950861E+03  0.00000000000E+00 0. -1.
         22   -1    0    0    0    0 -0.00000000000E+00 -0.00000000000E+00 -0.31214581211E+03  0.31214581211E+03  0.00000000000E+00 0. -1.
         24    2    1    2    0    0  0.16538089842E+02 -0.28083884301E+01 -0.25205907899E+03  0.26617517374E+03  0.83869233651E+02 0.  0.
         25    2    1    2    0    0 -0.43951779720E+02 -0.99372903556E+02  0.98012627449E+02  0.19251263627E+03  0.12509159477E+03 0.  0.
        -24    2    1    2    0    0  0.27413689878E+02  0.10218129199E+03  0.76178014804E+03  0.77333751072E+03  0.80928268982E+02 0.  0.
        -13    1    3    3    0    0 -0.21101286866E+02  0.28661722018E+02 -0.87614683450E+02  0.94567919362E+02  0.00000000000E+00 0.  1.
         14    1    3    3    0    0  0.37639376708E+02 -0.31470110448E+02 -0.16444439554E+03  0.17160725437E+03  0.00000000000E+00 0. -1.
         11    1    5    5    0    0  0.14112199891E+02  0.48190068527E+02  0.60328527280E+03  0.60537142092E+03  0.00000000000E+00 0. -1.
        -12    1    5    5    0    0  0.13301489987E+02  0.53991223459E+02  0.15849487524E+03  0.16796608980E+03  0.00000000000E+00 0.  1.
          5    1    4    4  501    0 -0.77116881267E+02 -0.77779329744E+02  0.29878880783E+02  0.11360835105E+03  0.41800000000E+01 0. -1.
         -5    1    4    4    0  501  0.33165101547E+02 -0.21593573812E+02  0.68133746666E+02  0.78904285215E+02  0.41800000000E+01 0. -1.
</event>
<event>
11    1  0.8041700E-009  0.1539514E+03  0.7561462E-02  0.1092908E+00
         22   -1    0    0    0    0  0.00000000000E+00  0.00000000000E+00  0.56009940465E+03  0.56009940465E+03  0.00000000000E+00 0.  1.
         22   -1    0    0    0    0 -0.00000000000E+00 -0.00000000000E+00 -0.57689986819E+03  0.57689986819E+03  0.00000000000E+00 0.  1.
         24    2    1    2    0    0  0.59736646416E+02  0.60897794896E+02 -0.41557482133E+03  0.43194785303E+03  0.81237351450E+02 0.  0.
         25    2    1    2    0    0 -0.10417354378E+03 -0.60870745249E+02 -0.98255876172E+02  0.19964914342E+03  0.12509271928E+03 0.  0.
        -24    2    1    2    0    0  0.44436897359E+02 -0.27049647283E-01  0.49703023396E+03  0.50540227638E+03  0.80110978762E+02 0.  0.
        -13    1    3    3    0    0  0.50939237664E+01  0.54479398810E+02 -0.28582244592E+03  0.29101275495E+03  0.00000000000E+00 0.  1.
         14    1    3    3    0    0  0.54642722650E+02  0.64183960865E+01 -0.12975237541E+03  0.14093509808E+03  0.00000000000E+00 0. -1.
         11    1    5    5    0    0  0.18839036284E+02 -0.39420634269E+02  0.27575614590E+03  0.27919589484E+03  0.00000000000E+00 0. -1.
        -12    1    5    5    0    0  0.25597861075E+02  0.39393584622E+02  0.22127408806E+03  0.22620638154E+03  0.00000000000E+00 0.  1.
          5    1    4    4  501    0 -0.62259078001E+02 -0.87521102029E+02 -0.10388795372E+03  0.14948684029E+03  0.41800000000E+01 0. -1.
         -5    1    4    4    0  501 -0.41914465774E+02  0.26650356780E+02  0.56320775443E+01  0.50162303128E+02  0.41800000000E+01 0. -1.
</event>
<event>
11    1  0.8041700E-009  0.1631280E+03  0.7561462E-02  0.1084172E+00
         22   -1    0    0    0    0  0.00000000000E+00  0.00000000000E+00  0.23381954619E+03  0.23381954619E+03  0.00000000000E+00 0. -1.
         22   -1    0    0    0    0 -0.00000000000E+00 -0.00000000000E+00 -0.15394230105E+04  0.15394230105E+04  0.00000000000E+00 0. -1.
        -24    2    1    2    0    0 -0.27630817399E+01  0.10852788739E+03 -0.13742965365E+04  0.13809547384E+04  0.80988160505E+02 0.  0.
         25    2    1    2    0    0  0.51475474432E+02 -0.59465920170E+02 -0.11025672382E+03  0.18436512921E+03  0.12509210843E+03 0.  0.
         24    2    1    2    0    0 -0.48712392692E+02 -0.49061967216E+02  0.17894979606E+03  0.20792268909E+03  0.80180055494E+02 0.  0.
        -13    1    5    5    0    0  0.10345356016E+01  0.49698695025E+01 -0.66228769828E+01  0.83446010277E+01  0.00000000000E+00 0.  1.
         14    1    5    5    0    0 -0.49746928294E+02 -0.54031836718E+02  0.18557267304E+03  0.19957808806E+03  0.00000000000E+00 0. -1.
         13    1    3    3    0    0  0.36770492148E+02  0.49981153603E+02 -0.78257328594E+03  0.78502938332E+03  0.00000000000E+00 0. -1.
        -14    1    3    3    0    0 -0.39533573888E+02  0.58546733783E+02 -0.59172325060E+03  0.59592535505E+03  0.00000000000E+00 0.  1.
          5    1    4    4  501    0  0.92012234775E+02 -0.43346315277E+02 -0.90829472234E+02  0.13642807564E+03  0.41800000000E+01 0. -1.
         -5    1    4    4    0  501 -0.40536760343E+02 -0.16119604893E+02 -0.19427251590E+02  0.47937053574E+02  0.41800000000E+01 0. -1.
</event>
<event>
11    1  0.8041700E-009  0.1341432E+03  0.7561462E-02  0.1114281E+00
         22   -1    0    0    0    0  0.00000000000E+00  0.00000000000E+00  0.15850387212E+03  0.15850387212E+03  0.00000000000E+00 0. -1.
         22   -1    0    0    0    0 -0.00000000000E+00 -0.00000000000E+00 -0.10389037925E+04  0.10389037925E+04  0.00000000000E+00 0.  1.
        -24    2    1    2    0    0 -0.13118791931E+02 -0.17890332219E+02 -0.92523848327E+03  0.92920449911E+03  0.82840712012E+02 0.  0.
         25    2    1    2    0    0 -0.82200276005E+01 -0.30081332870E+02 -0.44948262977E+02  0.13652892525E+03  0.12508935064E+03 0.  0.
         24    2    1    2    0    0  0.21338819531E+02  0.47971665089E+02  0.89786825902E+02  0.13167424023E+03  0.80745312952E+02 0.  0.
        -13    1    5    5    0    0 -0.30186584372E+02  0.27496215320E+02  0.39896511998E+02  0.57087681707E+02  0.00000000000E+00 0.  1.
         14    1    5    5    0    0  0.51525403904E+02  0.20475449768E+02  0.49890313904E+02  0.74586558522E+02  0.00000000000E+00 0. -1.
         13    1    3    3    0    0 -0.29744223911E+02 -0.29648978242E+02 -0.23885782904E+03  0.24252184079E+03  0.00000000000E+00 0. -1.
        -14    1    3    3    0    0  0.16625431980E+02  0.11758646023E+02 -0.68638065422E+03  0.68668265832E+03  0.00000000000E+00 0.  1.
          5    1    4    4  501    0 -0.61945186086E+02 -0.30756460533E+02 -0.50407321931E+01  0.69469758347E+02  0.41800000000E+01 0.  1.
         -5    1    4    4    0  501  0.53725158486E+02  0.67512766299E+00 -0.39907530784E+02  0.67059166898E+02  0.41800000000E+01 0.  1.
</event>
<event>
11    1  0.8041700E-009  0.1282638E+03  0.7561462E-02  0.1121421E+00
         22   -1    0    0    0    0  0.00000000000E+00  0.00000000000E+00  0.42907596103E+03  0.42907596103E+03  0.00000000000E+00 0.  1.
         22   -1    0    0    0    0 -0.00000000000E+00 -0.00000000000E+00 -0.10977232539E+03  0.10977232539E+03  0.00000000000E+00 0.  1.
        -24    2    1    2    0    0 -0.20619791770E+01  0.29835187016E+02 -0.32722379864E+02  0.92439473757E+02  0.81116656872E+02 0.  0.
         25    2    1    2    0    0  0.13863877416E+02 -0.21653468553E+02  0.55924526698E+02  0.13941822427E+03  0.12509519885E+03 0.  0.
         24    2    1    2    0    0 -0.11801898239E+02 -0.81817184632E+01  0.29610148881E+03  0.30699058839E+03  0.79755277969E+02 0.  0.
        -13    1    5    5    0    0 -0.29393352452E+01 -0.22612037392E+02  0.28673127023E+03  0.28763651586E+03  0.00000000000E+00 0.  1.
         14    1    5    5    0    0 -0.88625629939E+01  0.14430318928E+02  0.93702185762E+01  0.19354072527E+02  0.00000000000E+00 0. -1.
         11    1    3    3    0    0  0.21275212354E+02  0.27702048444E+02  0.15965866409E+02  0.38405039238E+02  0.00000000000E+00 0. -1.
        -12    1    3    3    0    0 -0.23337191531E+02  0.21331385721E+01 -0.48688246272E+02  0.54034434519E+02  0.00000000000E+00 0.  1.
          5    1    4    4  501    0 -0.28690861806E+02  0.15397009804E+02 -0.24586933842E+02  0.41014914090E+02  0.41800000000E+01 0. -1.
         -5    1    4    4    0  501  0.42554739222E+02 -0.37050478357E+02  0.80511460540E+02  0.98403310183E+02  0.41800000000E+01 0. -1.
</event>
<event>
11    1  0.8041700E-009  0.1277472E+03  0.7561462E-02  0.1122068E+00
         22   -1    0    0    0    0  0.00000000000E+00  0.00000000000E+00  0.32073400265E+04  0.32073400265E+04  0.00000000000E+00 0.  1.
         22   -1    0    0    0    0 -0.00000000000E+00 -0.00000000000E+00 -0.83327797001E+02  0.83327797001E+02  0.00000000000E+00 0.  1.
         24    2    1    2    0    0  0.13206039883E+02 -0.22502842909E+02 -0.45042365498E+02  0.11465143948E+03  0.10215361206E+03 0.  0.
         25    2    1    2    0    0 -0.92404040019E+01  0.12508035202E+02  0.21906808379E+04  0.21943043504E+04  0.12508882000E+03 0.  0.
        -24    2    1    2    0    0 -0.39656358813E+01  0.99948077069E+01  0.97837375714E+03  0.98171203360E+03  0.80172849596E+02 0.  0.
        -13    1    3    3    0    0  0.45309623321E+02 -0.43210092511E+02 -0.43834330222E+02  0.76429853895E+02  0.00000000000E+00 0.  1.
         14    1    3    3    0    0 -0.32103583438E+02  0.20707249602E+02 -0.12080352759E+01  0.38221585588E+02  0.00000000000E+00 0. -1.
         11    1    5    5    0    0  0.13616309911E+02 -0.80153977127E+01  0.40097582715E+02  0.43098336809E+02  0.00000000000E+00 0. -1.
        -12    1    5    5    0    0 -0.17581945792E+02  0.18010205420E+02  0.93827617442E+03  0.93861369679E+03  0.00000000000E+00 0.  1.
          5    1    4    4  501    0 -0.57900667658E+02  0.78294041315E+01  0.59662959959E+03  0.59949823885E+03  0.41800000000E+01 0. -1.
         -5    1    4    4    0  501  0.48660263656E+02  0.46786310707E+01  0.15940512383E+04  0.15948061116E+04  0.41800000000E+01 0. -1.
</event>
<event>
11    1  0.8041700E-009  0.1516698E+03  0.7561462E-02  0.1095185E+00
         22   -1    0    0    0    0  0.00000000000E+00  0.00000000000E+00  0.22375755975E+03  0.22375755975E+03  0.00000000000E+00 0.  1.
         22   -1    0    0    0    0 -0.00000000000E+00 -0.00000000000E+00 -0.11374545901E+04  0.11374545901E+04  0.00000000000E+00 0. -1.
        -24    2    1    2    0    0 -0.33348566572E+02 -0.10831980547E+02 -0.53023534119E+03  0.53736816149E+03  0.79909731805E+02 0.  0.
         25    2    1    2    0    0 -0.47206975879E+02 -0.21285301421E+02 -0.57945019501E+03  0.59505552670E+03  0.12508792399E+03 0.  0.
         24    2    1    2    0    0  0.80555542451E+02  0.32117281968E+02  0.19598850587E+03  0.22878846165E+03  0.80074656001E+02 0.  0.
        -11    1    5    5    0    0  0.81575478738E+02  0.31739881334E+02  0.10042376910E+03  0.13321753713E+03  0.00000000000E+00 0.  1.
         12    1    5    5    0    0 -0.10199362875E+01  0.37740063448E+00  0.95564736768E+02  0.95570924526E+02  0.00000000000E+00 0. -1.
         11    1    3    3    0    0 -0.50843540670E+01  0.19400783186E+02 -0.40449138539E+03  0.40498829847E+03  0.00000000000E+00 0. -1.
        -12    1    3    3    0    0 -0.28264212505E+02 -0.30232763732E+02 -0.12574395580E+03  0.13237986302E+03  0.00000000000E+00 0.  1.
          5    1    4    4  501    0 -0.68149205543E+02  0.33000751024E+02 -0.36624745580E+03  0.37401608931E+03  0.41800000000E+01 0. -1.
         -5    1    4    4    0  501  0.20942229664E+02 -0.54286052445E+02 -0.21320273922E+03  0.22103943739E+03  0.41800000000E+01 0. -1.
</event>
<event>
11    1  0.8041700E-009  0.1337536E+03  0.7561462E-02  0.1114741E+00
         22   -1    0    0    0    0  0.00000000000E+00  0.00000000000E+00  0.29538121402E+03  0.29538121402E+03  0.00000000000E+00 0. -1.
         22   -1    0    0    0    0 -0.00000000000E+00 -0.00000000000E+00 -0.22055989161E+04  0.22055989161E+04  0.00000000000E+00 0. -1.
        -24    2    1    2    0    0 -0.45950515796E+02 -0.56775386179E+01 -0.18059231971E+04  0.18080877882E+04  0.75360280812E+02 0.  0.
         25    2    1    2    0    0  0.59119284233E+02  0.35946816778E+01 -0.38046270713E+03  0.40485592386E+03  0.12509370911E+03 0.  0.
         24    2    1    2    0    0 -0.13168768437E+02  0.20828569401E+01  0.27616820215E+03  0.28803641801E+03  0.80736283456E+02 0.  0.
        -11    1    5    5    0    0  0.27319297945E+02 -0.12033521041E+02  0.53386766874E+02  0.61166138885E+02  0.00000000000E+00 0.  1.
         12    1    5    5    0    0 -0.40488066382E+02  0.14116377981E+02  0.22278143527E+03  0.22687027912E+03  0.00000000000E+00 0. -1.
         11    1    3    3    0    0 -0.36450672142E+02  0.13721205674E+02 -0.16704053491E+04  0.16708593458E+04  0.00000000000E+00 0. -1.
        -12    1    3    3    0    0 -0.94998436533E+01 -0.19398744292E+02 -0.13551784797E+03  0.13722844249E+03  0.00000000000E+00 0.  1.
          5    1    4    4  501    0 -0.15266289260E+02 -0.11759742751E+02 -0.27009085831E+03  0.27080970308E+03  0.41800000000E+01 0. -1.
         -5    1    4    4    0  501  0.74385573493E+02  0.15354424429E+02 -0.11037184882E+03  0.13404622078E+03  0.41800000000E+01 0. -1.
</event>
<event>
11    1  0.8041700E-009  0.1580183E+03  0.7561462E-02  0.1088956E+00
         22   -1    0    0    0    0  0.00000000000E+00  0.00000000000E+00  0.30475834876E+03  0.30475834876E+03  0.00000000000E+00 0. -1.
         22   -1    0    0    0    0 -0.00000000000E+00 -0.00000000000E+00 -0.59271817211E+03  0.59271817211E+03  0.00000000000E+00 0.  1.
        -24    2    1    2    0    0  0.14897962062E+02 -0.11951528453E+02 -0.52205235405E+03  0.52803603930E+03  0.76932503735E+02 0.  0.
         25    2    1    2    0    0 -0.92967650775E+02  0.54536418098E+02  0.12894060657E+03  0.20950157515E+03  0.12509206601E+03 0.  0.
         24    2    1    2    0    0  0.78069688713E+02 -0.42584889645E+02  0.10515192413E+03  0.15993890642E+03  0.81333741563E+02 0.  0.
        -13    1    5    5    0    0 -0.11238942316E+02 -0.71017919226E+01 -0.45928467119E+01  0.14065685686E+02  0.00000000000E+00 0.  1.
         14    1    5    5    0    0  0.89308631028E+02 -0.35483097723E+02  0.10974477084E+03  0.14587322073E+03  0.00000000000E+00 0. -1.
         11    1    3    3    0    0  0.95419229644E+01  0.20075892221E+02 -0.48268902943E+02  0.53141102112E+02  0.00000000000E+00 0. -1.
        -12    1    3    3    0    0  0.53560390976E+01 -0.32027420674E+02 -0.47378345110E+03  0.47489493719E+03  0.00000000000E+00 0.  1.
          5    1    4    4  501    0 -0.78823051633E+02 -0.25742898235E+02  0.72941828114E+02  0.11051584939E+03  0.41800000000E+01 0. -1.
         -5    1    4    4    0  501 -0.14144599141E+02  0.80279316333E+02  0.55998778455E+02  0.98985725760E+02  0.41800000000E+01 0. -1.
</event>
<event>
11    1  0.8041700E-009  0.1292554E+03  0.7561462E-02  0.1120187E+00
         22   -1    0    0    0    0  0.00000000000E+00  0.00000000000E+00  0.29844928512E+03  0.29844928512E+03  0.00000000000E+00 0. -1.
         22   -1    0    0    0    0 -0.00000000000E+00 -0.00000000000E+00 -0.35524559487E+03  0.35524559487E+03  0.00000000000E+00 0. -1.
        -24    2    1    2    0    0 -0.51932091119E+01 -0.32378375487E+02 -0.28952568307E+03  0.30283238107E+03  0.82504552896E+02 0.  0.
         25    2    1    2    0    0  0.55574549593E+01  0.29117700672E+02  0.29252421238E+02  0.13184011969E+03  0.12508951680E+03 0.  0.
         24    2    1    2    0    0 -0.36424584747E+00  0.32606748148E+01  0.20347695208E+03  0.21902237923E+03  0.80976341614E+02 0.  0.
        -11    1    5    5    0    0 -0.95641839824E+01 -0.35729427585E+02  0.64137329398E+02  0.74038251149E+02  0.00000000000E+00 0.  1.
         12    1    5    5    0    0  0.91999381349E+01  0.38990102400E+02  0.13933962268E+03  0.14498412808E+03  0.00000000000E+00 0. -1.
         11    1    3    3    0    0 -0.21795440908E+02 -0.12753169812E+02 -0.26832859231E+03  0.26951422603E+03  0.00000000000E+00 0. -1.
        -12    1    3    3    0    0  0.16602231796E+02 -0.19625205674E+02 -0.21197090761E+02  0.33318155037E+02  0.00000000000E+00 0.  1.
          5    1    4    4  501    0  0.50879884525E+01  0.78608790146E+02  0.17808910798E+02  0.80869396056E+02  0.41800000000E+01 0. -1.
         -5    1    4    4    0  501  0.46946650686E+00 -0.49491089474E+02  0.11443510440E+02  0.50970723630E+02  0.41800000000E+01 0. -1.
</event>
<event>
11    1  0.8041700E-009  0.2077042E+03  0.7561462E-02  0.1049205E+00
         22   -1    0    0    0    0  0.00000000000E+00  0.00000000000E+00  0.21991051430E+03  0.21991051430E+03  0.00000000000E+00 0. -1.
         22   -1    0    0    0    0 -0.00000000000E+00 -0.00000000000E+00 -0.61592125135E+03  0.61592125135E+03  0.00000000000E+00 0.  1.
        -24    2    1    2    0    0  0.30503683089E+02  0.32562499873E+02 -0.41715373689E+03  0.42706086994E+03  0.79830791993E+02 0.  0.
         25    2    1    2    0    0 -0.18377082320E+03 -0.47428538473E+02 -0.25626782116E+02  0.22874577348E+03  0.12508683065E+03 0.  0.
         24    2    1    2    0    0  0.15326714011E+03  0.14866038600E+02  0.46769781964E+02  0.18002512223E+03  0.80683435639E+02 0.  0.
        -13    1    5    5    0    0  0.68582480365E+02  0.42796222751E+02  0.35147551389E+01  0.80916171427E+02  0.00000000000E+00 0.  1.
         14    1    5    5    0    0  0.84684659748E+02 -0.27930184151E+02  0.43255026825E+02  0.99108950802E+02  0.00000000000E+00 0. -1.
         13    1    3    3    0    0  0.21908625259E+02 -0.24991967121E+02 -0.14682271928E+03  0.15053736140E+03  0.00000000000E+00 0. -1.
        -14    1    3    3    0    0  0.85950578302E+01  0.57554466995E+02 -0.27033101761E+03  0.27652350854E+03  0.00000000000E+00 0.  1.
          5    1    4    4  501    0 -0.20088035458E+03 -0.33334633927E+02 -0.29696773222E+02  0.20582391847E+03  0.41800000000E+01 0. -1.
         -5    1    4    4    0  501  0.17109531380E+02 -0.14093904546E+02  0.40699911061E+01  0.22921855008E+02  0.41800000000E+01 0. -1.
</event>
<event>
11    1  0.8041700E-009  0.1588907E+03  0.7561462E-02  0.1088125E+00
         22   -1    0    0    0    0  0.00000000000E+00  0.00000000000E+00  0.94116709388E+03  0.94116709388E+03  0.00000000000E+00 0. -1.
         22   -1    0    0    0    0 -0.00000000000E+00 -0.00000000000E+00 -0.26980896907E+03  0.26980896907E+03  0.00000000000E+00 0. -1.
        -24    2    1    2    0    0 -0.10224882075E+03 -0.19322952944E+02 -0.22780924597E+03  0.26293458364E+03  0.80058384110E+02 0.  0.
         25    2    1    2    0    0  0.28378855241E+02  0.20231553868E+00  0.18192532437E+03  0.22259613919E+03  0.12508723827E+03 0.  0.
         24    2    1    2    0    0  0.73869965512E+02  0.19120637405E+02  0.71724204641E+03  0.72544534012E+03  0.77539781917E+02 0.  0.
        -11    1    5    5    0    0 -0.46421759092E+01  0.18103245957E+02  0.46378034303E+02  0.50001993732E+02  0.00000000000E+00 0.  1.
         12    1    5    5    0    0  0.78512141421E+02  0.10173914479E+01  0.67086401211E+03  0.67544334638E+03  0.00000000000E+00 0. -1.
         13    1    3    3    0    0 -0.27226127133E+00 -0.25505184374E+02 -0.74128683393E+02  0.78394197857E+02  0.00000000000E+00 0. -1.
        -14    1    3    3    0    0 -0.10197655948E+03  0.61822314304E+01 -0.15368056258E+03  0.18454038578E+03  0.00000000000E+00 0.  1.
          5    1    4    4  501    0  0.23546279827E+02  0.58022934482E+02  0.56952878819E+02  0.84747808380E+02  0.41800000000E+01 0.  1.
         -5    1    4    4    0  501  0.48325754142E+01 -0.57820618943E+02  0.12497244556E+03  0.13784833081E+03  0.41800000000E+01 0.  1.
</event>
<event>
11    1  0.8041700E-009  0.1380446E+03  0.7561462E-02  0.1109762E+00
         22   -1    0    0    0    0  0.00000000000E+00  0.00000000000E+00  0.86964223769E+03  0.86964223769E+03  0.00000000000E+00 0.  1.
         22   -1    0    0    0    0 -0.00000000000E+00 -0.00000000000E+00 -0.23276221331E+03  0.23276221331E+03  0.00000000000E+00 0.  1.
        -24    2    1    2    0    0 -0.10293772313E+01  0.49190559786E+02 -0.15814138870E+03  0.18414852021E+03  0.80505949378E+02 0.  0.
         25    2    1    2    0    0 -0.46824834095E+02 -0.13051238750E+02  0.18818464585E+02  0.13551498046E+03  0.12508906986E+03 0.  0.
         24    2    1    2    0    0  0.47854211326E+02 -0.36139321037E+02  0.77620294850E+03  0.78274095034E+03  0.81217621267E+02 0.  0.
        -11    1    5    5    0    0  0.42891563813E+02 -0.22538085330E+02  0.75769556890E+03  0.75924319336E+03  0.00000000000E+00 0.  1.
         12    1    5    5    0    0  0.49626475130E+01 -0.13601235706E+02  0.18507379601E+02  0.23497756973E+02  0.00000000000E+00 0. -1.
         11    1    3    3    0    0 -0.27812451879E+01 -0.18614852888E+02 -0.72485988597E+02  0.74889696326E+02  0.00000000000E+00 0. -1.
        -12    1    3    3    0    0  0.17518679566E+01  0.67805412675E+02 -0.85655400101E+02  0.10925882388E+03  0.00000000000E+00 0.  1.
          5    1    4    4  501    0  0.27921423200E+01 -0.60603676847E+02  0.26305425427E+02  0.66257448736E+02  0.41800000000E+01 0. -1.
         -5    1    4    4    0  501 -0.49616976415E+02  0.47552438097E+02 -0.74869608417E+01  0.69257531722E+02  0.41800000000E+01 0. -1.
</event>
<event>
11    1  0.8041700E-009  0.1534265E+03  0.7561462E-02  0.1093428E+00
         22   -1    0    0    0    0  0.00000000000E+00  0.00000000000E+00  0.12124084496E+04  0.12124084496E+04  0.00000000000E+00 0. -1.
         22   -1    0    0    0    0 -0.00000000000E+00 -0.00000000000E+00 -0.21525236571E+03  0.21525236571E+03  0.00000000000E+00 0.  1.
         24    2    1    2    0    0  0.21167140763E+02  0.70893299651E+02 -0.12580983408E+03  0.16659310807E+03  0.80319621024E+02 0.  0.
         25    2    1    2    0    0  0.68383006532E+02 -0.60064531189E+02  0.25258354104E+02  0.15674141867E+03  0.12508358959E+03 0.  0.
        -24    2    1    2    0    0 -0.89550147295E+02 -0.10828768462E+02  0.10977075638E+04  0.11043262886E+04  0.80238175190E+02 0.  0.
        -11    1    3    3    0    0  0.14638236159E+02  0.64534034758E+02 -0.13700988355E+03  0.15215330358E+03  0.00000000000E+00 0.  1.
         12    1    3    3    0    0  0.65289046042E+01  0.63592648931E+01  0.11200049475E+02  0.14439804485E+02  0.00000000000E+00 0. -1.
         13    1    5    5    0    0 -0.52022735409E+02 -0.14962465162E+02  0.96035471340E+03  0.96187910670E+03  0.00000000000E+00 0. -1.
        -14    1    5    5    0    0 -0.37527411886E+02  0.41336967008E+01  0.13735285045E+03  0.14244718186E+03  0.00000000000E+00 0.  1.
          5    1    4    4  501    0  0.64915900438E+02 -0.60414170833E+02 -0.35593412206E+02  0.95646795867E+02  0.41800000000E+01 0.  1.
         -5    1    4    4    0  501  0.34671060938E+01  0.34963964360E+00  0.60851766310E+02  0.61094622804E+02  0.41800000000E+01 0.  1.
</event>
<event>
11    1  0.8041700E-009  0.1470033E+03  0.7561462E-02  0.1099981E+00
         22   -1    0    0    0    0  0.00000000000E+00  0.00000000000E+00  0.64109051110E+03  0.64109051110E+03  0.00000000000E+00 0. -1.
         22   -1    0    0    0    0 -0.00000000000E+00 -0.00000000000E+00 -0.14254924603E+04  0.14254924603E+04  0.00000000000E+00 0. -1.
        -24    2    1    2    0    0  0.29574101978E+02 -0.43751368532E+02 -0.13817561913E+04  0.13854630771E+04  0.86423121805E+02 0.  0.
         25    2    1    2    0    0 -0.88481397236E+02  0.80813939452E+02  0.17691365530E+03  0.24760094393E+03  0.12509170851E+03 0.  0.
         24    2    1    2    0    0  0.58907295258E+02 -0.37062570919E+02  0.42044058680E+03  0.43351895038E+03  0.79527917822E+02 0.  0.
        -13    1    5    5    0    0  0.34618865480E+02 -0.59100431633E+02  0.22007937905E+03  0.23049134463E+03  0.00000000000E+00 0.  1.
         14    1    5    5    0    0  0.24288429778E+02  0.22037860714E+02  0.20036120775E+03  0.20302760575E+03  0.00000000000E+00 0. -1.
         13    1    3    3    0    0  0.43413506663E+02 -0.59066152346E+02 -0.12451789625E+04  0.12473348353E+04  0.00000000000E+00 0. -1.
        -14    1    3    3    0    0 -0.13839404685E+02  0.15314783814E+02 -0.13657722884E+03  0.13812824173E+03  0.00000000000E+00 0.  1.
          5    1    4    4  501    0 -0.80539387126E+01  0.55801132608E+02  0.14803443983E+03  0.15846229868E+03  0.41800000000E+01 0.  1.
         -5    1    4    4    0  501 -0.80427458524E+02  0.25012806844E+02  0.28879215478E+02  0.89138645252E+02  0.41800000000E+01 0.  1.
</event>
<event>
11    1  0.8041700E-009  0.1916975E+03  0.7561462E-02  0.1060555E+00
         22   -1    0    0    0    0  0.00000000000E+00  0.00000000000E+00  0.13345052657E+04  0.13345052657E+04  0.00000000000E+00 0. -1.
         22   -1    0    0    0    0 -0.00000000000E+00 -0.00000000000E+00 -0.15707583156E+03  0.15707583156E+03  0.00000000000E+00 0.  1.
         24    2    1    2    0    0 -0.78238763989E+02 -0.12410870876E+03 -0.88749065983E+02  0.18936565675E+03  0.80365909834E+02 0.  0.
         25    2    1    2    0    0  0.15278857636E+02  0.13962035802E+03  0.60691591071E+03  0.63539274210E+03  0.12509886558E+03 0.  0.
        -24    2    1    2    0    0  0.62959906353E+02 -0.15511649263E+02  0.65926258943E+03  0.66682269843E+03  0.76294090525E+02 0.  0.
        -13    1    3    3    0    0 -0.60938274067E+02 -0.13232483828E+03 -0.66894796669E+02  0.16030673689E+03  0.00000000000E+00 0.  1.
         14    1    3    3    0    0 -0.17300489922E+02  0.82161295238E+01 -0.21854269314E+02  0.29058919855E+02  0.00000000000E+00 0. -1.
         11    1    5    5    0    0  0.23162026263E+02 -0.24581720431E+02  0.53421658289E+03  0.53528319409E+03  0.00000000000E+00 0. -1.
        -12    1    5    5    0    0  0.39797880090E+02  0.90700711673E+01  0.12504600654E+03  0.13153950434E+03  0.00000000000E+00 0.  1.
          5    1    4    4  501    0 -0.17388565966E+02 -0.18452895526E+02  0.10723796878E+03  0.11027386784E+03  0.41800000000E+01 0.  1.
         -5    1    4    4    0  501  0.32667423603E+02  0.15807325355E+03  0.49967794194E+03  0.52511887426E+03  0.41800000000E+01 0.  1.
</event>
<event>
11    1  0.8041700E-009  0.2021327E+03  0.7561462E-02  0.1053026E+00
         22   -1    0    0    0    0  0.00000000000E+00  0.00000000000E+00  0.11188724650E+03  0.11188724650E+03  0.00000000000E+00 0.  1.
         22   -1    0    0    0    0 -0.00000000000E+00 -0.00000000000E+00 -0.24449987557E+04  0.24449987557E+04  0.00000000000E+00 0.  1.
        -24    2    1    2    0    0  0.13973802360E+03  0.63161514619E+02 -0.20144282953E+04  0.20225394069E+04  0.96063537647E+02 0.  0.
         25    2    1    2    0    0 -0.19729808826E+03 -0.73685156285E+02 -0.35175371949E+03  0.42864338157E+03  0.12509369087E+03 0.  0.
         24    2    1    2    0    0  0.57560064659E+02  0.10523641666E+02  0.33070505573E+02  0.10570321378E+03  0.81581879034E+02 0.  0.
        -13    1    5    5    0    0  0.48966741992E+02 -0.12749108876E+02  0.53446895060E+02  0.73599267591E+02  0.00000000000E+00 0.  1.
         14    1    5    5    0    0  0.85933226675E+01  0.23272750542E+02 -0.20376389487E+02  0.32103946187E+02  0.00000000000E+00 0. -1.
         11    1    3    3    0    0  0.13366974521E+03  0.43477963525E+02 -0.12576274543E+04  0.12654583153E+04  0.00000000000E+00 0. -1.
        -12    1    3    3    0    0  0.60682783871E+01  0.19683551094E+02 -0.75680084107E+03  0.75708109158E+03  0.00000000000E+00 0.  1.
          5    1    4    4  501    0 -0.41383890505E+01 -0.18028001930E+01 -0.11317424020E+03  0.11334133138E+03  0.41800000000E+01 0.  1.
         -5    1    4    4    0  501 -0.19315969921E+03 -0.71882356092E+02 -0.23857947929E+03  0.31530205019E+03  0.41800000000E+01 0.  1.
</event>
<event>
11    1  0.8041700E-009  0.1816641E+03  0.7561462E-02  0.1068305E+00
         22   -1    0    0    0    0  0.00000000000E+00  0.00000000000E+00  0.67944444579E+03  0.67944444579E+03  0.00000000000E+00 0.  1.
         22   -1    0    0    0    0 -0.00000000000E+00 -0.00000000000E+00 -0.54170296359E+03  0.54170296359E+03  0.00000000000E+00 0. -1.
         24    2    1    2    0    0 -0.74131903826E+02  0.11119272636E+03 -0.49940749134E+03  0.52211320550E+03  0.73041052793E+02 0.  0.
         25    2    1    2    0    0  0.71823763107E+02 -0.62255497759E+02  0.21386873775E+03  0.26536689214E+03  0.12508137554E+03 0.  0.
        -24    2    1    2    0    0  0.23081407189E+01 -0.48937228600E+02  0.42328023578E+03  0.43366731174E+03  0.80628775316E+02 0.  0.
        -11    1    3    3    0    0 -0.25761712894E+02 -0.36212938100E+00 -0.46415781073E+02  0.53086926089E+02  0.00000000000E+00 0.  1.
         12    1    3    3    0    0 -0.48370190933E+02  0.11155485574E+03 -0.45299171027E+03  0.46902627941E+03  0.00000000000E+00 0. -1.
         11    1    5    5    0    0  0.20907985500E+02 -0.14930937849E+02  0.34790600893E+02  0.43248845918E+02  0.00000000000E+00 0. -1.
        -12    1    5    5    0    0 -0.18599844781E+02 -0.34006290751E+02  0.38848963489E+03  0.39041846582E+03  0.00000000000E+00 0.  1.
          5    1    4    4  501    0  0.46429168396E+02 -0.44146283314E+02  0.22343470475E+03  0.23247602391E+03  0.41800000000E+01 0.  1.
         -5    1    4    4    0  501  0.25394594712E+02 -0.18109214444E+02 -0.95659669929E+01  0.32890868229E+02  0.41800000000E+01 0.  1.
</event>
<event>
11    1  0.8041700E-009  0.1504800E+03  0.7561462E-02  0.1096389E+00
         22   -1    0    0    0    0  0.00000000000E+00  0.00000000000E+00  0.11545659716E+03  0.11545659716E+03  0.00000000000E+00 0.  1.
         22   -1    0    0    0    0 -0.00000000000E+00 -0.00000000000E+00 -0.20191346321E+04  0.20191346321E+04  0.00000000000E+00 0. -1.
         24    2    1    2    0    0  0.67377266865E+02 -0.45164165512E+02 -0.16994522580E+04  0.17032356898E+04  0.79336875974E+02 0.  0.
         25    2    1    2    0    0 -0.12261713062E+03  0.31936602250E+02 -0.26184132175E+03  0.31664412251E+03  0.12509082805E+03 0.  0.
        -24    2    1    2    0    0  0.55239863756E+02  0.13227563262E+02  0.57615544751E+02  0.11471141699E+03  0.81318799878E+02 0.  0.
        -11    1    3    3    0    0 -0.15986181418E+02 -0.52823126796E+01 -0.47627116939E+03  0.47656865992E+03  0.00000000000E+00 0.  1.
         12    1    3    3    0    0  0.83363448283E+02 -0.39881852832E+02 -0.12231810886E+04  0.12266670299E+04  0.00000000000E+00 0. -1.
         13    1    5    5    0    0  0.64686921667E+02 -0.28869371984E+01  0.12588690287E+02  0.65963682161E+02  0.00000000000E+00 0. -1.
        -14    1    5    5    0    0 -0.94470579101E+01  0.16114500460E+02  0.45026854464E+02  0.48747734831E+02  0.00000000000E+00 0.  1.
          5    1    4    4  501    0 -0.22490851998E+02 -0.34222062057E+01  0.96749161043E+01  0.25072421513E+02  0.41800000000E+01 0. -1.
         -5    1    4    4    0  501 -0.10012627862E+03  0.35358808456E+02 -0.27151623785E+03  0.29157170100E+03  0.41800000000E+01 0. -1.
</event>
<event>
11    1  0.8041700E-009  0.1735467E+03  0.7561462E-02  0.1074986E+00
         22   -1    0    0    0    0  0.00000000000E+00  0.00000000000E+00  0.63212972008E+03  0.63212972008E+03  0.00000000000E+00 0. -1.
         22   -1    0    0    0    0 -0.00000000000E+00 -0.00000000000E+00 -0.22485413492E+04  0.22485413492E+04  0.00000000000E+00 0. -1.
         24    2    1    2    0    0 -0.80158379749E+02 -0.37763407268E+02 -0.18915113543E+04  0.18956826208E+04  0.89140085574E+02 0.  0.
         25    2    1    2    0    0  0.18656639999E+03 -0.15366067652E+02 -0.30963480907E+03  0.38283821525E+03  0.12509295113E+03 0.  0.
        -24    2    1    2    0    0 -0.10640802024E+03  0.53129474920E+02  0.58473453420E+03  0.60215023321E+03  0.80777595880E+02 0.  0.
        -13    1    3    3    0    0 -0.74133736915E+02 -0.45495930263E+02 -0.91565198953E+03  0.91977402472E+03  0.00000000000E+00 0.  1.
         14    1    3    3    0    0 -0.60246428340E+01  0.77325229950E+01 -0.97585936475E+03  0.97590859613E+03  0.00000000000E+00 0. -1.
         13    1    5    5    0    0 -0.13543370333E+02  0.21158427784E+02  0.29809193428E+03  0.29914863066E+03  0.00000000000E+00 0. -1.
        -14    1    5    5    0    0 -0.92864649912E+02  0.31971047136E+02  0.28664259992E+03  0.30300160255E+03  0.00000000000E+00 0.  1.
          5    1    4    4  501    0  0.30827470444E+02  0.43780963993E+02 -0.11280502764E+03  0.12493819433E+03  0.41800000000E+01 0. -1.
         -5    1    4    4    0  501  0.15573892955E+03 -0.59147031644E+02 -0.19682978143E+03  0.25790002092E+03  0.41800000000E+01 0. -1.
</event>
<event>
11    1  0.8041700E-009  0.1618354E+03  0.7561462E-02  0.1085364E+00
         22   -1    0    0    0    0  0.00000000000E+00  0.00000000000E+00  0.80298016527E+03  0.80298016527E+03  0.00000000000E+00 0. -1.
         22   -1    0    0    0    0 -0.00000000000E+00 -0.00000000000E+00 -0.24001967525E+03  0.24001967525E+03  0.00000000000E+00 0.  1.
         24    2    1    2    0    0  0.78961610802E+02 -0.69346354878E+02 -0.18713605486E+03  0.22887972833E+03  0.79512100318E+02 0.  0.
         25    2    1    2    0    0 -0.87610907342E+02  0.17599357409E+02  0.18305032378E+03  0.23904049665E+03  0.12509008568E+03 0.  0.
        -24    2    1    2    0    0  0.86492965399E+01  0.51746997469E+02  0.56704622110E+03  0.57507961554E+03  0.80141033596E+02 0.  0.
        -13    1    3    3    0    0  0.30016669011E+01 -0.43339731248E+02 -0.10681438207E+03  0.11531112057E+03  0.00000000000E+00 0.  1.
         14    1    3    3    0    0  0.75959943901E+02 -0.26006623631E+02 -0.80321672785E+02  0.11356860776E+03  0.00000000000E+00 0. -1.
         13    1    5    5    0    0 -0.22942621846E+01 -0.21241462374E+02  0.15658916477E+03  0.15803996294E+03  0.00000000000E+00 0. -1.
        -14    1    5    5    0    0  0.10943558725E+02  0.72988459843E+02  0.41045705633E+03  0.41703965260E+03  0.00000000000E+00 0.  1.
          5    1    4    4  501    0 -0.85631632375E+02 -0.33443389758E+02  0.15591741515E+03  0.18104957754E+03  0.41800000000E+01 0. -1.
         -5    1    4    4    0  501 -0.19792749672E+01  0.51042747167E+02  0.27132908634E+02  0.57990919105E+02  0.41800000000E+01 0. -1.
</event>
<event>
11    1  0.8041700E-009  0.1375624E+03  0.7561462E-02  0.1110311E+00
         22   -1    0    0    0    0  0.00000000000E+00  0.00000000000E+00  0.30807255426E+04  0.30807255426E+04  0.00000000000E+00 0. -1.
         22   -1    0    0    0    0 -0.00000000000E+00 -0.00000000000E+00 -0.44245318293E+02  0.44245318293E+02  0.00000000000E+00 0. -1.
        -24    2    1    2    0    0 -0.52460994506E+01 -0.22005323609E+02  0.79854042144E+02  0.11641019695E+03  0.81626650547E+02 0.  0.
         25    2    1    2    0    0 -0.46767000063E+02 -0.29485960820E+01  0.15229566386E+03  0.20257595652E+03  0.12508877814E+03 0.  0.
         24    2    1    2    0    0  0.52013099513E+02  0.24953919691E+02  0.28043305183E+04  0.28059847074E+04  0.77152198841E+02 0.  0.
        -13    1    5    5    0    0  0.13927715915E+02  0.15468573435E+02  0.15823974013E+03  0.15960286148E+03  0.00000000000E+00 0.  1.
         14    1    5    5    0    0  0.38085383598E+02  0.94853462561E+01  0.26460907781E+04  0.26463818459E+04  0.00000000000E+00 0. -1.
         11    1    3    3    0    0  0.21772115076E+02 -0.57717364140E+00 -0.70678055441E+01  0.22897860151E+02  0.00000000000E+00 0. -1.
        -12    1    3    3    0    0 -0.27018214526E+02 -0.21428149968E+02  0.86921847689E+02  0.93512336795E+02  0.00000000000E+00 0.  1.
          5    1    4    4  501    0 -0.67106238793E+02 -0.44907988558E+02  0.12349859469E+03  0.14761216078E+03  0.41800000000E+01 0.  1.
         -5    1    4    4    0  501  0.20339238730E+02  0.41959392476E+02  0.28797069169E+02  0.54963795737E+02  0.41800000000E+01 0.  1.
</event>
<event>
11    1  0.8041700E-009  0.1324442E+03  0.7561462E-02  0.1116302E+00
         22   -1    0    0    0    0  0.00000000000E+00  0.00000000000E+00  0.83376128375E+02  0.83376128375E+02  0.00000000000E+00 0. -1.
         22   -1    0    0    0    0 -0.00000000000E+00 -0.00000000000E+00 -0.66434009875E+03  0.66434009875E+03  0.00000000000E+00 0. -1.
        -24    2    1    2    0    0 -0.62501592615E+01  0.38050292904E+02 -0.45834696873E+03  0.46684979575E+03  0.79874268471E+02 0.  0.
         25    2    1    2    0    0 -0.73343219194E+01  0.11458580315E+02 -0.13597862655E+03  0.18526168974E+03  0.12508643199E+03 0.  0.
         24    2    1    2    0    0  0.13584481181E+02 -0.49508873219E+02  0.13361624918E+02  0.95604741625E+02  0.79536576142E+02 0.  0.
        -13    1    5    5    0    0  0.40783163715E+02 -0.54081221847E+01  0.14935255956E+02  0.43767294851E+02  0.00000000000E+00 0.  1.
         14    1    5    5    0    0 -0.27198682534E+02 -0.44100751034E+02 -0.15736310377E+01  0.51837446773E+02  0.00000000000E+00 0. -1.
         11    1    3    3    0    0 -0.90405531234E+01  0.61395535757E+02 -0.38058095496E+03  0.38560732189E+03  0.00000000000E+00 0. -1.
        -12    1    3    3    0    0  0.27903938619E+01 -0.23345242853E+02 -0.77766013772E+02  0.81242473866E+02  0.00000000000E+00 0.  1.
          5    1    4    4  501    0  0.65042293082E+01  0.58695114385E+02 -0.25924954163E+02  0.64629692092E+02  0.41800000000E+01 0.  1.
         -5    1    4    4    0  501 -0.13838551228E+02 -0.47236534070E+02 -0.11005367239E+03  0.12063199765E+03  0.41800000000E+01 0.  1.
</event>
<event>
11    1  0.8041700E-009  0.1516460E+03  0.7561462E-02  0.1095209E+00
         22   -1    0    0    0    0  0.00000000000E+00  0.00000000000E+00  0.30817635209E+04  0.30817635209E+04  0.00000000000E+00 0.  1.
         22   -1    0    0    0    0 -0.00000000000E+00 -0.00000000000E+00 -0.72374411454E+02  0.72374411454E+02  0.00000000000E+00 0.  1.
         24    2    1    2    0    0 -0.80369771000E+02  0.26956643448E+02 -0.83070996652E+01  0.11778835839E+03  0.81358028191E+02 0.  0.
         25    2    1    2    0    0  0.99609104198E+02 -0.13361046536E+02  0.74284884784E+03  0.75998201688E+03  0.12509102300E+03 0.  0.
        -24    2    1    2    0    0 -0.19239333198E+02 -0.13595596912E+02  0.22748473613E+04  0.22763675571E+04  0.79773088664E+02 0.  0.
        -11    1    3    3    0    0 -0.90231440640E+02  0.20266051149E+01 -0.21453222864E+01  0.90279689942E+02  0.00000000000E+00 0.  1.
         12    1    3    3    0    0  0.98616696404E+01  0.24930038333E+02 -0.61617773788E+01  0.27508668449E+02  0.00000000000E+00 0. -1.
         11    1    5    5    0    0  0.28425756828E+02 -0.13483827256E+02  0.58245012578E+03  0.58329922533E+03  0.00000000000E+00 0. -1.
        -12    1    5    5    0    0 -0.47665090026E+02 -0.11176965630E+00  0.16923972355E+04  0.16930683318E+04  0.00000000000E+00 0.  1.
          5    1    4    4  501    0  0.89141318896E+02 -0.46436775800E+02  0.31420836281E+03  0.32991956071E+03  0.41800000000E+01 0.  1.
         -5    1    4    4    0  501  0.10467785302E+02  0.33075729265E+02  0.42864048503E+03  0.43006245616E+03  0.41800000000E+01 0.  1.
</event>
<event>
11    1  0.8041700E-009  0.1577799E+03  0.7561462E-02  0.1089184E+00
         22   -1    0    0    0    0  0.00000000000E+00  0.00000000000E+00  0.11522018970E+04  0.11522018970E+04  0.00000000000E+00 0.  1.
         22   -1    0    0    0    0 -0.00000000000E+00 -0.00000000000E+00 -0.11164798517E+03  0.11164798517E+03  0.00000000000E+00 0. -1.
        -24    2    1    2    0    0 -0.20932443258E+02  0.82939248256E+01 -0.50651470947E+02  0.98479351095E+02  0.81398124752E+02 0.  0.
         25    2    1    2    0    0  0.28956986131E+01  0.87515168125E+02  0.14426581334E+03  0.21006585324E+03  0.12509095921E+03 0.  0.
         24    2    1    2    0    0  0.18036744645E+02 -0.95809092951E+02  0.94693956942E+03  0.95530467781E+03  0.80048565669E+02 0.  0.
        -13    1    5    5    0    0  0.20242002768E+02 -0.10499820748E+03  0.92797954106E+03  0.93412011587E+03  0.00000000000E+00 0.  1.
         14    1    5    5    0    0 -0.22052581236E+01  0.91891145261E+01  0.18960028355E+02  0.21184561935E+02  0.00000000000E+00 0. -1.
         11    1    3    3    0    0 -0.28435726466E+02 -0.18037616266E+02  0.72365077702E+01  0.34442897452E+02  0.00000000000E+00 0. -1.
        -12    1    3    3    0    0  0.75032832086E+01  0.26331541091E+02 -0.57887978717E+02  0.64036453642E+02  0.00000000000E+00 0.  1.
          5    1    4    4  501    0  0.55125524178E+02  0.11426317257E+02  0.78382321700E+02  0.96595263326E+02  0.41800000000E+01 0.  1.
         -5    1    4    4    0  501 -0.52229825565E+02  0.76088850868E+02  0.65883491640E+02  0.11347058991E+03  0.41800000000E+01 0.  1.
</event>
<event>
11    1  0.8041700E-009  0.1360546E+03  0.7561462E-02  0.1112046E+00
         22   -1    0    0    0    0  0.00000000000E+00  0.00000000000E+00  0.64899963712E+03  0.64899963712E+03  0.00000000000E+00 0. -1.
         22   -1    0    0    0    0 -0.00000000000E+00 -0.00000000000E+00 -0.33039271577E+03  0.33039271577E+03  0.00000000000E+00 0. -1.
         24    2    1    2    0    0  0.36627977435E+02  0.16281931948E+02 -0.26509372600E+03  0.27847838335E+03  0.75291542592E+02 0.  0.
         25    2    1    2    0    0 -0.82842683072E+02 -0.37013698663E+02  0.55273642459E+02  0.16411974200E+03  0.12508872906E+03 0.  0.
        -24    2    1    2    0    0  0.46214705637E+02  0.20731766715E+02  0.52842700489E+03  0.53679422755E+03  0.79670183003E+02 0.  0.
        -13    1    3    3    0    0  0.55542953061E+02  0.12495999693E+02 -0.12873213024E+03  0.14075912403E+03  0.00000000000E+00 0.  1.
         14    1    3    3    0    0 -0.18914975626E+02  0.37859322556E+01 -0.13636159577E+03  0.13771925931E+03  0.00000000000E+00 0. -1.
         11    1    5    5    0    0  0.49645177914E+02  0.46452100072E+02  0.35728664905E+03  0.36369793906E+03  0.00000000000E+00 0. -1.
        -12    1    5    5    0    0 -0.34304722780E+01 -0.25720333357E+02  0.17114035584E+03  0.17309628848E+03  0.00000000000E+00 0.  1.
          5    1    4    4  501    0 -0.25640186717E+02  0.21625212285E+02 -0.30435766877E+02  0.45484912736E+02  0.41800000000E+01 0.  1.
         -5    1    4    4    0  501 -0.57202496355E+02 -0.58638910949E+02  0.85709409336E+02  0.11863482927E+03  0.41800000000E+01 0.  1.
</event>
<event>
11    1  0.8041700E-009  0.1545591E+03  0.7561462E-02  0.1092309E+00
         22   -1    0    0    0    0  0.00000000000E+00  0.00000000000E+00  0.63415747142E+03  0.63415747142E+03  0.00000000000E+00 0.  1.
         22   -1    0    0    0    0 -0.00000000000E+00 -0.00000000000E+00 -0.74237847265E+03  0.74237847265E+03  0.00000000000E+00 0.  1.
         24    2    1    2    0    0  0.82651963627E+02 -0.15176401208E+02 -0.43401173030E+03  0.44896991512E+03  0.78397272896E+02 0.  0.
         25    2    1    2    0    0 -0.11333859515E+03  0.24985079975E+01 -0.27388801280E+03  0.32173650476E+03  0.12509138758E+03 0.  0.
        -24    2    1    2    0    0  0.30686631520E+02  0.12677893211E+02  0.59967874187E+03  0.60582952420E+03  0.79450743371E+02 0.  0.
        -13    1    3    3    0    0  0.84821826742E+02  0.13374397388E+02 -0.34135766158E+03  0.35199242878E+03  0.00000000000E+00 0.  1.
         14    1    3    3    0    0 -0.21698631150E+01 -0.28550798596E+02 -0.92654068719E+02  0.96977486339E+02  0.00000000000E+00 0. -1.
         11    1    5    5    0    0 -0.65582504046E+01  0.30767824740E+02  0.11019346878E+03  0.11459611795E+03  0.00000000000E+00 0. -1.
        -12    1    5    5    0    0  0.37244881924E+02 -0.18089931529E+02  0.48948527308E+03  0.49123340625E+03  0.00000000000E+00 0.  1.
          5    1    4    4  501    0 -0.12765413550E+03  0.33903334160E+02 -0.19534949719E+03  0.23584722349E+03  0.41800000000E+01 0.  1.
         -5    1    4    4    0  501  0.14315540353E+02 -0.31404826163E+02 -0.78538515610E+02  0.85889281265E+02  0.41800000000E+01 0.  1.
</event>
<event>
11    1  0.8041700E-009  0.1305185E+03  0.7561462E-02  0.1118634E+00
         22   -1    0    0    0    0  0.00000000000E+00  0.00000000000E+00  0.80931306114E+03  0.80931306114E+03  0.00000000000E+00 0. -1.
         22   -1    0    0    0    0 -0.00000000000E+00 -0.00000000000E+00 -0.25149629590E+03  0.25149629590E+03  0.00000000000E+00 0. -1.
        -24    2    1    2    0    0  0.17854693319E+01  0.35890955761E+02 -0.18068787121E+03  0.20093222444E+03  0.80214109805E+02 0.  0.
         25    2    1    2    0    0  0.85501011999E+00 -0.47248562344E+02  0.18130414081E+02  0.13494297846E+03  0.12509091827E+03 0.  0.
         24    2    1    2    0    0 -0.26404794519E+01  0.11357606583E+02  0.72037422237E+03  0.72493415414E+03  0.80340153257E+02 0.  0.
        -13    1    5    5    0    0 -0.50504245745E+01  0.26211947726E+01  0.13438308115E+01  0.58466513209E+01  0.00000000000E+00 0.  1.
         14    1    5    5    0    0  0.24099451226E+01  0.87364118105E+01  0.71903039156E+03  0.71908750282E+03  0.00000000000E+00 0. -1.
         11    1    3    3    0    0 -0.16944800187E+02  0.51916627943E+02 -0.77294237472E+02  0.94640697677E+02  0.00000000000E+00 0. -1.
        -12    1    3    3    0    0  0.18730269519E+02 -0.16025672183E+02 -0.10339363373E+03  0.10629152676E+03  0.00000000000E+00 0.  1.
          5    1    4    4  501    0  0.82501779403E+01  0.67334145476E+01  0.63126984373E+02  0.64155224756E+02  0.41800000000E+01 0.  1.
         -5    1    4    4    0  501 -0.73951678203E+01 -0.53981976892E+02 -0.44996570292E+02  0.70787753702E+02  0.41800000000E+01 0.  1.
</event>
<event>
11    1  0.8041700E-009  0.1359570E+03  0.7561462E-02  0.1112159E+00
         22   -1    0    0    0    0  0.00000000000E+00  0.00000000000E+00  0.40727169954E+02  0.40727169954E+02  0.00000000000E+00 0.  1.
         22   -1    0    0    0    0 -0.00000000000E+00 -0.00000000000E+00 -0.32785717142E+04  0.32785717142E+04  0.00000000000E+00 0.  1.
        -24    2    1    2    0    0 -0.56375155838E+01 -0.54331072108E+02 -0.28873535861E+04  0.28889534003E+04  0.79103545192E+02 0.  0.
         25    2    1    2    0    0 -0.32506595267E+02  0.31607748650E+02 -0.29075266599E+03  0.31974945215E+03  0.12508745284E+03 0.  0.
         24    2    1    2    0    0  0.38144110851E+02  0.22723323458E+02 -0.59738292111E+02  0.11059603168E+03  0.81801565126E+02 0.  0.
        -11    1    5    5    0    0 -0.76095406068E+01 -0.17285915423E+02  0.71712281045E+01  0.20202338795E+02  0.00000000000E+00 0.  1.
         12    1    5    5    0    0  0.45753651458E+02  0.40009238882E+02 -0.66909520215E+02  0.90393692883E+02  0.00000000000E+00 0. -1.
         13    1    3    3    0    0 -0.42416390712E+02 -0.29605457598E+02 -0.14938766927E+04  0.14947719580E+04  0.00000000000E+00 0. -1.
        -14    1    3    3    0    0  0.36778875128E+02 -0.24725614511E+02 -0.13934768934E+04  0.13941814423E+04  0.00000000000E+00 0.  1.
          5    1    4    4  501    0  0.28243483884E+02  0.23034483807E+02 -0.19365152933E+02  0.41482084980E+02  0.41800000000E+01 0. -1.
         -5    1    4    4    0  501 -0.60750079151E+02  0.85732648432E+01 -0.27138751306E+03  0.27826736717E+03  0.41800000000E+01 0. -1.
</event>
<event>
11    1  0.8041700E-009  0.1425893E+03  0.7561462E-02  0.1104701E+00
         22   -1    0    0    0    0  0.00000000000E+00  0.00000000000E+00  0.47468541201E+02  0.47468541201E+02  0.00000000000E+00 0.  1.
         22   -1    0    0    0    0 -0.00000000000E+00 -0.00000000000E+00 -0.32574932033E+04  0.32574932033E+04  0.00000000000E+00 0.  1.
        -24    2    1    2    0    0 -0.66090911411E+02 -0.19345159247E+02 -0.28974768322E+04  0.28994149108E+04  0.80576596778E+02 0.  0.
         25    2    1    2    0    0  0.45628402959E+02  0.56716120150E+02 -0.26701226896E+03  0.30371409101E+03  0.12509207753E+03 0.  0.
         24    2    1    2    0    0  0.20462508452E+02 -0.37370960902E+02 -0.45535560941E+02  0.10183274272E+03  0.80505386208E+02 0.  0.
        -11    1    5    5    0    0  0.29288465530E+02 -0.35359096185E+02  0.87989215567E+01  0.46749341350E+02  0.00000000000E+00 0.  1.
         12    1    5    5    0    0 -0.88259570782E+01 -0.20118647171E+01 -0.54334482498E+02  0.55083401368E+02  0.00000000000E+00 0. -1.
         11    1    3    3    0    0 -0.17356628816E+02  0.53928158469E+01 -0.11719590052E+03  0.11859685546E+03  0.00000000000E+00 0. -1.
        -12    1    3    3    0    0 -0.48734282595E+02 -0.24737975094E+02 -0.27802809317E+04  0.27808180553E+04  0.00000000000E+00 0.  1.
          5    1    4    4  501    0  0.23596407833E+02 -0.94364796770E+01 -0.21522441511E+03  0.21675991067E+03  0.41800000000E+01 0.  1.
         -5    1    4    4    0  501  0.22031995126E+02  0.66152599827E+02 -0.51787853852E+02  0.86954180346E+02  0.41800000000E+01 0.  1.
</event>
<event>
11    1  0.8041700E-009  0.1495782E+03  0.7561462E-02  0.1097311E+00
         22   -1    0    0    0    0  0.00000000000E+00  0.00000000000E+00  0.79294861110E+03  0.79294861110E+03  0.00000000000E+00 0.  1.
         22   -1    0    0    0    0 -0.00000000000E+00 -0.00000000000E+00 -0.86424780723E+02  0.86424780723E+02  0.00000000000E+00 0.  1.
         24    2    1    2    0    0 -0.14141446479E+02 -0.97006630236E+02  0.14395418826E+02  0.12885828810E+03  0.82383029255E+02 0.  0.
         25    2    1    2    0    0  0.17839749425E+02  0.39689995691E+02  0.15377642762E+03  0.20295190290E+03  0.12509489511E+03 0.  0.
        -24    2    1    2    0    0 -0.36983029454E+01  0.57316634545E+02  0.53835198394E+03  0.54756320083E+03  0.81876286268E+02 0.  0.
        -11    1    3    3    0    0 -0.83505725326E+01 -0.41243440073E+02 -0.34541396304E+02  0.54441358077E+02  0.00000000000E+00 0.  1.
         12    1    3    3    0    0 -0.57908739466E+01 -0.55763190163E+02  0.48936815130E+02  0.74416930018E+02  0.00000000000E+00 0. -1.
         11    1    5    5    0    0 -0.75653119180E+01  0.51486762044E+01  0.29544623428E+01  0.96162185296E+01  0.00000000000E+00 0. -1.
        -12    1    5    5    0    0  0.38670089726E+01  0.52167958341E+02  0.53539752159E+03  0.53794698230E+03  0.00000000000E+00 0.  1.
          5    1    4    4  501    0 -0.87969475879E+00 -0.58209636715E+01 -0.20541144709E+02  0.21773114313E+02  0.41800000000E+01 0. -1.
         -5    1    4    4    0  501  0.18719444183E+02  0.45510959363E+02  0.17431757233E+03  0.18117878859E+03  0.41800000000E+01 0. -1.
</event>
<event>
11    1  0.8041700E-009  0.1411204E+03  0.7561462E-02  0.1106314E+00
         22   -1    0    0    0    0  0.00000000000E+00  0.00000000000E+00  0.32559910358E+04  0.32559910358E+04  0.00000000000E+00 0.  1.
         22   -1    0    0    0    0 -0.00000000000E+00 -0.00000000000E+00 -0.86734732516E+02  0.86734732516E+02  0.00000000000E+00 0.  1.
        -24    2    1    2    0    0 -0.29229338010E+02  0.37777730534E+02 -0.45781345160E+02  0.10490738075E+03  0.81413241229E+02 0.  0.
         25    2    1    2    0    0  0.22318681186E+02 -0.99085356084E+02  0.62530892706E+03  0.64573570379E+03  0.12508922245E+03 0.  0.
         24    2    1    2    0    0  0.69106568234E+01  0.61307625550E+02  0.25897287213E+04  0.25920826837E+04  0.91604623236E+02 0.  0.
        -13    1    5    5    0    0 -0.10345285420E+01  0.20747417137E+02  0.22123273238E+04  0.22124248492E+04  0.00000000000E+00 0.  1.
         14    1    5    5    0    0  0.79451853654E+01  0.40560208413E+02  0.37740139750E+03  0.37965783452E+03  0.00000000000E+00 0. -1.
         11    1    3    3    0    0  0.58888262535E+01  0.42695437984E+02  0.45494229418E+01  0.43339081075E+02  0.00000000000E+00 0. -1.
        -12    1    3    3    0    0 -0.35118164263E+02 -0.49177074502E+01 -0.50330768102E+02  0.61568299680E+02  0.00000000000E+00 0.  1.
          5    1    4    4  501    0 -0.13732723677E+02 -0.24195871621E+02  0.45808896612E+03  0.45895206850E+03  0.41800000000E+01 0.  1.
         -5    1    4    4    0  501  0.36051404863E+02 -0.74889484463E+02  0.16721996094E+03  0.18678363529E+03  0.41800000000E+01 0.  1.
</event>
<event>
11    1  0.8041700E-009  0.1326282E+03  0.7561462E-02  0.1116081E+00
         22   -1    0    0    0    0  0.00000000000E+00  0.00000000000E+00  0.30573154723E+02  0.30573154723E+02  0.00000000000E+00 0. -1.
         22   -1    0    0    0    0 -0.00000000000E+00 -0.00000000000E+00 -0.18172862740E+04  0.18172862740E+04  0.00000000000E+00 0.  1.
         24    2    1    2    0    0  0.34213968102E+02  0.24853145048E+02 -0.11431528191E+04  0.11468801161E+04  0.82142305893E+02 0.  0.
         25    2    1    2    0    0 -0.17693674133E+02 -0.59058673427E+02 -0.56404141362E+03  0.58103050707E+03  0.12511091425E+03 0.  0.
        -24    2    1    2    0    0 -0.16520293969E+02  0.34205528378E+02 -0.79518886526E+02  0.11994880553E+03  0.81372749431E+02 0.  0.
        -13    1    3    3    0    0  0.36228007138E+02 -0.86806875287E+01 -0.95669942474E+03  0.95742446811E+03  0.00000000000E+00 0.  1.
         14    1    3    3    0    0 -0.20140390362E+01  0.33533832577E+02 -0.18645339437E+03  0.18945564798E+03  0.00000000000E+00 0. -1.
         11    1    5    5    0    0 -0.50847653026E+01  0.46544086987E+02 -0.92908342615E+01  0.47733913237E+02  0.00000000000E+00 0. -1.
        -12    1    5    5    0    0 -0.11435528666E+02 -0.12338558609E+02 -0.70228052264E+02  0.72214892296E+02  0.00000000000E+00 0.  1.
          5    1    4    4  501    0 -0.56969868183E+02 -0.98653412834E+01 -0.12884083311E+03  0.14128100905E+03  0.41800000000E+01 0.  1.
         -5    1    4    4    0  501  0.39276194050E+02 -0.49193332143E+02 -0.43520058050E+03  0.43974949803E+03  0.41800000000E+01 0.  1.
</event>
<event>
11    1  0.8041700E-009  0.1358540E+03  0.7561462E-02  0.1112278E+00
         22   -1    0    0    0    0  0.00000000000E+00  0.00000000000E+00  0.81878745791E+03  0.81878745791E+03  0.00000000000E+00 0. -1.
         22   -1    0    0    0    0 -0.00000000000E+00 -0.00000000000E+00 -0.44119699622E+03  0.44119699622E+03  0.00000000000E+00 0. -1.
         24    2    1    2    0    0 -0.12848040902E+02  0.23761951704E+02 -0.37097768412E+03  0.38084247344E+03  0.81773131012E+02 0.  0.
         25    2    1    2    0    0 -0.27963447381E+02 -0.57169129015E+02  0.17040288371E+02  0.14137862092E+03  0.12508908555E+03 0.  0.
        -24    2    1    2    0    0  0.40811488283E+02  0.33407177311E+02  0.73152785743E+03  0.73776335977E+03  0.79875852115E+02 0.  0.
        -11    1    3    3    0    0  0.13747199392E+01  0.50104013181E+02 -0.15769462792E+03  0.16546872111E+03  0.00000000000E+00 0.  1.
         12    1    3    3    0    0 -0.14222760841E+02 -0.26342061477E+02 -0.21328305620E+03  0.21537375233E+03  0.00000000000E+00 0. -1.
         11    1    5    5    0    0  0.30121139401E+02 -0.22934982781E+02  0.32895292565E+03  0.33112433279E+03  0.00000000000E+00 0. -1.
        -12    1    5    5    0    0  0.10690348882E+02  0.56342160091E+02  0.40257493179E+03  0.40663902698E+03  0.00000000000E+00 0.  1.
          5    1    4    4  501    0 -0.14935454764E+01 -0.89028316153E+02  0.35358666065E+02  0.95895669459E+02  0.41800000000E+01 0. -1.
         -5    1    4    4    0  501 -0.26469901905E+02  0.31859187138E+02 -0.18318377694E+02  0.45482951458E+02  0.41800000000E+01 0. -1.
</event>
<event>
11    1  0.8041700E-009  0.1377048E+03  0.7561462E-02  0.1110149E+00
         22   -1    0    0    0    0  0.00000000000E+00  0.00000000000E+00  0.85909994348E+03  0.85909994348E+03  0.00000000000E+00 0. -1.
         22   -1    0    0    0    0 -0.00000000000E+00 -0.00000000000E+00 -0.81709513337E+02  0.81709513337E+02  0.00000000000E+00 0.  1.
        -24    2    1    2    0    0 -0.28109914004E+02  0.51941843224E+02 -0.19208999298E+02  0.10017717698E+03  0.78602536793E+02 0.  0.
         25    2    1    2    0    0  0.47278143975E+02 -0.28392923180E+02  0.23097159321E+03  0.26839664298E+03  0.12508996804E+03 0.  0.
         24    2    1    2    0    0 -0.19168229972E+02 -0.23548920043E+02  0.56562783623E+03  0.57223563686E+03  0.81220701222E+02 0.  0.
        -11    1    5    5    0    0 -0.71443496206E+01 -0.13452988383E+02  0.14980296953E+02  0.21364314282E+02  0.00000000000E+00 0.  1.
         12    1    5    5    0    0 -0.12023880351E+02 -0.10095931660E+02  0.55064753927E+03  0.55087132258E+03  0.00000000000E+00 0. -1.
         13    1    3    3    0    0 -0.17281015394E+02  0.51326907208E+02  0.21333959615E+02  0.58208442081E+02  0.00000000000E+00 0. -1.
        -14    1    3    3    0    0 -0.10828898610E+02  0.61493601555E+00 -0.40542958913E+02  0.41968734897E+02  0.00000000000E+00 0.  1.
          5    1    4    4  501    0 -0.89246864646E+01  0.43678413935E+02  0.86265673764E+02  0.97194098290E+02  0.41800000000E+01 0. -1.
         -5    1    4    4    0  501  0.56202830440E+02 -0.72071337115E+02  0.14470591945E+03  0.17120254469E+03  0.41800000000E+01 0. -1.
</event>
<event>
11    1  0.8041700E-009  0.1371503E+03  0.7561462E-02  0.1110783E+00
         22   -1    0    0    0    0  0.00000000000E+00  0.00000000000E+00  0.27300283255E+03  0.27300283255E+03  0.00000000000E+00 0.  1.
         22   -1    0    0    0    0 -0.00000000000E+00 -0.00000000000E+00 -0.66813912312E+03  0.66813912312E+03  0.00000000000E+00 0.  1.
        -24    2    1    2    0    0  0.19938457365E+02  0.32831296063E+02 -0.54737934633E+03  0.55386882763E+03  0.75306662086E+02 0.  0.
         25    2    1    2    0    0 -0.21517357036E+02 -0.85985896751E+02 -0.51852082201E+02  0.16184183080E+03  0.12509024212E+03 0.  0.
         24    2    1    2    0    0  0.15788996705E+01  0.53154600688E+02  0.20409513796E+03  0.22543129723E+03  0.79602386473E+02 0.  0.
        -13    1    5    5    0    0  0.32130507797E+02  0.44213152208E+02  0.77098925471E+02  0.94506172646E+02  0.00000000000E+00 0.  1.
         14    1    5    5    0    0 -0.30551608126E+02  0.89414484805E+01  0.12699621249E+03  0.13092512459E+03  0.00000000000E+00 0. -1.
         13    1    3    3    0    0  0.46523331827E+02  0.16777473057E+02 -0.41283337544E+03  0.41578516073E+03  0.00000000000E+00 0. -1.
        -14    1    3    3    0    0 -0.26584874462E+02  0.16053823006E+02 -0.13454597089E+03  0.13808366690E+03  0.00000000000E+00 0.  1.
          5    1    4    4  501    0 -0.69238202142E+02 -0.73135150389E+02 -0.49224738333E+02  0.11217497993E+03  0.41800000000E+01 0. -1.
         -5    1    4    4    0  501  0.47720845106E+02 -0.12850746363E+02 -0.26273438680E+01  0.49666850872E+02  0.41800000000E+01 0. -1.
</event>
<event>
11    1  0.8041700E-009  0.2876205E+03  0.7561462E-02  0.1005571E+00
         22   -1    0    0    0    0  0.00000000000E+00  0.00000000000E+00  0.16889414455E+03  0.16889414455E+03  0.00000000000E+00 0. -1.
         22   -1    0    0    0    0 -0.00000000000E+00 -0.00000000000E+00 -0.18115229058E+04  0.18115229058E+04  0.00000000000E+00 0. -1.
        -24    2    1    2    0    0  0.51746387956E+02  0.60996971611E+01 -0.73475632945E+03  0.74096233998E+03  0.80270982498E+02 0.  0.
         25    2    1    2    0    0 -0.18358022728E+02 -0.26293190149E+03 -0.92272310581E+03  0.96774780315E+03  0.12509068187E+03 0.  0.
         24    2    1    2    0    0 -0.33388365228E+02  0.25683220432E+03  0.14850674063E+02  0.27170690717E+03  0.80786983947E+02 0.  0.
        -13    1    5    5    0    0 -0.16886213467E+02  0.37054565330E+02 -0.24934498876E+02  0.47748447632E+02  0.00000000000E+00 0.  1.
         14    1    5    5    0    0 -0.16502151761E+02  0.21977763899E+03  0.39785172939E+02  0.22395845954E+03  0.00000000000E+00 0. -1.
         11    1    3    3    0    0  0.22601228195E+02  0.41748633513E+02 -0.29413731016E+03  0.29794382212E+03  0.00000000000E+00 0. -1.
        -12    1    3    3    0    0  0.29145159762E+02 -0.35648936351E+02 -0.44061901930E+03  0.44301851786E+03  0.00000000000E+00 0.  1.
          5    1    4    4  501    0 -0.56231249350E+02 -0.50219378288E+02 -0.22584073509E+03  0.23812906035E+03  0.41800000000E+01 0.  1.
         -5    1    4    4    0  501  0.37873226622E+02 -0.21271252320E+03 -0.69688237072E+03  0.72961874280E+03  0.41800000000E+01 0.  1.
</event>
<event>
11    1  0.8041700E-009  0.1355161E+03  0.7561462E-02  0.1112671E+00
         22   -1    0    0    0    0  0.00000000000E+00  0.00000000000E+00  0.31249520399E+03  0.31249520399E+03  0.00000000000E+00 0. -1.
         22   -1    0    0    0    0 -0.00000000000E+00 -0.00000000000E+00 -0.10015372091E+04  0.10015372091E+04  0.00000000000E+00 0. -1.
        -24    2    1    2    0    0  0.45440494450E+01  0.16291896859E+02 -0.88190109795E+03  0.88567302863E+03  0.79881742528E+02 0.  0.
         25    2    1    2    0    0 -0.45598434551E+02  0.16595696175E+02 -0.67909548385E+02  0.15037757458E+03  0.12508826408E+03 0.  0.
         24    2    1    2    0    0  0.41054385106E+02 -0.32887593034E+02  0.26076864122E+03  0.27798180989E+03  0.80663164308E+02 0.  0.
        -11    1    5    5    0    0 -0.61994452172E+01 -0.46380540361E+02  0.11514505938E+03  0.12428987225E+03  0.00000000000E+00 0.  1.
         12    1    5    5    0    0  0.47253830324E+02  0.13492947327E+02  0.14562358184E+03  0.15369193764E+03  0.00000000000E+00 0. -1.
         11    1    3    3    0    0  0.57672435723E+01 -0.29999108405E+02 -0.50758740686E+03  0.50850583400E+03  0.00000000000E+00 0. -1.
        -12    1    3    3    0    0 -0.12231941273E+01  0.46291005263E+02 -0.37431369109E+03  0.37716719463E+03  0.00000000000E+00 0.  1.
          5    1    4    4  501    0  0.42719554866E+02 -0.21051554631E+01 -0.29809402098E+02  0.52301672066E+02  0.41800000000E+01 0. -1.
         -5    1    4    4    0  501 -0.88317989417E+02  0.18700851638E+02 -0.38100146287E+02  0.98075902514E+02  0.41800000000E+01 0. -1.
</event>
<event>
11    1  0.8041700E-009  0.1314240E+03  0.7561462E-02  0.1117532E+00
         22   -1    0    0    0    0  0.00000000000E+00  0.00000000000E+00  0.18078718986E+04  0.18078718986E+04  0.00000000000E+00 0.  1.
         22   -1    0    0    0    0 -0.00000000000E+00 -0.00000000000E+00 -0.16018889850E+03  0.16018889850E+03  0.00000000000E+00 0. -1.
        -24    2    1    2    0    0 -0.76003721782E+01 -0.16750361487E+02 -0.14053469025E+03  0.16370016432E+03  0.81910953886E+02 0.  0.
         25    2    1    2    0    0  0.43641929503E+02 -0.11657149224E+01  0.69324652969E+03  0.70579309775E+03  0.12508864455E+03 0.  0.
         24    2    1    2    0    0 -0.36041557325E+02  0.17916076409E+02  0.10949711607E+04  0.10985675350E+04  0.79175796094E+02 0.  0.
        -13    1    5    5    0    0 -0.10831159722E+02  0.25607189173E+02  0.98820429227E+03  0.98859534969E+03  0.00000000000E+00 0.  1.
         14    1    5    5    0    0 -0.25210397602E+02 -0.76911127640E+01  0.10676686840E+03  0.10997218535E+03  0.00000000000E+00 0. -1.
         11    1    3    3    0    0 -0.66113652962E+01 -0.26249019592E+02 -0.14869489351E+03  0.15113865335E+03  0.00000000000E+00 0. -1.
        -12    1    3    3    0    0 -0.98900688209E+00  0.94986581054E+01  0.81602032624E+01  0.12561510964E+02  0.00000000000E+00 0.  1.
          5    1    4    4  501    0  0.51909486706E+02  0.17268438673E+02  0.67780827428E+03  0.68002523693E+03  0.41800000000E+01 0.  1.
         -5    1    4    4    0  501 -0.82675572029E+01 -0.18434153595E+02  0.15438255419E+02  0.25767860820E+02  0.41800000000E+01 0.  1.
</event>
<event>
11    1  0.8041700E-009  0.1678189E+03  0.7561462E-02  0.1079945E+00
         22   -1    0    0    0    0  0.00000000000E+00  0.00000000000E+00  0.12790592739E+03  0.12790592739E+03  0.00000000000E+00 0.  1.
         22   -1    0    0    0    0 -0.00000000000E+00 -0.00000000000E+00 -0.35185427984E+03  0.35185427984E+03  0.00000000000E+00 0. -1.
        -24    2    1    2    0    0 -0.72957984688E+02 -0.66271890621E+01 -0.75177843380E+02  0.13170447139E+03  0.79546040022E+02 0.  0.
         25    2    1    2    0    0 -0.15063984818E+02 -0.92150787079E+02 -0.10206340930E+03  0.18650340405E+03  0.12509152252E+03 0.  0.
         24    2    1    2    0    0  0.88021969506E+02  0.98777976141E+02 -0.46707099772E+02  0.16155233180E+03  0.80079005077E+02 0.  0.
        -11    1    5    5    0    0  0.38603105581E+02  0.47593741224E+02  0.19556841829E+02  0.64325998060E+02  0.00000000000E+00 0.  1.
         12    1    5    5    0    0  0.49418863926E+02  0.51184234918E+02 -0.66263941601E+02  0.97226333739E+02  0.00000000000E+00 0. -1.
         11    1    3    3    0    0 -0.39185315340E+02 -0.32003848988E+01 -0.87231319220E+02  0.95681944246E+02  0.00000000000E+00 0. -1.
        -12    1    3    3    0    0 -0.33772669348E+02 -0.34268041633E+01  0.12053475841E+02  0.36022527140E+02  0.00000000000E+00 0.  1.
          5    1    4    4  501    0  0.35440883942E+02  0.78288977667E+01 -0.25682890135E+01  0.36625351920E+02  0.41800000000E+01 0.  1.
         -5    1    4    4    0  501 -0.50504868760E+02 -0.99979684846E+02 -0.99495120284E+02  0.14987805213E+03  0.41800000000E+01 0.  1.
</event>
<event>
11    1  0.8041700E-009  0.2357584E+03  0.7561462E-02  0.1031772E+00
         22   -1    0    0    0    0  0.00000000000E+00  0.00000000000E+00  0.86214548898E+03  0.86214548898E+03  0.00000000000E+00 0. -1.
         22   -1    0    0    0    0 -0.00000000000E+00 -0.00000000000E+00 -0.11594930175E+04  0.11594930175E+04  0.00000000000E+00 0. -1.
        -24    2    1    2    0    0  0.19957747377E+02  0.28240258839E+01 -0.10214391417E+04  0.10248207235E+04  0.80705069348E+02 0.  0.
         25    2    1    2    0    0 -0.21740602961E+03  0.42018365746E+01  0.93961074725E+01  0.25103601320E+03  0.12509099068E+03 0.  0.
         24    2    1    2    0    0  0.19744828223E+03 -0.70258624585E+01  0.71469550577E+03  0.74578176977E+03  0.79784680529E+02 0.  0.
        -13    1    5    5    0    0 -0.75020382584E+01  0.23292080253E+01  0.29742598235E+02  0.30762443626E+02  0.00000000000E+00 0.  1.
         14    1    5    5    0    0  0.20495032049E+03 -0.93550704838E+01  0.68495290754E+03  0.71501932614E+03  0.00000000000E+00 0. -1.
         11    1    3    3    0    0 -0.24274262091E+01  0.16375378826E+02 -0.91713090874E+03  0.91728030023E+03  0.00000000000E+00 0. -1.
        -12    1    3    3    0    0  0.22385173586E+02 -0.13551352942E+02 -0.10430823297E+03  0.10754042323E+03  0.00000000000E+00 0.  1.
          5    1    4    4  501    0 -0.21024036098E+03  0.25439523165E+02  0.37223179896E+02  0.21506095937E+03  0.41800000000E+01 0. -1.
         -5    1    4    4    0  501 -0.71656686284E+01 -0.21237686590E+02 -0.27827072423E+02  0.35975053832E+02  0.41800000000E+01 0. -1.
</event>
<event>
11    1  0.8041700E-009  0.2038575E+03  0.7561462E-02  0.1051829E+00
         22   -1    0    0    0    0  0.00000000000E+00  0.00000000000E+00  0.18844224159E+04  0.18844224159E+04  0.00000000000E+00 0.  1.
         22   -1    0    0    0    0 -0.00000000000E+00 -0.00000000000E+00 -0.48602702556E+03  0.48602702556E+03  0.00000000000E+00 0. -1.
        -24    2    1    2    0    0  0.14818710916E+03 -0.78221302740E+02 -0.41773444477E+03  0.45697292127E+03  0.79020205668E+02 0.  0.
         25    2    1    2    0    0 -0.11581460604E+03  0.11767747481E+02  0.10859530412E+03  0.20247214046E+03  0.12510205727E+03 0.  0.
         24    2    1    2    0    0 -0.32372503114E+02  0.66453555259E+02  0.17075345310E+04  0.17110043798E+04  0.79985991927E+02 0.  0.
        -13    1    5    5    0    0 -0.37741052280E+02  0.36351970850E+02  0.15269993064E+04  0.15278981427E+04  0.00000000000E+00 0.  1.
         14    1    5    5    0    0  0.53685491655E+01  0.30101584409E+02  0.18053522466E+03  0.18310623705E+03  0.00000000000E+00 0. -1.
         11    1    3    3    0    0  0.93635498446E+02 -0.19044841863E+02 -0.29597691041E+03  0.31101871980E+03  0.00000000000E+00 0. -1.
        -12    1    3    3    0    0  0.54551610712E+02 -0.59176460878E+02 -0.12175753437E+03  0.14595420148E+03  0.00000000000E+00 0.  1.
          5    1    4    4  501    0 -0.10068710889E+02  0.42086323552E+02 -0.56238889149E+01  0.43837633326E+02  0.41800000000E+01 0. -1.
         -5    1    4    4    0  501 -0.10574589515E+03 -0.30318576071E+02  0.11421919303E+03  0.15863450714E+03  0.41800000000E+01 0. -1.
</event>
<event>
11    1  0.8041700E-009  0.1669595E+03  0.7561462E-02  0.1080708E+00
         22   -1    0    0    0    0  0.00000000000E+00  0.00000000000E+00  0.22907547595E+03  0.22907547595E+03  0.00000000000E+00 0.  1.
         22   -1    0    0    0    0 -0.00000000000E+00 -0.00000000000E+00 -0.23673973657E+04  0.23673973657E+04  0.00000000000E+00 0. -1.
        -24    2    1    2    0    0  0.24104248830E+02  0.22298250092E+01 -0.20547502854E+04  0.20563889819E+04  0.78427815928E+02 0.  0.
         25    2    1    2    0    0 -0.13282196813E+03 -0.62173356108E+01 -0.25997207156E+03  0.31767068966E+03  0.12509539799E+03 0.  0.
         24    2    1    2    0    0  0.10871771930E+03  0.39875106016E+01  0.17640046724E+03  0.22241317012E+03  0.80715863812E+02 0.  0.
        -13    1    5    5    0    0  0.11425293083E+03  0.21606629906E+02  0.15945668627E+03  0.19734997708E+03  0.00000000000E+00 0.  1.
         14    1    5    5    0    0 -0.55352115289E+01 -0.17619119304E+02  0.16943780969E+02  0.25063193038E+02  0.00000000000E+00 0. -1.
         13    1    3    3    0    0 -0.71236239951E+00 -0.29143106041E+02 -0.14619388521E+04  0.14622294742E+04  0.00000000000E+00 0. -1.
        -14    1    3    3    0    0  0.24816611229E+02  0.31372931050E+02 -0.59281143335E+03  0.59415950763E+03  0.00000000000E+00 0.  1.
          5    1    4    4  501    0 -0.63670473022E+02 -0.35944063739E+02 -0.22097618119E+03  0.23279572570E+03  0.41800000000E+01 0. -1.
         -5    1    4    4    0  501 -0.69151495111E+02  0.29726728128E+02 -0.38995890377E+02  0.84874963962E+02  0.41800000000E+01 0. -1.
</event>
<event>
11    1  0.8041700E-009  0.1387661E+03  0.7561462E-02  0.1108944E+00
         22   -1    0    0    0    0  0.00000000000E+00  0.00000000000E+00  0.54655162398E+03  0.54655162398E+03  0.00000000000E+00 0. -1.
         22   -1    0    0    0    0 -0.00000000000E+00 -0.00000000000E+00 -0.79498014821E+03  0.79498014821E+03  0.00000000000E+00 0.  1.
        -24    2    1    2    0    0 -0.42238024028E+02  0.41601918267E+02 -0.75049236146E+03  0.75697317318E+03  0.79087483328E+02 0.  0.
         25    2    1    2    0    0  0.88973790416E+02 -0.64640679072E+02  0.16751273141E+03  0.23622697210E+03  0.12509162398E+03 0.  0.
         24    2    1    2    0    0 -0.46735766388E+02  0.23038760805E+02  0.33455110582E+03  0.34833162692E+03  0.81825812234E+02 0.  0.
        -13    1    5    5    0    0  0.13213241575E+02  0.82243009433E+01  0.11295782717E+02  0.19230797854E+02  0.00000000000E+00 0.  1.
         14    1    5    5    0    0 -0.59949007963E+02  0.14814459862E+02  0.32325532310E+03  0.32910082907E+03  0.00000000000E+00 0. -1.
         13    1    3    3    0    0  0.56523760326E+01 -0.27114397783E+01 -0.42289399421E+03  0.42294045870E+03  0.00000000000E+00 0. -1.
        -14    1    3    3    0    0 -0.47890400061E+02  0.44313358045E+02 -0.32759836725E+03  0.33403271448E+03  0.00000000000E+00 0.  1.
          5    1    4    4  501    0  0.31517573614E+02 -0.94722554619E+02  0.11738987685E+03  0.15415438816E+03  0.41800000000E+01 0.  1.
         -5    1    4    4    0  501  0.57456216802E+02  0.30081875546E+02  0.50122854557E+02  0.82072583940E+02  0.41800000000E+01 0.  1.
</event>
<event>
11    1  0.8041700E-009  0.1665524E+03  0.7561462E-02  0.1081071E+00
         22   -1    0    0    0    0  0.00000000000E+00  0.00000000000E+00  0.84959862478E+03  0.84959862478E+03  0.00000000000E+00 0. -1.
         22   -1    0    0    0    0 -0.00000000000E+00 -0.00000000000E+00 -0.82852328232E+02  0.82852328232E+02  0.00000000000E+00 0.  1.
        -24    2    1    2    0    0  0.41586723463E+02  0.68885776525E+01  0.77622472786E+01  0.94116849708E+02  0.83790338618E+02 0.  0.
         25    2    1    2    0    0 -0.61015303107E+02  0.10086182730E+03  0.20387277010E+03  0.26665949820E+03  0.12508879316E+03 0.  0.
         24    2    1    2    0    0  0.19428579644E+02 -0.10775040495E+03  0.55511127917E+03  0.57167460510E+03  0.81704971586E+02 0.  0.
        -11    1    5    5    0    0  0.86412838798E+01 -0.47763889298E+02  0.42759435265E+03  0.43034055273E+03  0.00000000000E+00 0.  1.
         12    1    5    5    0    0  0.10787295765E+02 -0.59986515650E+02  0.12751692652E+03  0.14133405237E+03  0.00000000000E+00 0. -1.
         11    1    3    3    0    0  0.21000202463E+02 -0.38516229766E+02  0.54885553182E+01  0.44211228194E+02  0.00000000000E+00 0. -1.
        -12    1    3    3    0    0  0.20586521000E+02  0.45404807419E+02  0.22736919604E+01  0.49905621514E+02  0.00000000000E+00 0.  1.
          5    1    4    4  501    0 -0.47689455875E+02  0.13744652908E+02  0.62007628406E+01  0.50190851209E+02  0.41800000000E+01 0. -1.
         -5    1    4    4    0  501 -0.13325847232E+02  0.87117174387E+02  0.19767200726E+03  0.21646864699E+03  0.41800000000E+01 0. -1.
</event>
<event>
11    1  0.8041700E-009  0.1448338E+03  0.7561462E-02  0.1102278E+00
         22   -1    0    0    0    0  0.00000000000E+00  0.00000000000E+00  0.21926888439E+03  0.21926888439E+03  0.00000000000E+00 0.  1.
         22   -1    0    0    0    0 -0.00000000000E+00 -0.00000000000E+00 -0.65771564540E+03  0.65771564540E+03  0.00000000000E+00 0. -1.
         24    2    1    2    0    0  0.35006159023E+01 -0.71228489821E+01 -0.57412045542E+03  0.57952828426E+03  0.78585912398E+02 0.  0.
         25    2    1    2    0    0  0.67609108128E+02 -0.15372891752E+02  0.31736761569E+02  0.14649656052E+03  0.12508678150E+03 0.  0.
        -24    2    1    2    0    0 -0.71109724030E+02  0.22495740734E+02  0.10393693284E+03  0.15095968502E+03  0.80145425872E+02 0.  0.
        -13    1    3    3    0    0  0.11314354131E+02  0.17625790480E+02 -0.43563585588E+02  0.48337036408E+02  0.00000000000E+00 0.  1.
         14    1    3    3    0    0 -0.78137382286E+01 -0.24748639462E+02 -0.53055686984E+03  0.53119124785E+03  0.00000000000E+00 0. -1.
         13    1    5    5    0    0  0.27261718232E+01 -0.20310795275E+02  0.66561142762E+01  0.21546792680E+02  0.00000000000E+00 0. -1.
        -14    1    5    5    0    0 -0.73835895854E+02  0.42806536010E+02  0.97280818567E+02  0.12941289234E+03  0.00000000000E+00 0.  1.
          5    1    4    4  501    0  0.36320571213E+02  0.30994344647E+01  0.78781813436E+02  0.86907059066E+02  0.41800000000E+01 0.  1.
         -5    1    4    4    0  501  0.31288536915E+02 -0.18472326217E+02 -0.47045051867E+02  0.59589501453E+02  0.41800000000E+01 0.  1.
</event>
<event>
11    1  0.8041700E-009  0.1440995E+03  0.7561462E-02  0.1103065E+00
         22   -1    0    0    0    0  0.00000000000E+00  0.00000000000E+00  0.11408377375E+04  0.11408377375E+04  0.00000000000E+00 0. -1.
         22   -1    0    0    0    0 -0.00000000000E+00 -0.00000000000E+00 -0.22224073571E+03  0.22224073571E+03  0.00000000000E+00 0.  1.
        -24    2    1    2    0    0 -0.89722938390E+01 -0.17140030270E+02 -0.17977768052E+03  0.19811372478E+03  0.80961415737E+02 0.  0.
         25    2    1    2    0    0 -0.10798655622E+02  0.84589679145E+02  0.15905177867E+03  0.21957300275E+03  0.12507122155E+03 0.  0.
         24    2    1    2    0    0  0.19770949461E+02 -0.67449648875E+02  0.93932290361E+03  0.94539174564E+03  0.80608249643E+02 0.  0.
        -11    1    5    5    0    0 -0.27062523058E+02 -0.82809778891E+01  0.16593495749E+03  0.16833111675E+03  0.00000000000E+00 0.  1.
         12    1    5    5    0    0  0.46833472519E+02 -0.59168670986E+02  0.77338794611E+03  0.77706062889E+03  0.00000000000E+00 0. -1.
         13    1    3    3    0    0 -0.28571263819E+02  0.93983093627E+01 -0.22895253765E+02  0.37799973281E+02  0.00000000000E+00 0. -1.
        -14    1    3    3    0    0  0.19598969980E+02 -0.26538339633E+02 -0.15688242675E+03  0.16031375150E+03  0.00000000000E+00 0.  1.
          5    1    4    4  501    0  0.54208929687E+02  0.16784005538E+02  0.51897348731E+02  0.77013752701E+02  0.41800000000E+01 0. -1.
         -5    1    4    4    0  501 -0.65007585309E+02  0.67805673607E+02  0.10715442994E+03  0.14255925005E+03  0.41800000000E+01 0. -1.
</event>
<event>
11    1  0.8041700E-009  0.2327866E+03  0.7561462E-02  0.1033491E+00
         22   -1    0    0    0    0  0.00000000000E+00  0.00000000000E+00  0.21822130110E+04  0.21822130110E+04  0.00000000000E+00 0. -1.
         22   -1    0    0    0    0 -0.00000000000E+00 -0.00000000000E+00 -0.87894863090E+02  0.87894863090E+02  0.00000000000E+00 0. -1.
         24    2    1    2    0    0 -0.21406737823E+03  0.17997307578E+02  0.15578730870E+03  0.28328231955E+03  0.99148583018E+02 0.  0.
         25    2    1    2    0    0  0.15307579101E+03 -0.46651218832E+02  0.43979348364E+03  0.48443208568E+03  0.12509038083E+03 0.  0.
        -24    2    1    2    0    0  0.60991587214E+02  0.28653911254E+02  0.14987373555E+04  0.15023934688E+04  0.80196346191E+02 0.  0.
        -13    1    3    3    0    0 -0.17304281052E+03  0.56283272652E+01  0.16531886102E+03  0.23938633660E+03  0.00000000000E+00 0.  1.
         14    1    3    3    0    0 -0.41024567704E+02  0.12368980313E+02 -0.95315523192E+01  0.43895982947E+02  0.00000000000E+00 0. -1.
         13    1    5    5    0    0  0.25907866539E+02  0.52450238369E+02  0.10599225638E+04  0.10615357207E+04  0.00000000000E+00 0. -1.
        -14    1    5    5    0    0  0.35083720675E+02 -0.23796327115E+02  0.43881479170E+03  0.44085774809E+03  0.00000000000E+00 0.  1.
          5    1    4    4  501    0  0.86772330709E+02  0.38339283565E+02  0.21871429884E+03  0.23843815752E+03  0.41800000000E+01 0. -1.
         -5    1    4    4    0  501  0.66303460305E+02 -0.84990502396E+02  0.22107918479E+03  0.24599392816E+03  0.41800000000E+01 0. -1.
</event>
<event>
11    1  0.8041700E-009  0.1680153E+03  0.7561462E-02  0.1079772E+00
         22   -1    0    0    0    0  0.00000000000E+00  0.00000000000E+00  0.27645649933E+04  0.27645649933E+04  0.00000000000E+00 0. -1.
         22   -1    0    0    0    0 -0.00000000000E+00 -0.00000000000E+00 -0.29306829466E+03  0.29306829466E+03  0.00000000000E+00 0. -1.
        -24    2    1    2    0    0  0.21340362131E+02 -0.11050489137E+03 -0.26739306134E+03  0.30144584516E+03  0.81876774750E+02 0.  0.
         25    2    1    2    0    0  0.91465261180E+01  0.97552701855E+02  0.81611840375E+03  0.83144193622E+03  0.12508499425E+03 0.  0.
         24    2    1    2    0    0 -0.30486888250E+02  0.12952189514E+02  0.19227713562E+04  0.19247455066E+04  0.80612450697E+02 0.  0.
        -11    1    5    5    0    0 -0.27503266920E+02 -0.98130860212E+01  0.23359908554E+03  0.23541720225E+03  0.00000000000E+00 0.  1.
         12    1    5    5    0    0 -0.29836213296E+01  0.22765275536E+02  0.16891722707E+04  0.16893283043E+04  0.00000000000E+00 0. -1.
         11    1    3    3    0    0 -0.17153369645E+02 -0.96007943211E+02 -0.19953297789E+03  0.22209271153E+03  0.00000000000E+00 0. -1.
        -12    1    3    3    0    0  0.38493731776E+02 -0.14496948158E+02 -0.67860083449E+02  0.79353133635E+02  0.00000000000E+00 0.  1.
          5    1    4    4  501    0  0.17048864304E+02 -0.23278709666E+02  0.74688071786E+02  0.80176945345E+02  0.41800000000E+01 0. -1.
         -5    1    4    4    0  501 -0.79023381856E+01  0.12083141152E+03  0.74143033196E+03  0.75126499087E+03  0.41800000000E+01 0. -1.
</event>
<event>
11    1  0.8041700E-009  0.1563663E+03  0.7561462E-02  0.1090546E+00
         22   -1    0    0    0    0  0.00000000000E+00  0.00000000000E+00  0.41983755041E+03  0.41983755041E+03  0.00000000000E+00 0. -1.
         22   -1    0    0    0    0 -0.00000000000E+00 -0.00000000000E+00 -0.70454619516E+03  0.70454619516E+03  0.00000000000E+00 0.  1.
         24    2    1    2    0    0 -0.25261357851E+02 -0.16412834920E+02 -0.64930431513E+03  0.65421665238E+03  0.74133779433E+02 0.  0.
         25    2    1    2    0    0  0.11219211526E+03  0.10882345445E+02  0.14665043572E+03  0.22327572871E+03  0.12506080347E+03 0.  0.
        -24    2    1    2    0    0 -0.86930757412E+02  0.55304894751E+01  0.21794523466E+03  0.24689136447E+03  0.76600767880E+02 0.  0.
        -13    1    3    3    0    0  0.20369166153E+02 -0.20074070910E+02 -0.37774291946E+03  0.37882394915E+03  0.00000000000E+00 0.  1.
         14    1    3    3    0    0 -0.45630524004E+02  0.36612359899E+01 -0.27156139568E+03  0.27539270323E+03  0.00000000000E+00 0. -1.
         13    1    5    5    0    0 -0.24011237653E+02  0.15640433575E+01  0.15825044117E+03  0.16006932215E+03  0.00000000000E+00 0. -1.
        -14    1    5    5    0    0 -0.62919519759E+02  0.39664461176E+01  0.59694793495E+02  0.86822042316E+02  0.00000000000E+00 0.  1.
          5    1    4    4  501    0  0.86063541654E+02  0.39442012944E+02  0.28621671938E+02  0.98991303111E+02  0.41800000000E+01 0.  1.
         -5    1    4    4    0  501  0.26128573609E+02 -0.28559667499E+02  0.11802876378E+03  0.12428442560E+03  0.41800000000E+01 0.  1.
</event>
<event>
11    1  0.8041700E-009  0.1628972E+03  0.7561462E-02  0.1084384E+00
         22   -1    0    0    0    0  0.00000000000E+00  0.00000000000E+00  0.21270815709E+03  0.21270815709E+03  0.00000000000E+00 0.  1.
         22   -1    0    0    0    0 -0.00000000000E+00 -0.00000000000E+00 -0.19331775698E+04  0.19331775698E+04  0.00000000000E+00 0. -1.
        -24    2    1    2    0    0 -0.95456036930E+02  0.21771286604E+02 -0.14523358165E+04  0.14577469743E+04  0.78492503914E+02 0.  0.
         25    2    1    2    0    0  0.13034655258E+03  0.75859379790E+02 -0.43401782523E+03  0.47619789061E+03  0.12509232243E+03 0.  0.
         24    2    1    2    0    0 -0.34890515646E+02 -0.97630666393E+02  0.16588422906E+03  0.21194086198E+03  0.81561365989E+02 0.  0.
        -13    1    5    5    0    0 -0.52010743659E+02 -0.27657398986E+02  0.87509875616E+02  0.10548946632E+03  0.00000000000E+00 0.  1.
         14    1    5    5    0    0  0.17120228013E+02 -0.69973267407E+02  0.78374353444E+02  0.10645139565E+03  0.00000000000E+00 0. -1.
         13    1    3    3    0    0 -0.92478148212E+02  0.44311482141E+02 -0.12193594714E+04  0.12236638573E+04  0.00000000000E+00 0. -1.
        -14    1    3    3    0    0 -0.29778887175E+01 -0.22540195537E+02 -0.23297634517E+03  0.23408311696E+03  0.00000000000E+00 0.  1.
          5    1    4    4  501    0  0.99742007065E+02 -0.13736348053E+02 -0.23884322322E+03  0.25923100299E+03  0.41800000000E+01 0.  1.
         -5    1    4    4    0  501  0.30604545510E+02  0.89595727843E+02 -0.19517460201E+03  0.21696688762E+03  0.41800000000E+01 0.  1.
</event>
<event>
11    1  0.8041700E-009  0.1357560E+03  0.7561462E-02  0.1112392E+00
         22   -1    0    0    0    0  0.00000000000E+00  0.00000000000E+00  0.33080329089E+04  0.33080329089E+04  0.00000000000E+00 0. -1.
         22   -1    0    0    0    0 -0.00000000000E+00 -0.00000000000E+00 -0.46282332849E+03  0.46282332849E+03  0.00000000000E+00 0. -1.
        -24    2    1    2    0    0 -0.51238793477E+02 -0.25430626093E+02 -0.29492446822E+03  0.31583728554E+03  0.97471115127E+02 0.  0.
         25    2    1    2    0    0  0.28316003373E+02  0.33120910749E+02 -0.12898412646E+03  0.18488635705E+03  0.12508904576E+03 0.  0.
         24    2    1    2    0    0  0.22922790104E+02 -0.76902846563E+01  0.32691181751E+04  0.32701325948E+04  0.77774996520E+02 0.  0.
        -13    1    5    5    0    0  0.28747523758E+01 -0.62175826408E+01  0.24164085264E+02  0.25116240797E+02  0.00000000000E+00 0.  1.
         14    1    5    5    0    0  0.20048037729E+02 -0.14727020155E+01  0.32449540899E+04  0.32450163540E+04  0.00000000000E+00 0. -1.
         13    1    3    3    0    0  0.20594418728E+02  0.65570685362E-01 -0.14369568038E+02  0.25112125913E+02  0.00000000000E+00 0. -1.
        -14    1    3    3    0    0 -0.71833212205E+02 -0.25496196778E+02 -0.28055490018E+03  0.29072515963E+03  0.00000000000E+00 0.  1.
          5    1    4    4  501    0  0.39890871144E+02 -0.33185426051E+02 -0.97353946386E+02  0.11039844827E+03  0.41800000000E+01 0. -1.
         -5    1    4    4    0  501 -0.11574867771E+02  0.66306336800E+02 -0.31630180070E+02  0.74487908784E+02  0.41800000000E+01 0. -1.
</event>
<event>
11    1  0.8041700E-009  0.1486835E+03  0.7561462E-02  0.1098232E+00
         22   -1    0    0    0    0  0.00000000000E+00  0.00000000000E+00  0.88772301432E+03  0.88772301432E+03  0.00000000000E+00 0.  1.
         22   -1    0    0    0    0 -0.00000000000E+00 -0.00000000000E+00 -0.88233930102E+03  0.88233930102E+03  0.00000000000E+00 0. -1.
         24    2    1    2    0    0 -0.21079493418E+02 -0.78661053250E+02 -0.82849301051E+03  0.83630475638E+03  0.79831514718E+02 0.  0.
         25    2    1    2    0    0  0.75457117688E+02  0.13512634566E+02  0.75121600689E+02  0.16482449238E+03  0.12508992963E+03 0.  0.
        -24    2    1    2    0    0 -0.54377624270E+02  0.65148418685E+02  0.75875512312E+03  0.76893306658E+03  0.91364553026E+02 0.  0.
        -11    1    3    3    0    0 -0.40038709378E+02 -0.22057085285E+02 -0.52568701768E+03  0.52767078166E+03  0.00000000000E+00 0.  1.
         12    1    3    3    0    0  0.18959215960E+02 -0.56603967965E+02 -0.30280599283E+03  0.30863397472E+03  0.00000000000E+00 0. -1.
         13    1    5    5    0    0 -0.72488561402E+02  0.18901925490E+02  0.43989756870E+03  0.44623059652E+03  0.00000000000E+00 0. -1.
        -14    1    5    5    0    0  0.18110937132E+02  0.46246493194E+02  0.31885755442E+03  0.32270247006E+03  0.00000000000E+00 0.  1.
          5    1    4    4  501    0  0.79107251480E+02 -0.23699203373E+02  0.91905445049E+02  0.12362723287E+03  0.41800000000E+01 0.  1.
         -5    1    4    4    0  501 -0.36501337924E+01  0.37211837938E+02 -0.16783844360E+02  0.41197259508E+02  0.41800000000E+01 0.  1.
</event>
<event>
11    1  0.8041700E-009  0.1531878E+03  0.7561462E-02  0.1093665E+00
         22   -1    0    0    0    0  0.00000000000E+00  0.00000000000E+00  0.36635653248E+03  0.36635653248E+03  0.00000000000E+00 0. -1.
         22   -1    0    0    0    0 -0.00000000000E+00 -0.00000000000E+00 -0.25292081777E+04  0.25292081777E+04  0.00000000000E+00 0.  1.
        -24    2    1    2    0    0  0.77483563468E+02  0.42594418301E+02 -0.20470913335E+04  0.20504284443E+04  0.76523789677E+02 0.  0.
         25    2    1    2    0    0 -0.66686058813E+02 -0.61752319669E+02 -0.46281034122E+03  0.48795541071E+03  0.12508673584E+03 0.  0.
         24    2    1    2    0    0 -0.10797504655E+02  0.19157901368E+02  0.34705002956E+03  0.35718085512E+03  0.81552614669E+02 0.  0.
        -13    1    5    5    0    0  0.27854748233E+02  0.32419151745E+02  0.15193642181E+03  0.15783397819E+03  0.00000000000E+00 0.  1.
         14    1    5    5    0    0 -0.38652252888E+02 -0.13261250377E+02  0.19511360775E+03  0.19934687693E+03  0.00000000000E+00 0. -1.
         11    1    3    3    0    0 -0.83226614785E+01  0.14748416475E+01 -0.32173471875E+02  0.33265209220E+02  0.00000000000E+00 0. -1.
        -12    1    3    3    0    0  0.85806224947E+02  0.41119576653E+02 -0.20149178616E+04  0.20171632351E+04  0.00000000000E+00 0.  1.
          5    1    4    4  501    0 -0.10232758345E+03 -0.30828941553E+02 -0.33431209409E+03  0.35100342823E+03  0.41800000000E+01 0. -1.
         -5    1    4    4    0  501  0.35641524638E+02 -0.30923378116E+02 -0.12849824713E+03  0.13695198249E+03  0.41800000000E+01 0. -1.
</event>
<event>
11    1  0.8041700E-009  0.1817325E+03  0.7561462E-02  0.1068250E+00
         22   -1    0    0    0    0  0.00000000000E+00  0.00000000000E+00  0.36645206653E+03  0.36645206653E+03  0.00000000000E+00 0. -1.
         22   -1    0    0    0    0 -0.00000000000E+00 -0.00000000000E+00 -0.13278177738E+04  0.13278177738E+04  0.00000000000E+00 0.  1.
         24    2    1    2    0    0  0.50930363589E+01  0.10376986635E+02 -0.11957013747E+04  0.11997950915E+04  0.98350715804E+02 0.  0.
         25    2    1    2    0    0  0.40434875501E+02 -0.13273725327E+03 -0.29651467833E+02  0.18916158320E+03  0.12509491378E+03 0.  0.
        -24    2    1    2    0    0 -0.45527911860E+02  0.12236026663E+03  0.26398713524E+03  0.30531316564E+03  0.80511464607E+02 0.  0.
        -11    1    3    3    0    0 -0.24557502622E+01 -0.35753980621E+02 -0.87198775847E+03  0.87272391325E+03  0.00000000000E+00 0.  1.
         12    1    3    3    0    0  0.75487866211E+01  0.46130967256E+02 -0.32371361620E+03  0.32707117824E+03  0.00000000000E+00 0. -1.
         13    1    5    5    0    0 -0.34132225396E+02  0.39451570113E+02  0.17732322490E+03  0.18483766198E+03  0.00000000000E+00 0. -1.
        -14    1    5    5    0    0 -0.11395686464E+02  0.82908696520E+02  0.86663910339E+02  0.12047550367E+03  0.00000000000E+00 0.  1.
          5    1    4    4  501    0  0.50519589643E+02 -0.51017388446E+02  0.39055233640E+02  0.81840005720E+02  0.41800000000E+01 0. -1.
         -5    1    4    4    0  501 -0.10084714142E+02 -0.81719864821E+02 -0.68706701473E+02  0.10732157748E+03  0.41800000000E+01 0. -1.
</event>
<event>
11    1  0.8041700E-009  0.1510526E+03  0.7561462E-02  0.1095808E+00
         22   -1    0    0    0    0  0.00000000000E+00  0.00000000000E+00  0.88578209513E+03  0.88578209513E+03  0.00000000000E+00 0. -1.
         22   -1    0    0    0    0 -0.00000000000E+00 -0.00000000000E+00 -0.12049308512E+03  0.12049308512E+03  0.00000000000E+00 0.  1.
         24    2    1    2    0    0 -0.20613023160E+02 -0.82320000008E+02 -0.49065295795E+02  0.12583973210E+03  0.78909795334E+02 0.  0.
         25    2    1    2    0    0 -0.67188286998E+02  0.77127449323E+02  0.21310147261E+03  0.26743923729E+03  0.12509435904E+03 0.  0.
        -24    2    1    2    0    0  0.87801310158E+02  0.51925506850E+01  0.60125283320E+03  0.61299621085E+03  0.80767273323E+02 0.  0.
        -13    1    3    3    0    0  0.27247423238E+02 -0.30384217798E+02 -0.35137446687E+02  0.53854089204E+02  0.00000000000E+00 0.  1.
         14    1    3    3    0    0 -0.47860446397E+02 -0.51935782210E+02 -0.13927849108E+02  0.71985642901E+02  0.00000000000E+00 0. -1.
         11    1    5    5    0    0  0.62111877331E+02  0.24016507350E+02  0.53872070216E+03  0.54282103208E+03  0.00000000000E+00 0. -1.
        -12    1    5    5    0    0  0.25689432828E+02 -0.18823956665E+02  0.62532131038E+02  0.70175178772E+02  0.00000000000E+00 0.  1.
          5    1    4    4  501    0 -0.37003733928E+02  0.34610206235E+02  0.20885949040E+03  0.21495790712E+03  0.41800000000E+01 0.  1.
         -5    1    4    4    0  501 -0.30184553071E+02  0.42517243088E+02  0.42419822077E+01  0.52481330175E+02  0.41800000000E+01 0.  1.
</event>
<event>
11    1  0.8041700E-009  0.1612785E+03  0.7561462E-02  0.1085881E+00
         22   -1    0    0    0    0  0.00000000000E+00  0.00000000000E+00  0.68473756314E+03  0.68473756314E+03  0.00000000000E+00 0. -1.
         22   -1    0    0    0    0 -0.00000000000E+00 -0.00000000000E+00 -0.39953936477E+04  0.39953936477E+04  0.00000000000E+00 0. -1.
        -24    2    1    2    0    0  0.25562717341E+02 -0.17217806490E+02 -0.38894386026E+04  0.38902791798E+04  0.74763278370E+02 0.  0.
         25    2    1    2    0    0 -0.11066439420E+03  0.69298198453E+02 -0.15583791675E+02  0.18148272407E+03  0.12507708071E+03 0.  0.
         24    2    1    2    0    0  0.85101676863E+02 -0.52080391964E+02  0.59436630974E+03  0.60836930697E+03  0.82989402216E+02 0.  0.
        -13    1    5    5    0    0 -0.68159563429E+01 -0.15174524878E+02  0.22462748646E+02  0.27951718067E+02  0.00000000000E+00 0.  1.
         14    1    5    5    0    0  0.91917633205E+02 -0.36905867086E+02  0.57190356110E+03  0.58041758891E+03  0.00000000000E+00 0. -1.
         13    1    3    3    0    0  0.21048216237E+02  0.60008986744E+01 -0.35277817850E+04  0.35278496794E+04  0.00000000000E+00 0. -1.
        -14    1    3    3    0    0  0.45145011048E+01 -0.23218705164E+02 -0.36165681766E+03  0.36242950039E+03  0.00000000000E+00 0.  1.
          5    1    4    4  501    0 -0.13074736251E+03  0.82098144574E+02 -0.23104069935E+02  0.15616097014E+03  0.41800000000E+01 0. -1.
         -5    1    4    4    0  501  0.20082968310E+02 -0.12799946121E+02  0.75202782598E+01  0.25321753928E+02  0.41800000000E+01 0. -1.
</event>
<event>
11    1  0.8041700E-009  0.1344753E+03  0.7561462E-02  0.1113889E+00
         22   -1    0    0    0    0  0.00000000000E+00  0.00000000000E+00  0.81495178589E+02  0.81495178589E+02  0.00000000000E+00 0.  1.
         22   -1    0    0    0    0 -0.00000000000E+00 -0.00000000000E+00 -0.77474649120E+03  0.77474649120E+03  0.00000000000E+00 0.  1.
         24    2    1    2    0    0 -0.39921746696E+02  0.15822770080E+02 -0.55481098614E+03  0.56241760626E+03  0.81573448955E+02 0.  0.
         25    2    1    2    0    0 -0.17821512727E+02 -0.13417325959E+02 -0.14695841739E+03  0.19427585665E+03  0.12509476841E+03 0.  0.
        -24    2    1    2    0    0  0.57743259423E+02 -0.24054441208E+01  0.85180909205E+01  0.99548206884E+02  0.80605318997E+02 0.  0.
        -11    1    3    3    0    0 -0.61537779483E+02  0.22970245619E+02 -0.47143873096E+03  0.47599265492E+03  0.00000000000E+00 0.  1.
         12    1    3    3    0    0  0.21616032787E+02 -0.71474755395E+01 -0.83372255175E+02  0.86424951334E+02  0.00000000000E+00 0. -1.
         13    1    5    5    0    0  0.64063228568E+02  0.21624498829E+02 -0.10279855393E+02  0.68391458758E+02  0.00000000000E+00 0. -1.
        -14    1    5    5    0    0 -0.63199691457E+01 -0.24029942949E+02  0.18797946313E+02  0.31156748125E+02  0.00000000000E+00 0.  1.
          5    1    4    4  501    0 -0.40009507946E+01 -0.68005227987E+02 -0.61645172242E+02  0.91969116020E+02  0.41800000000E+01 0.  1.
         -5    1    4    4    0  501 -0.13820561932E+02  0.54587902028E+02 -0.85313245149E+02  0.10230674063E+03  0.41800000000E+01 0.  1.
</event>
<event>
11    1  0.8041700E-009  0.1718465E+03  0.7561462E-02  0.1076436E+00
         22   -1    0    0    0    0  0.00000000000E+00  0.00000000000E+00  0.10469983770E+04  0.10469983770E+04  0.00000000000E+00 0. -1.
         22   -1    0    0    0    0 -0.00000000000E+00 -0.00000000000E+00 -0.18763700658E+04  0.18763700658E+04  0.00000000000E+00 0. -1.
         24    2    1    2    0    0 -0.63591666848E+02 -0.18067271292E+02 -0.18367582029E+04  0.18397145414E+04  0.80613717220E+02 0.  0.
         25    2    1    2    0    0  0.15278511263E+03  0.77513289194E+02  0.32298613136E+03  0.38641846416E+03  0.12509031836E+03 0.  0.
        -24    2    1    2    0    0 -0.89193445782E+02 -0.59446017902E+02  0.68440038267E+03  0.69723543729E+03  0.79019436849E+02 0.  0.
        -11    1    3    3    0    0 -0.29579176914E+02  0.24828690626E+02 -0.38675747042E+03  0.38868075912E+03  0.00000000000E+00 0.  1.
         12    1    3    3    0    0 -0.34012489934E+02 -0.42895961918E+02 -0.14500007325E+04  0.14510337822E+04  0.00000000000E+00 0. -1.
         11    1    5    5    0    0 -0.96991580448E+02 -0.28691770679E+02  0.53991362487E+03  0.54930620487E+03  0.00000000000E+00 0. -1.
        -12    1    5    5    0    0  0.77981346664E+01 -0.30754247223E+02  0.14448675779E+03  0.14792923242E+03  0.00000000000E+00 0.  1.
          5    1    4    4  501    0  0.11101818577E+02 -0.10869398685E+01  0.14579301971E+03  0.14627887342E+03  0.41800000000E+01 0. -1.
         -5    1    4    4    0  501  0.14168329405E+03  0.78600229062E+02  0.17719311166E+03  0.24013959074E+03  0.41800000000E+01 0. -1.
</event>
<event>
11    1  0.8041700E-009  0.1887181E+03  0.7561462E-02  0.1062801E+00
         22   -1    0    0    0    0  0.00000000000E+00  0.00000000000E+00  0.36609277792E+03  0.36609277792E+03  0.00000000000E+00 0.  1.
         22   -1    0    0    0    0 -0.00000000000E+00 -0.00000000000E+00 -0.49273133666E+03  0.49273133666E+03  0.00000000000E+00 0. -1.
        -24    2    1    2    0    0 -0.14151769841E+03 -0.24309728153E+02 -0.35432862561E+03  0.39073494203E+03  0.80664726799E+02 0.  0.
         25    2    1    2    0    0  0.11414026542E+03  0.89774093643E+02 -0.24092494547E+02  0.19317106148E+03  0.12508885890E+03 0.  0.
         24    2    1    2    0    0  0.27377432991E+02 -0.65464365490E+02  0.25178256142E+03  0.27491811107E+03  0.84560053078E+02 0.  0.
        -13    1    5    5    0    0  0.40968708455E+02 -0.38264087026E+02  0.23191940927E+03  0.23859838185E+03  0.00000000000E+00 0.  1.
         14    1    5    5    0    0 -0.13591275465E+02 -0.27200278464E+02  0.19863152150E+02  0.36319729220E+02  0.00000000000E+00 0. -1.
         11    1    3    3    0    0 -0.10200411779E+03 -0.48657649175E+02 -0.29135047066E+03  0.31250200579E+03  0.00000000000E+00 0. -1.
        -12    1    3    3    0    0 -0.39513580621E+02  0.24347921023E+02 -0.62978154949E+02  0.78232936238E+02  0.00000000000E+00 0.  1.
          5    1    4    4  501    0 -0.19116319517E-02 -0.26353557416E+02 -0.13598504712E+02  0.29948317524E+02  0.41800000000E+01 0. -1.
         -5    1    4    4    0  501  0.11414217705E+03  0.11612765106E+03 -0.10493989836E+02  0.16322274396E+03  0.41800000000E+01 0. -1.
</event>
<event>
11    1  0.8041700E-009  0.1721912E+03  0.7561462E-02  0.1076140E+00
         22   -1    0    0    0    0  0.00000000000E+00  0.00000000000E+00  0.21087271914E+04  0.21087271914E+04  0.00000000000E+00 0. -1.
         22   -1    0    0    0    0 -0.00000000000E+00 -0.00000000000E+00 -0.54569922127E+03  0.54569922127E+03  0.00000000000E+00 0. -1.
        -24    2    1    2    0    0 -0.11524191673E+03  0.25917640643E+02 -0.47221901824E+03  0.49337022918E+03  0.80442267417E+02 0.  0.
         25    2    1    2    0    0  0.10035241657E+03 -0.98886602415E+02  0.83301012892E+02  0.20599992065E+03  0.12509093056E+03 0.  0.
         24    2    1    2    0    0  0.14889500155E+02  0.72968961772E+02  0.19519459755E+04  0.19550562629E+04  0.81275660751E+02 0.  0.
        -11    1    5    5    0    0 -0.24095147561E+02  0.66049871826E+02  0.11740317224E+04  0.11761350462E+04  0.00000000000E+00 0.  1.
         12    1    5    5    0    0  0.38984647716E+02  0.69190899461E+01  0.77791425309E+03  0.77892121664E+03  0.00000000000E+00 0. -1.
         11    1    3    3    0    0 -0.11414834329E+03  0.45569668229E+02 -0.41767765303E+03  0.43538610540E+03  0.00000000000E+00 0. -1.
        -12    1    3    3    0    0 -0.10935734337E+01 -0.19652027586E+02 -0.54541365213E+02  0.57984123779E+02  0.00000000000E+00 0.  1.
          5    1    4    4  501    0  0.66824721029E+02 -0.12707067701E+03  0.71510147733E+02  0.16044835283E+03  0.41800000000E+01 0. -1.
         -5    1    4    4    0  501  0.33527695542E+02  0.28184074599E+02  0.11790865159E+02  0.45551567817E+02  0.41800000000E+01 0. -1.
</event>
<event>
11    1  0.8041700E-009  0.1511041E+03  0.7561462E-02  0.1095756E+00
         22   -1    0    0    0    0  0.00000000000E+00  0.00000000000E+00  0.18772363155E+04  0.18772363155E+04  0.00000000000E+00 0.  1.
         22   -1    0    0    0    0 -0.00000000000E+00 -0.00000000000E+00 -0.62497052182E+02  0.62497052182E+02  0.00000000000E+00 0.  1.
         24    2    1    2    0    0  0.31334002380E+02  0.36310797117E+02 -0.79437773557E+01  0.95530146100E+02  0.82235099093E+02 0.  0.
         25    2    1    2    0    0  0.61993530308E+02 -0.39391792585E+02  0.70413138791E+03  0.71891834909E+03  0.12509064756E+03 0.  0.
        -24    2    1    2    0    0 -0.93327532689E+02  0.30809954678E+01  0.11185516527E+04  0.11252848725E+04  0.79929490491E+02 0.  0.
        -13    1    3    3    0    0 -0.20141656569E+02  0.13735750003E+02 -0.26812751108E+02  0.36239216044E+02  0.00000000000E+00 0.  1.
         14    1    3    3    0    0  0.51475658949E+02  0.22575047114E+02  0.18868973752E+02  0.59290930056E+02  0.00000000000E+00 0. -1.
         11    1    5    5    0    0  0.63302825706E+01 -0.17129931046E+02  0.98612319952E+02  0.10028906551E+03  0.00000000000E+00 0. -1.
        -12    1    5    5    0    0 -0.99657815259E+02  0.20210926514E+02  0.10199393328E+04  0.10249958069E+04  0.00000000000E+00 0.  1.
          5    1    4    4  501    0 -0.17783639534E+02 -0.65281233363E+01  0.45169242265E+03  0.45210882684E+03  0.41800000000E+01 0.  1.
         -5    1    4    4    0  501  0.79777169842E+02 -0.32863669249E+02  0.25243896525E+03  0.26680952225E+03  0.41800000000E+01 0.  1.
</event>
<event>
11    1  0.8041700E-009  0.1356933E+03  0.7561462E-02  0.1112465E+00
         22   -1    0    0    0    0  0.00000000000E+00  0.00000000000E+00  0.69409664154E+03  0.69409664154E+03  0.00000000000E+00 0.  1.
         22   -1    0    0    0    0 -0.00000000000E+00 -0.00000000000E+00 -0.28018941957E+03  0.28018941957E+03  0.00000000000E+00 0.  1.
        -24    2    1    2    0    0  0.45654558965E+02  0.24487264127E+02 -0.17771398983E+03  0.20340293703E+03  0.84300223919E+02 0.  0.
         25    2    1    2    0    0 -0.28280717192E+02 -0.60190565852E+02 -0.28372296345E+02  0.14448277358E+03  0.12509029330E+03 0.  0.
         24    2    1    2    0    0 -0.17373841773E+02  0.35703301726E+02  0.61999350814E+03  0.62640035050E+03  0.80055436000E+02 0.  0.
        -11    1    5    5    0    0 -0.87951065952E+01  0.31073135118E+02  0.61422425812E+03  0.61507262407E+03  0.00000000000E+00 0.  1.
         12    1    5    5    0    0 -0.85787351780E+01  0.46301666072E+01  0.57692500243E+01  0.11327726423E+02  0.00000000000E+00 0. -1.
         11    1    3    3    0    0 -0.20440950575E+02  0.18539734827E+02 -0.26464338767E+02  0.38235002997E+02  0.00000000000E+00 0. -1.
        -12    1    3    3    0    0  0.66095509540E+02  0.59475292998E+01 -0.15124965106E+03  0.16516793403E+03  0.00000000000E+00 0.  1.
          5    1    4    4  501    0 -0.17089746567E+02 -0.47039001371E+02  0.45947409985E+02  0.68068817913E+02  0.41800000000E+01 0.  1.
         -5    1    4    4    0  501 -0.11190970625E+02 -0.13151564482E+02 -0.74319706330E+02  0.76413955668E+02  0.41800000000E+01 0.  1.
</event>
<event>
11    1  0.8041700E-009  0.1484680E+03  0.7561462E-02  0.1098455E+00
         22   -1    0    0    0    0  0.00000000000E+00  0.00000000000E+00  0.71192147553E+03  0.71192147553E+03  0.00000000000E+00 0.  1.
         22   -1    0    0    0    0 -0.00000000000E+00 -0.00000000000E+00 -0.25860716008E+03  0.25860716008E+03  0.00000000000E+00 0.  1.
        -24    2    1    2    0    0  0.10178060179E+02  0.30778370762E+02 -0.14247688559E+03  0.16899502642E+03  0.84904387458E+02 0.  0.
         25    2    1    2    0    0  0.13896572972E+02 -0.10567641652E+03 -0.28833661105E+02  0.16685817567E+03  0.12509856525E+03 0.  0.
         24    2    1    2    0    0 -0.24074633151E+02  0.74898045757E+02  0.62462486215E+03  0.63467543352E+03  0.80420036508E+02 0.  0.
        -11    1    5    5    0    0 -0.21404027760E+01  0.81280210488E+02  0.36006809170E+03  0.36913423656E+03  0.00000000000E+00 0.  1.
         12    1    5    5    0    0 -0.21934230375E+02 -0.63821647311E+01  0.26455677045E+03  0.26554119695E+03  0.00000000000E+00 0. -1.
         11    1    3    3    0    0 -0.50737969148E+01 -0.67609623436E+01  0.89085507889E+01  0.12280728973E+02  0.00000000000E+00 0. -1.
        -12    1    3    3    0    0  0.15251857094E+02  0.37539333105E+02 -0.15138543638E+03  0.15671429744E+03  0.00000000000E+00 0.  1.
          5    1    4    4  501    0  0.37947176459E+00 -0.22884295816E+02 -0.69679124289E+02  0.73460790600E+02  0.41800000000E+01 0. -1.
         -5    1    4    4    0  501  0.13517101207E+02 -0.82792120703E+02  0.40845463185E+02  0.93397385072E+02  0.41800000000E+01 0. -1.
</event>
<event>
11    1  0.8041700E-009  0.1874777E+03  0.7561462E-02  0.1063750E+00
         22   -1    0    0    0    0  0.00000000000E+00  0.00000000000E+00  0.96113265849E+03  0.96113265849E+03  0.00000000000E+00 0.  1.
         22   -1    0    0    0    0 -0.00000000000E+00 -0.00000000000E+00 -0.11533043387E+03  0.11533043387E+03  0.00000000000E+00 0.  1.
        -24    2    1    2    0    0  0.42608157490E+02  0.81803765048E+02 -0.31184862362E+02  0.12770655106E+03  0.82638710554E+02 0.  0.
         25    2    1    2    0    0 -0.12413560453E+03  0.50724405924E+02  0.38535177969E+03  0.42676312297E+03  0.12509258709E+03 0.  0.
         24    2    1    2    0    0  0.81527447042E+02 -0.13252817097E+03  0.49163530729E+03  0.52199341833E+03  0.81002547428E+02 0.  0.
        -11    1    5    5    0    0  0.92748323550E+02 -0.85651286250E+02  0.33002569269E+03  0.35334876849E+03  0.00000000000E+00 0.  1.
         12    1    5    5    0    0 -0.11220876507E+02 -0.46876884722E+02  0.16160961459E+03  0.16864464984E+03  0.00000000000E+00 0. -1.
         11    1    3    3    0    0  0.16598249171E+02  0.27888784448E+02  0.28487486756E+02  0.43183597294E+02  0.00000000000E+00 0. -1.
        -12    1    3    3    0    0  0.26009908319E+02  0.53914980599E+02 -0.59672349118E+02  0.84522953765E+02  0.00000000000E+00 0.  1.
          5    1    4    4  501    0 -0.25497916051E+02 -0.13570593585E+00  0.25156336352E+03  0.25288685297E+03  0.41800000000E+01 0. -1.
         -5    1    4    4    0  501 -0.98637688482E+02  0.50860111860E+02  0.13378841617E+03  0.17387627000E+03  0.41800000000E+01 0. -1.
</event>
<event>
11    1  0.8041700E-009  0.1508851E+03  0.7561462E-02  0.1095978E+00
         22   -1    0    0    0    0  0.00000000000E+00  0.00000000000E+00  0.44277165550E+03  0.44277165550E+03  0.00000000000E+00 0.  1.
         22   -1    0    0    0    0 -0.00000000000E+00 -0.00000000000E+00 -0.46270652236E+03  0.46270652236E+03  0.00000000000E+00 0. -1.
         24    2    1    2    0    0  0.27774448472E+02  0.30860581249E+02 -0.38546703258E+03  0.39584569822E+03  0.79907372197E+02 0.  0.
         25    2    1    2    0    0  0.14799217264E+02  0.48358424545E+02  0.11199014910E+02  0.13539014575E+03  0.12509004587E+03 0.  0.
        -24    2    1    2    0    0 -0.42573665736E+02 -0.79219005794E+02  0.35433315081E+03  0.37424233389E+03  0.80107270713E+02 0.  0.
        -11    1    3    3    0    0 -0.36398682023E+01  0.49575455229E+02 -0.16358785243E+03  0.17097356481E+03  0.00000000000E+00 0.  1.
         12    1    3    3    0    0  0.31414316674E+02 -0.18714873981E+02 -0.22187918015E+03  0.22487213341E+03  0.00000000000E+00 0. -1.
         11    1    5    5    0    0  0.17433992294E+02 -0.31411232660E+02  0.18332107361E+03  0.18680799141E+03  0.00000000000E+00 0. -1.
        -12    1    5    5    0    0 -0.60007658030E+02 -0.47807773134E+02  0.17101207721E+03  0.18743434249E+03  0.00000000000E+00 0.  1.
          5    1    4    4  501    0  0.56838637054E+02 -0.14236323958E+02 -0.17558741524E+01  0.58769542078E+02  0.41800000000E+01 0.  1.
         -5    1    4    4    0  501 -0.42039419790E+02  0.62594748503E+02  0.12954889062E+02  0.76620603672E+02  0.41800000000E+01 0.  1.
</event>
<event>
11    1  0.8041700E-009  0.2491806E+03  0.7561462E-02  0.1024337E+00
         22   -1    0    0    0    0  0.00000000000E+00  0.00000000000E+00  0.14891990156E+04  0.14891990156E+04  0.00000000000E+00 0.  1.
         22   -1    0    0    0    0 -0.00000000000E+00 -0.00000000000E+00 -0.39919782872E+03  0.39919782872E+03  0.00000000000E+00 0. -1.
        -24    2    1    2    0    0  0.12647718238E+03  0.71587294397E+01 -0.19870790091E+03  0.24840413839E+03  0.78562465689E+02 0.  0.
         25    2    1    2    0    0 -0.42040121857E+02  0.19437084225E+03 -0.82669419624E+02  0.24905598926E+03  0.12508899505E+03 0.  0.
         24    2    1    2    0    0 -0.84437060525E+02 -0.20152957169E+03  0.13713785074E+04  0.13909367167E+04  0.79260038580E+02 0.  0.
        -11    1    5    5    0    0 -0.11649980221E+02 -0.10465011493E+03  0.48389998627E+03  0.49522375277E+03  0.00000000000E+00 0.  1.
         12    1    5    5    0    0 -0.72787080303E+02 -0.96879456761E+02  0.88747852116E+03  0.89571296391E+03  0.00000000000E+00 0. -1.
         13    1    3    3    0    0  0.88813553514E+02 -0.37367271462E+01 -0.67932662776E+02  0.11187786684E+03  0.00000000000E+00 0. -1.
        -14    1    3    3    0    0  0.37663628867E+02  0.10895456586E+02 -0.13077523813E+03  0.13652627154E+03  0.00000000000E+00 0.  1.
          5    1    4    4  501    0 -0.24163830009E+02  0.60917486647E+02  0.31166381536E+02  0.72688696495E+02  0.41800000000E+01 0. -1.
         -5    1    4    4    0  501 -0.17876291847E+02  0.13345335560E+03 -0.11383580116E+03  0.17636729277E+03  0.41800000000E+01 0. -1.
</event>
<event>
11    1  0.8041700E-009  0.1366370E+03  0.7561462E-02  0.1111373E+00
         22   -1    0    0    0    0  0.00000000000E+00  0.00000000000E+00  0.67982724771E+03  0.67982724771E+03  0.00000000000E+00 0.  1.
         22   -1    0    0    0    0 -0.00000000000E+00 -0.00000000000E+00 -0.57576210211E+03  0.57576210211E+03  0.00000000000E+00 0.  1.
         24    2    1    2    0    0  0.44713923386E+02 -0.26883064225E+02 -0.48241786288E+03  0.49139306506E+03  0.77576516304E+02 0.  0.
         25    2    1    2    0    0 -0.83282437990E+02  0.62841383703E+02 -0.68608171952E+01  0.16303079721E+03  0.12508783331E+03 0.  0.
        -24    2    1    2    0    0  0.38568514604E+02 -0.35958319478E+02  0.59334382567E+03  0.60116548755E+03  0.81009363026E+02 0.  0.
        -13    1    3    3    0    0  0.65361005068E+02 -0.30971221527E+02 -0.38346449301E+03  0.39022595371E+03  0.00000000000E+00 0.  1.
         14    1    3    3    0    0 -0.20647081683E+02  0.40881573011E+01 -0.98953369862E+02  0.10116711135E+03  0.00000000000E+00 0. -1.
         11    1    5    5    0    0 -0.13149475926E+02  0.27360642996E+01  0.32046788632E+03  0.32074921813E+03  0.00000000000E+00 0. -1.
        -12    1    5    5    0    0  0.51717990531E+02 -0.38694383777E+02  0.27287593935E+03  0.28041626942E+03  0.00000000000E+00 0.  1.
          5    1    4    4  501    0 -0.53920450127E+02  0.28245518192E+02 -0.65007840419E+02  0.89155571648E+02  0.41800000000E+01 0.  1.
         -5    1    4    4    0  501 -0.29361987863E+02  0.34595865511E+02  0.58147023224E+02  0.73875225560E+02  0.41800000000E+01 0.  1.
</event>
<event>
11    1  0.8041700E-009  0.1705224E+03  0.7561462E-02  0.1077578E+00
         22   -1    0    0    0    0  0.00000000000E+00  0.00000000000E+00  0.58802651609E+03  0.58802651609E+03  0.00000000000E+00 0. -1.
         22   -1    0    0    0    0 -0.00000000000E+00 -0.00000000000E+00 -0.65597060764E+03  0.65597060764E+03  0.00000000000E+00 0.  1.
        -24    2    1    2    0    0  0.10241604240E+03  0.45518086679E+02 -0.55882862119E+03  0.57557614115E+03  0.80234184977E+02 0.  0.
         25    2    1    2    0    0 -0.16921688220E+03 -0.78169441618E+02  0.73468706556E+02  0.23619970769E+03  0.12509131162E+03 0.  0.
         24    2    1    2    0    0  0.66800839800E+02  0.32651354939E+02  0.41741582308E+03  0.43222127489E+03  0.83969029584E+02 0.  0.
        -11    1    5    5    0    0  0.52058918191E+02  0.19310242898E+02  0.10161856386E+03  0.11579874337E+03  0.00000000000E+00 0.  1.
         12    1    5    5    0    0  0.14741921609E+02  0.13341112041E+02  0.31579725922E+03  0.31642253152E+03  0.00000000000E+00 0. -1.
         13    1    3    3    0    0 -0.10171776457E+02  0.19880459209E+02 -0.95326825659E+02  0.97907616582E+02  0.00000000000E+00 0. -1.
        -14    1    3    3    0    0  0.11258781886E+03  0.25637627470E+02 -0.46350179554E+03  0.47766852457E+03  0.00000000000E+00 0.  1.
          5    1    4    4  501    0  0.14692397065E+02  0.10121231470E+02 -0.24485598373E+01  0.18487122633E+02  0.41800000000E+01 0.  1.
         -5    1    4    4    0  501 -0.18390927927E+03 -0.88290673088E+02  0.75917266394E+02  0.21771258506E+03  0.41800000000E+01 0.  1.
</event>
<event>
11    1  0.8041700E-009  0.5236790E+03  0.7561462E-02  0.9342113E-01
         22   -1    0    0    0    0  0.00000000000E+00  0.00000000000E+00  0.44376025483E+03  0.44376025483E+03  0.00000000000E+00 0.  1.
         22   -1    0    0    0    0 -0.00000000000E+00 -0.00000000000E+00 -0.21137740623E+04  0.21137740623E+04  0.00000000000E+00 0. -1.
         24    2    1    2    0    0 -0.44459562166E+02 -0.27902020955E+02 -0.11982875205E+04  0.12020223776E+04  0.78801263263E+02 0.  0.
         25    2    1    2    0    0 -0.23673997553E+03  0.45178982692E+03 -0.62658301985E+03  0.81756567192E+03  0.12508990132E+03 0.  0.
        -24    2    1    2    0    0  0.28119953770E+03 -0.42388780596E+03  0.15485673290E+03  0.53794626757E+03  0.81556894429E+02 0.  0.
        -13    1    3    3    0    0 -0.56891280315E+02 -0.26394958568E+02 -0.54216405686E+03  0.54577942080E+03  0.00000000000E+00 0.  1.
         14    1    3    3    0    0  0.12431718149E+02 -0.15070623879E+01 -0.65612346360E+03  0.65624295679E+03  0.00000000000E+00 0. -1.
         13    1    5    5    0    0  0.96877937146E+02 -0.21947114220E+03  0.69373387398E+02  0.24973102299E+03  0.00000000000E+00 0. -1.
        -14    1    5    5    0    0  0.18432160055E+03 -0.20441666376E+03  0.85483345499E+02  0.28821524459E+03  0.00000000000E+00 0.  1.
          5    1    4    4  501    0 -0.62617861837E+01  0.11348917309E+03 -0.10770368112E+03  0.15664149419E+03  0.41800000000E+01 0.  1.
         -5    1    4    4    0  501 -0.23047818935E+03  0.33830065383E+03 -0.51887933873E+03  0.66092417773E+03  0.41800000000E+01 0.  1.
</event>
<event>
11    1  0.8041700E-009  0.1820448E+03  0.7561462E-02  0.1068001E+00
         22   -1    0    0    0    0  0.00000000000E+00  0.00000000000E+00  0.66175239829E+03  0.66175239829E+03  0.00000000000E+00 0.  1.
         22   -1    0    0    0    0 -0.00000000000E+00 -0.00000000000E+00 -0.42962268239E+03  0.42962268239E+03  0.00000000000E+00 0.  1.
        -24    2    1    2    0    0 -0.68341704937E+02 -0.97342685162E+02 -0.21376247282E+03  0.25733724892E+03  0.79886656629E+02 0.  0.
         25    2    1    2    0    0  0.13529703058E+03  0.10901165754E+03 -0.12871176224E+03  0.24980662741E+03  0.12509118833E+03 0.  0.
         24    2    1    2    0    0 -0.66955325640E+02 -0.11668972377E+02  0.57460395096E+03  0.58423120435E+03  0.80853071217E+02 0.  0.
        -13    1    5    5    0    0 -0.58060463044E+02 -0.42497440013E+02  0.44081361063E+03  0.44664716398E+03  0.00000000000E+00 0.  1.
         14    1    5    5    0    0 -0.88948625965E+01  0.30828467636E+02  0.13379034034E+03  0.13758404037E+03  0.00000000000E+00 0. -1.
         11    1    3    3    0    0  0.12367744576E+02 -0.34414411202E+02 -0.87309216068E+02  0.94658396430E+02  0.00000000000E+00 0. -1.
        -12    1    3    3    0    0 -0.80709449513E+02 -0.62928273960E+02 -0.12645325675E+03  0.16267885249E+03  0.00000000000E+00 0.  1.
          5    1    4    4  501    0  0.43204509795E+01 -0.25548882695E+02 -0.14626686975E+02  0.30047031059E+02  0.41800000000E+01 0. -1.
         -5    1    4    4    0  501  0.13097657960E+03  0.13456054023E+03 -0.11408507526E+03  0.21975959635E+03  0.41800000000E+01 0. -1.
</event>
<event>
11    1  0.8041700E-009  0.1464917E+03  0.7561462E-02  0.1100518E+00
         22   -1    0    0    0    0  0.00000000000E+00  0.00000000000E+00  0.58285576814E+03  0.58285576814E+03  0.00000000000E+00 0. -1.
         22   -1    0    0    0    0 -0.00000000000E+00 -0.00000000000E+00 -0.11522409342E+04  0.11522409342E+04  0.00000000000E+00 0.  1.
        -24    2    1    2    0    0 -0.34196747599E+02 -0.41576997161E+02 -0.92810053127E+03  0.93362899893E+03  0.85990971912E+02 0.  0.
         25    2    1    2    0    0  0.54160601944E+02  0.11388615620E+03 -0.17936476037E+03  0.25243516959E+03  0.12509344589E+03 0.  0.
         24    2    1    2    0    0 -0.19963854345E+02 -0.72309159034E+02  0.53808012555E+03  0.54903253386E+03  0.79242234739E+02 0.  0.
        -13    1    5    5    0    0  0.41201486050E+01  0.14950399856E+02  0.42231855772E+02  0.44989106708E+02  0.00000000000E+00 0.  1.
         14    1    5    5    0    0 -0.24084002950E+02 -0.87259558890E+02  0.49584826978E+03  0.50404342715E+03  0.00000000000E+00 0. -1.
         13    1    3    3    0    0  0.18334611258E+02 -0.25360771412E+02 -0.13308518657E+03  0.13671500861E+03  0.00000000000E+00 0. -1.
        -14    1    3    3    0    0 -0.52531358857E+02 -0.16216225749E+02 -0.79501534470E+03  0.79691399031E+03  0.00000000000E+00 0.  1.
          5    1    4    4  501    0  0.32731433830E+02  0.11068168015E+03 -0.58300470117E+02  0.12937618906E+03  0.41800000000E+01 0. -1.
         -5    1    4    4    0  501  0.21429168114E+02  0.32044760492E+01 -0.12106429025E+03  0.12305898052E+03  0.41800000000E+01 0. -1.
</event>
<event>
11    1  0.8041700E-009  0.1293884E+03  0.7561462E-02  0.1120023E+00
         22   -1    0    0    0    0  0.00000000000E+00  0.00000000000E+00  0.65052128906E+03  0.65052128906E+03  0.00000000000E+00 0. -1.
         22   -1    0    0    0    0 -0.00000000000E+00 -0.00000000000E+00 -0.50647284075E+03  0.50647284075E+03  0.00000000000E+00 0. -1.
        -24    2    1    2    0    0 -0.15895617089E+02  0.30473678427E+02 -0.45356167345E+03  0.46178897453E+03  0.79684061482E+02 0.  0.
         25    2    1    2    0    0 -0.19779446441E+01 -0.75996780764E+01  0.40467292901E+02  0.13170820915E+03  0.12509109957E+03 0.  0.
         24    2    1    2    0    0  0.17873561733E+02 -0.22874000351E+02  0.55714282887E+03  0.56349694613E+03  0.79233783413E+02 0.  0.
        -13    1    5    5    0    0  0.83040582041E+01 -0.42486380588E+02  0.15993882640E+03  0.16569392900E+03  0.00000000000E+00 0.  1.
         14    1    5    5    0    0  0.95695035291E+01  0.19612380237E+02  0.39720400247E+03  0.39780301712E+03  0.00000000000E+00 0. -1.
         13    1    3    3    0    0 -0.20659432499E+02  0.45580862801E+02 -0.43275343497E+03  0.43563742112E+03  0.00000000000E+00 0. -1.
        -14    1    3    3    0    0  0.47638154101E+01 -0.15107184373E+02 -0.20808238488E+02  0.26151553413E+02  0.00000000000E+00 0.  1.
          5    1    4    4  501    0  0.50191081907E+02  0.93536299085E+01 -0.15210107440E+02  0.53436456317E+02  0.41800000000E+01 0. -1.
         -5    1    4    4    0  501 -0.52169026551E+02 -0.16953307985E+02  0.55677400341E+02  0.78271752833E+02  0.41800000000E+01 0. -1.
</event>
<event>
11    1  0.8041700E-009  0.1600980E+03  0.7561462E-02  0.1086985E+00
         22   -1    0    0    0    0  0.00000000000E+00  0.00000000000E+00  0.78923718893E+03  0.78923718893E+03  0.00000000000E+00 0. -1.
         22   -1    0    0    0    0 -0.00000000000E+00 -0.00000000000E+00 -0.37818614533E+03  0.37818614533E+03  0.00000000000E+00 0. -1.
        -24    2    1    2    0    0 -0.72449034184E+02  0.64727508714E+02 -0.29735631333E+03  0.32283593985E+03  0.79773141108E+02 0.  0.
         25    2    1    2    0    0  0.82248744611E+02 -0.97782735659E+02  0.57545533089E+02  0.18784045456E+03  0.12508488561E+03 0.  0.
         24    2    1    2    0    0 -0.97997104263E+01  0.33055226945E+02  0.65086182384E+03  0.65674693985E+03  0.80664409165E+02 0.  0.
        -11    1    5    5    0    0  0.22172595546E+02  0.47587225279E+02  0.40553078777E+03  0.40891489069E+03  0.00000000000E+00 0.  1.
         12    1    5    5    0    0 -0.31972305972E+02 -0.14531998334E+02  0.24533103608E+03  0.24783204915E+03  0.00000000000E+00 0. -1.
         11    1    3    3    0    0 -0.54603808423E+02  0.65204457260E+02 -0.29209564097E+03  0.30422534513E+03  0.00000000000E+00 0. -1.
        -12    1    3    3    0    0 -0.17845225761E+02 -0.47694854593E+00 -0.52606723591E+01  0.18610594726E+02  0.00000000000E+00 0.  1.
          5    1    4    4  501    0  0.58207071930E+02 -0.50797218697E+02 -0.32071443045E+02  0.83752435839E+02  0.41800000000E+01 0.  1.
         -5    1    4    4    0  501  0.24041672681E+02 -0.46985516962E+02  0.89616976134E+02  0.10408801872E+03  0.41800000000E+01 0.  1.
</event>
<event>
11    1  0.8041700E-009  0.1786598E+03  0.7561462E-02  0.1070732E+00
         22   -1    0    0    0    0  0.00000000000E+00  0.00000000000E+00  0.15149403632E+03  0.15149403632E+03  0.00000000000E+00 0. -1.
         22   -1    0    0    0    0 -0.00000000000E+00 -0.00000000000E+00 -0.36668056149E+03  0.36668056149E+03  0.00000000000E+00 0.  1.
        -24    2    1    2    0    0  0.70926370468E+02  0.43906339997E+02 -0.77672625799E+02  0.14010933454E+03  0.81481728674E+02 0.  0.
         25    2    1    2    0    0  0.65497838025E+02  0.49576576278E+02 -0.10096822451E+03  0.18052718798E+03  0.12509068526E+03 0.  0.
         24    2    1    2    0    0 -0.13642420849E+03 -0.93482916275E+02 -0.36545674867E+02  0.19753807529E+03  0.10166161783E+03 0.  0.
        -13    1    5    5    0    0 -0.33590581817E+02 -0.80696142915E+02 -0.34273743439E+02  0.93887614505E+02  0.00000000000E+00 0.  1.
         14    1    5    5    0    0 -0.10283362668E+03 -0.12786773360E+02 -0.22719314276E+01  0.10365046078E+03  0.00000000000E+00 0. -1.
         13    1    3    3    0    0  0.33479975203E+02 -0.19023417947E+02 -0.86241869913E+01  0.39461066524E+02  0.00000000000E+00 0. -1.
        -14    1    3    3    0    0  0.37446395265E+02  0.62929757944E+02 -0.69048438807E+02  0.10064826802E+03  0.00000000000E+00 0.  1.
          5    1    4    4  501    0  0.29231309953E+02 -0.70136364778E+01  0.23917185627E+02  0.38641489963E+02  0.41800000000E+01 0. -1.
         -5    1    4    4    0  501  0.36266528072E+02  0.56590212756E+02 -0.12488541013E+03  0.14188569802E+03  0.41800000000E+01 0. -1.
</event>
<event>
11    1  0.8041700E-009  0.1751712E+03  0.7561462E-02  0.1073617E+00
         22   -1    0    0    0    0  0.00000000000E+00  0.00000000000E+00  0.34314550279E+03  0.34314550279E+03  0.00000000000E+00 0. -1.
         22   -1    0    0    0    0 -0.00000000000E+00 -0.00000000000E+00 -0.28051817830E+03  0.28051817830E+03  0.00000000000E+00 0.  1.
         24    2    1    2    0    0 -0.86493031464E+02  0.30126535419E+02 -0.13997874947E+03  0.18673601898E+03  0.82991793885E+02 0.  0.
         25    2    1    2    0    0  0.37785755699E+02  0.95117292199E+02 -0.21370582234E+02  0.16303399349E+03  0.12509323978E+03 0.  0.
        -24    2    1    2    0    0  0.48707275765E+02 -0.12524382762E+03  0.22397665619E+03  0.27389366863E+03  0.82424414640E+02 0.  0.
        -13    1    3    3    0    0 -0.69695385541E+02  0.10003732750E+02 -0.14392848660E+03  0.16022774632E+03  0.00000000000E+00 0.  1.
         14    1    3    3    0    0 -0.16797645923E+02  0.20122802669E+02  0.39497371354E+01  0.26508272657E+02  0.00000000000E+00 0. -1.
         11    1    5    5    0    0  0.62064212747E+02 -0.12296917730E+03  0.17295517856E+03  0.22110377396E+03  0.00000000000E+00 0. -1.
        -12    1    5    5    0    0 -0.13356936982E+02 -0.22746503220E+01  0.51021477634E+02  0.52789894673E+02  0.00000000000E+00 0.  1.
          5    1    4    4  501    0  0.62661560818E+02  0.10620420064E+03  0.68762811516E+01  0.12357410360E+03  0.41800000000E+01 0.  1.
         -5    1    4    4    0  501 -0.24875805120E+02 -0.11086908442E+02 -0.28246863385E+02  0.39459889892E+02  0.41800000000E+01 0.  1.
</event>
<event>
11    1  0.8041700E-009  0.1448295E+03  0.7561462E-02  0.1102282E+00
         22   -1    0    0    0    0  0.00000000000E+00  0.00000000000E+00  0.11003236234E+04  0.11003236234E+04  0.00000000000E+00 0.  1.
         22   -1    0    0    0    0 -0.00000000000E+00 -0.00000000000E+00 -0.36843492879E+03  0.36843492879E+03  0.00000000000E+00 0. -1.
         24    2    1    2    0    0  0.12971947104E+02 -0.74273822872E+02 -0.30448971871E+03  0.32340586205E+03  0.78692379760E+02 0.  0.
         25    2    1    2    0    0  0.33567474177E+02  0.54459736136E+02  0.42536685979E+02  0.14679458485E+03  0.12508653926E+03 0.  0.
        -24    2    1    2    0    0 -0.46539421281E+02  0.19814086735E+02  0.99384172736E+03  0.99855810532E+03  0.82694588015E+02 0.  0.
        -13    1    3    3    0    0  0.18255622297E+02  0.54946767311E+01 -0.18927641350E+02  0.26864750602E+02  0.00000000000E+00 0.  1.
         14    1    3    3    0    0 -0.52836751934E+01 -0.79768499603E+02 -0.28556207736E+03  0.29654111144E+03  0.00000000000E+00 0. -1.
         13    1    5    5    0    0  0.18541302459E+01 -0.20442321253E+02  0.81419321923E+02  0.83966852267E+02  0.00000000000E+00 0. -1.
        -14    1    5    5    0    0 -0.48393551527E+02  0.40256407988E+02  0.91242240544E+03  0.91459125305E+03  0.00000000000E+00 0.  1.
          5    1    4    4  501    0 -0.22074442185E+02 -0.11597160496E+02  0.53944487104E+02  0.59575626042E+02  0.41800000000E+01 0. -1.
         -5    1    4    4    0  501  0.55641916362E+02  0.66056896633E+02 -0.11407801126E+02  0.87218958809E+02  0.41800000000E+01 0. -1.
</event>
<event>
11    1  0.8041700E-009  0.1434206E+03  0.7561462E-02  0.1103798E+00
         22   -1    0    0    0    0  0.00000000000E+00  0.00000000000E+00  0.67783517534E+03  0.67783517534E+03  0.00000000000E+00 0.  1.
         22   -1    0    0    0    0 -0.00000000000E+00 -0.00000000000E+00 -0.11611458053E+03  0.11611458053E+03  0.00000000000E+00 0. -1.
         24    2    1    2    0    0  0.30588967711E+02 -0.52541916586E+02 -0.29871928302E+02  0.10429506128E+03  0.79301890036E+02 0.  0.
         25    2    1    2    0    0 -0.45298473927E+02  0.99807592387E+02  0.11057283705E+03  0.19971569171E+03  0.12508596237E+03 0.  0.
        -24    2    1    2    0    0  0.14709506217E+02 -0.47265675800E+02  0.48101968606E+03  0.48993900288E+03  0.78802756813E+02 0.  0.
        -11    1    3    3    0    0  0.11114370673E+02  0.18237181240E+02 -0.21675575936E+02  0.30429502250E+02  0.00000000000E+00 0.  1.
         12    1    3    3    0    0  0.19474597038E+02 -0.70779097827E+02 -0.81963523658E+01  0.73865559032E+02  0.00000000000E+00 0. -1.
         13    1    5    5    0    0 -0.51254695011E+01 -0.43806124977E+02  0.11201247939E+03  0.12038289979E+03  0.00000000000E+00 0. -1.
        -14    1    5    5    0    0  0.19834975718E+02 -0.34595508228E+01  0.36900720667E+03  0.36955610309E+03  0.00000000000E+00 0.  1.
          5    1    4    4  501    0 -0.10257426248E+01 -0.41494976244E+01  0.83155238169E+02  0.83369877734E+02  0.41800000000E+01 0.  1.
         -5    1    4    4    0  501 -0.44272731303E+02  0.10395709001E+03  0.27417598883E+02  0.11634581397E+03  0.41800000000E+01 0.  1.
</event>
<event>
11    1  0.8041700E-009  0.1502597E+03  0.7561462E-02  0.1096614E+00
         22   -1    0    0    0    0  0.00000000000E+00  0.00000000000E+00  0.87156158035E+02  0.87156158035E+02  0.00000000000E+00 0.  1.
         22   -1    0    0    0    0 -0.00000000000E+00 -0.00000000000E+00 -0.79499394345E+03  0.79499394345E+03  0.00000000000E+00 0. -1.
         24    2    1    2    0    0  0.29278230462E+02  0.43679447158E+02 -0.53073301632E+03  0.54047354429E+03  0.87572875862E+02 0.  0.
         25    2    1    2    0    0  0.44517963015E+02 -0.82835379818E+02 -0.16136145614E+03  0.22478770204E+03  0.12509373398E+03 0.  0.
        -24    2    1    2    0    0 -0.73796193477E+02  0.39155932660E+02 -0.15743312962E+02  0.11688885515E+03  0.80225228713E+02 0.  0.
        -13    1    3    3    0    0  0.18109492018E+02 -0.18864288042E+02 -0.30048952984E+03  0.30162521879E+03  0.00000000000E+00 0.  1.
         14    1    3    3    0    0  0.11168738444E+02  0.62543735201E+02 -0.23024348647E+03  0.23884832550E+03  0.00000000000E+00 0. -1.
         11    1    5    5    0    0 -0.74441326896E+02 -0.88660597560E+00 -0.18613964527E+02  0.76738366516E+02  0.00000000000E+00 0. -1.
        -12    1    5    5    0    0  0.64513341874E+00  0.40042538635E+02  0.28706515645E+01  0.40150488638E+02  0.00000000000E+00 0.  1.
          5    1    4    4  501    0 -0.43863556466E+02 -0.31886674285E+02 -0.54949355817E+02  0.77315429815E+02  0.41800000000E+01 0.  1.
         -5    1    4    4    0  501  0.88381519481E+02 -0.50948705533E+02 -0.10641210032E+03  0.14747227223E+03  0.41800000000E+01 0.  1.
</event>
<event>
11    1  0.8041700E-009  0.1439869E+03  0.7561462E-02  0.1103186E+00
         22   -1    0    0    0    0  0.00000000000E+00  0.00000000000E+00  0.72825520324E+03  0.72825520324E+03  0.00000000000E+00 0. -1.
         22   -1    0    0    0    0 -0.00000000000E+00 -0.00000000000E+00 -0.70334113336E+03  0.70334113336E+03  0.00000000000E+00 0.  1.
         24    2    1    2    0    0  0.45464325204E+02  0.17959388976E+01 -0.67620779662E+03  0.68219459410E+03  0.77860450474E+02 0.  0.
         25    2    1    2    0    0  0.34164665468E+02  0.26588463859E+02  0.24530937706E+03  0.27874457678E+03  0.12509067844E+03 0.  0.
        -24    2    1    2    0    0 -0.79628990672E+02 -0.28384402756E+02  0.45581248945E+03  0.47065716572E+03  0.81281557770E+02 0.  0.
        -13    1    3    3    0    0  0.29053317488E+01  0.72550707089E+01 -0.52389947405E+03  0.52395776158E+03  0.00000000000E+00 0.  1.
         14    1    3    3    0    0  0.42558993456E+02 -0.54591318112E+01 -0.15230832257E+03  0.15823683252E+03  0.00000000000E+00 0. -1.
         13    1    5    5    0    0 -0.92209548263E+02 -0.25239721327E+02  0.43970748862E+03  0.44998035498E+03  0.00000000000E+00 0. -1.
        -14    1    5    5    0    0  0.12580557591E+02 -0.31446814295E+01  0.16105000827E+02  0.20676810737E+02  0.00000000000E+00 0.  1.
          5    1    4    4  501    0  0.36598632098E+01  0.72783942737E+02  0.17149148114E+03  0.18638051782E+03  0.41800000000E+01 0. -1.
         -5    1    4    4    0  501  0.30504802258E+02 -0.46195478878E+02  0.73817895921E+02  0.92364058961E+02  0.41800000000E+01 0. -1.
</event>
<event>
11    1  0.8041700E-009  0.1699797E+03  0.7561462E-02  0.1078049E+00
         22   -1    0    0    0    0  0.00000000000E+00  0.00000000000E+00  0.13706655825E+03  0.13706655825E+03  0.00000000000E+00 0. -1.
         22   -1    0    0    0    0 -0.00000000000E+00 -0.00000000000E+00 -0.75210852486E+03  0.75210852486E+03  0.00000000000E+00 0. -1.
         24    2    1    2    0    0 -0.20568822973E+02 -0.78930896349E+01 -0.35193243710E+03  0.36166617859E+03  0.80377901880E+02 0.  0.
         25    2    1    2    0    0  0.10865834493E+03  0.78232620219E+02 -0.32698919645E+03  0.37482894623E+03  0.12509126887E+03 0.  0.
        -24    2    1    2    0    0 -0.88089521953E+02 -0.70339530584E+02  0.63879666940E+02  0.15267995828E+03  0.80765985244E+02 0.  0.
        -13    1    3    3    0    0  0.46770627976E+01  0.13727837935E+02 -0.88760938747E+01  0.17003337709E+02  0.00000000000E+00 0.  1.
         14    1    3    3    0    0 -0.25245885771E+02 -0.21620927570E+02 -0.34305634323E+03  0.34466284089E+03  0.00000000000E+00 0. -1.
         11    1    5    5    0    0 -0.10268815955E+03 -0.63744739797E+02  0.47772897301E+02  0.12996345517E+03  0.00000000000E+00 0. -1.
        -12    1    5    5    0    0  0.14598637601E+02 -0.65947907865E+01  0.16106769639E+02  0.22716503109E+02  0.00000000000E+00 0.  1.
          5    1    4    4  501    0  0.12535150447E+03  0.72373089803E+02 -0.32589497762E+03  0.35661726351E+03  0.41800000000E+01 0.  1.
         -5    1    4    4    0  501 -0.16693159548E+02  0.58595304158E+01 -0.10942188348E+01  0.18211682714E+02  0.41800000000E+01 0.  1.
</event>
<event>
11    1  0.8041700E-009  0.1301274E+03  0.7561462E-02  0.1119113E+00
         22   -1    0    0    0    0  0.00000000000E+00  0.00000000000E+00  0.40916946488E+03  0.40916946488E+03  0.00000000000E+00 0.  1.
         22   -1    0    0    0    0 -0.00000000000E+00 -0.00000000000E+00 -0.42206062967E+03  0.42206062967E+03  0.00000000000E+00 0. -1.
         24    2    1    2    0    0 -0.27583449701E+02  0.21904824782E+02 -0.32849616658E+03  0.34006798706E+03  0.80596751304E+02 0.  0.
         25    2    1    2    0    0  0.29144520844E+02 -0.29811553720E+02 -0.30620546605E+02  0.13536823432E+03  0.12509520038E+03 0.  0.
        -24    2    1    2    0    0 -0.15610711428E+01  0.79067289385E+01  0.34622554839E+03  0.35579387317E+03  0.81560998776E+02 0.  0.
        -11    1    3    3    0    0  0.27644444649E+02  0.10365897869E+02 -0.14960823098E+03  0.15249357342E+03  0.00000000000E+00 0.  1.
         12    1    3    3    0    0 -0.55227894350E+02  0.11538926913E+02 -0.17888793560E+03  0.18757441364E+03  0.00000000000E+00 0. -1.
         11    1    5    5    0    0  0.30325553401E+02 -0.10339522332E+02  0.68194350019E+02  0.75345963964E+02  0.00000000000E+00 0. -1.
        -12    1    5    5    0    0 -0.31886624543E+02  0.18246251271E+02  0.27803119837E+03  0.28044790921E+03  0.00000000000E+00 0.  1.
          5    1    4    4  501    0  0.71091319989E+02 -0.37336720436E+02  0.36962770088E+01  0.80493113584E+02  0.41800000000E+01 0. -1.
         -5    1    4    4    0  501 -0.41946799145E+02  0.75251667162E+01 -0.34316823613E+02  0.54875120734E+02  0.41800000000E+01 0. -1.
</event>
<event>
11    1  0.8041700E-009  0.1457064E+03  0.7561462E-02  0.1101349E+00
         22   -1    0    0    0    0  0.00000000000E+00  0.00000000000E+00  0.14818142739E+04  0.14818142739E+04  0.00000000000E+00 0.  1.
         22   -1    0    0    0    0 -0.00000000000E+00 -0.00000000000E+00 -0.15841363015E+03  0.15841363015E+03  0.00000000000E+00 0.  1.
        -24    2    1    2    0    0 -0.50115335299E+02  0.56026857054E+02 -0.12753750122E+03  0.16845741168E+03  0.80383641307E+02 0.  0.
         25    2    1    2    0    0  0.71175453719E+02 -0.16198380999E+02  0.67171576589E+03  0.68715152019E+03  0.12508720477E+03 0.  0.
         24    2    1    2    0    0 -0.21060118420E+02 -0.39828476054E+02  0.77922237906E+03  0.78461897217E+03  0.80059848593E+02 0.  0.
        -11    1    5    5    0    0 -0.68469685333E+01 -0.25432063515E+02  0.74016270665E+03  0.74063115189E+03  0.00000000000E+00 0.  1.
         12    1    5    5    0    0 -0.14213149886E+02 -0.14396412539E+02  0.39059672415E+02  0.43987820278E+02  0.00000000000E+00 0. -1.
         11    1    3    3    0    0  0.10586354059E+01 -0.17394881972E+02 -0.38276600717E+02  0.42057113432E+02  0.00000000000E+00 0. -1.
        -12    1    3    3    0    0 -0.51173970705E+02  0.73421739025E+02 -0.89260900501E+02  0.12640029825E+03  0.00000000000E+00 0.  1.
          5    1    4    4  501    0 -0.24362460521E+02  0.28914901705E+02  0.21653852126E+03  0.21985450783E+03  0.41800000000E+01 0.  1.
         -5    1    4    4    0  501  0.95537914240E+02 -0.45113282704E+02  0.45517724463E+03  0.46729701236E+03  0.41800000000E+01 0.  1.
</event>
<event>
11    1  0.8041700E-009  0.1396474E+03  0.7561462E-02  0.1107953E+00
         22   -1    0    0    0    0  0.00000000000E+00  0.00000000000E+00  0.39982766672E+03  0.39982766672E+03  0.00000000000E+00 0.  1.
         22   -1    0    0    0    0 -0.00000000000E+00 -0.00000000000E+00 -0.16554349992E+04  0.16554349992E+04  0.00000000000E+00 0. -1.
         24    2    1    2    0    0 -0.35663148112E+02  0.55328623892E+02 -0.14732073994E+04  0.14768599677E+04  0.80263352643E+02 0.  0.
         25    2    1    2    0    0  0.20201345481E+01 -0.16728765198E+02 -0.15155667467E+03  0.19723392780E+03  0.12509142300E+03 0.  0.
        -24    2    1    2    0    0  0.33643013564E+02 -0.38599858694E+02  0.36915674156E+03  0.38116877046E+03  0.79944545064E+02 0.  0.
        -13    1    3    3    0    0 -0.53546852028E+02  0.99799432734E+01 -0.69862613138E+03  0.70074627082E+03  0.00000000000E+00 0.  1.
         14    1    3    3    0    0  0.17883703916E+02  0.45348680618E+02 -0.77458126800E+03  0.77611369685E+03  0.00000000000E+00 0. -1.
         11    1    5    5    0    0  0.18632565515E+02  0.20871175989E+02  0.63071814096E+02  0.68998784179E+02  0.00000000000E+00 0. -1.
        -12    1    5    5    0    0  0.15010448049E+02 -0.59471034683E+02  0.30608492746E+03  0.31216998628E+03  0.00000000000E+00 0.  1.
          5    1    4    4  501    0  0.48215487419E+02  0.45929793069E+01 -0.14120717791E+02  0.50623075340E+02  0.41800000000E+01 0.  1.
         -5    1    4    4    0  501 -0.46195352871E+02 -0.21321744504E+02 -0.13743595688E+03  0.14661085246E+03  0.41800000000E+01 0.  1.
</event>
<event>
11    1  0.8041700E-009  0.1332692E+03  0.7561462E-02  0.1115316E+00
         22   -1    0    0    0    0  0.00000000000E+00  0.00000000000E+00  0.80139863993E+03  0.80139863993E+03  0.00000000000E+00 0. -1.
         22   -1    0    0    0    0 -0.00000000000E+00 -0.00000000000E+00 -0.13619117321E+03  0.13619117321E+03  0.00000000000E+00 0. -1.
        -24    2    1    2    0    0  0.12552388441E+02  0.22816024793E+02 -0.74408625732E+02  0.11079033835E+03  0.77844216519E+02 0.  0.
         25    2    1    2    0    0  0.18567655249E+02 -0.55802049999E+02  0.77865440510E+02  0.15864739126E+03  0.12508933337E+03 0.  0.
         24    2    1    2    0    0 -0.31120043690E+02  0.32986025206E+02  0.66175065194E+03  0.66815208353E+03  0.80353882319E+02 0.  0.
        -11    1    5    5    0    0 -0.16974411494E+02 -0.13505435644E+02  0.46440046400E+03  0.46490678464E+03  0.00000000000E+00 0.  1.
         12    1    5    5    0    0 -0.14145632196E+02  0.46491460850E+02  0.19735018794E+03  0.20324529889E+03  0.00000000000E+00 0. -1.
         11    1    3    3    0    0  0.45358115936E+02  0.97630952054E+01 -0.47485077536E+02  0.66389075139E+02  0.00000000000E+00 0. -1.
        -12    1    3    3    0    0 -0.32805727495E+02  0.13052929587E+02 -0.26923548196E+02  0.44401263211E+02  0.00000000000E+00 0.  1.
          5    1    4    4  501    0  0.23575382029E+02 -0.61971580185E+02  0.10822404181E+03  0.12698894052E+03  0.41800000000E+01 0.  1.
         -5    1    4    4    0  501 -0.50077267801E+01  0.61695301865E+01 -0.30358601303E+02  0.31658450741E+02  0.41800000000E+01 0.  1.
</event>
<event>
11    1  0.8041700E-009  0.1496878E+03  0.7561462E-02  0.1097198E+00
         22   -1    0    0    0    0  0.00000000000E+00  0.00000000000E+00  0.14213797704E+04  0.14213797704E+04  0.00000000000E+00 0.  1.
         22   -1    0    0    0    0 -0.00000000000E+00 -0.00000000000E+00 -0.13873823263E+04  0.13873823263E+04  0.00000000000E+00 0.  1.
        -24    2    1    2    0    0  0.32919585504E+02  0.79628859288E+02 -0.10344812926E+04  0.10411015915E+04  0.79476566300E+02 0.  0.
         25    2    1    2    0    0 -0.34999172351E+02 -0.55807615338E+02 -0.33397912271E+03  0.36266922694E+03  0.12508989476E+03 0.  0.
         24    2    1    2    0    0  0.20795868473E+01 -0.23821243949E+02  0.14024578595E+04  0.14049912783E+04  0.80874396914E+02 0.  0.
        -13    1    5    5    0    0  0.37666242774E+02 -0.44284024254E+01  0.93873528413E+03  0.93950108582E+03  0.00000000000E+00 0.  1.
         14    1    5    5    0    0 -0.35586655927E+02 -0.19392841524E+02  0.46372257532E+03  0.46549019243E+03  0.00000000000E+00 0. -1.
         11    1    3    3    0    0 -0.23942373017E+01  0.33978889019E+02 -0.11835861617E+03  0.12316273500E+03  0.00000000000E+00 0. -1.
        -12    1    3    3    0    0  0.35313822806E+02  0.45649970269E+02 -0.91612267648E+03  0.91793885648E+03  0.00000000000E+00 0.  1.
          5    1    4    4  501    0  0.13047148808E+02  0.32340222191E+02 -0.13842855603E+03  0.14281475970E+03  0.41800000000E+01 0.  1.
         -5    1    4    4    0  501 -0.48046321160E+02 -0.88147837530E+02 -0.19555056668E+03  0.21985446724E+03  0.41800000000E+01 0.  1.
</event>
<event>
11    1  0.8041700E-009  0.1794249E+03  0.7561462E-02  0.1070109E+00
         22   -1    0    0    0    0  0.00000000000E+00  0.00000000000E+00  0.55033304916E+03  0.55033304916E+03  0.00000000000E+00 0.  1.
         22   -1    0    0    0    0 -0.00000000000E+00 -0.00000000000E+00 -0.28361862885E+04  0.28361862885E+04  0.00000000000E+00 0. -1.
         24    2    1    2    0    0 -0.11200397014E+03 -0.43686457615E+02 -0.27474401355E+04  0.27512646222E+04  0.81094556980E+02 0.  0.
         25    2    1    2    0    0 -0.32374129704E+02  0.64094939161E+02 -0.32705082864E+00  0.14423474931E+03  0.12508920995E+03 0.  0.
        -24    2    1    2    0    0  0.14437809984E+03 -0.20408481546E+02  0.46191394700E+03  0.49101996617E+03  0.80464718408E+02 0.  0.
        -11    1    3    3    0    0 -0.92382606922E+01 -0.15722366960E+02 -0.12111600001E+04  0.12112972732E+04  0.00000000000E+00 0.  1.
         12    1    3    3    0    0 -0.10276570945E+03 -0.27964090655E+02 -0.15362801354E+04  0.15399673490E+04  0.00000000000E+00 0. -1.
         13    1    5    5    0    0 -0.82717400315E+01 -0.52526925456E+01  0.11022115255E+02  0.14747863806E+02  0.00000000000E+00 0. -1.
        -14    1    5    5    0    0  0.15264983988E+03 -0.15155789001E+02  0.45089183174E+03  0.47627210236E+03  0.00000000000E+00 0.  1.
          5    1    4    4  501    0 -0.69165759877E+02  0.41982271987E+01  0.17508706327E+02  0.71592979042E+02  0.41800000000E+01 0.  1.
         -5    1    4    4    0  501  0.36791630172E+02  0.59896711962E+02 -0.17835757156E+02  0.72641770270E+02  0.41800000000E+01 0.  1.
</event>
<event>
11    1  0.8041700E-009  0.1385596E+03  0.7561462E-02  0.1109178E+00
         22   -1    0    0    0    0  0.00000000000E+00  0.00000000000E+00  0.65093654217E+02  0.65093654217E+02  0.00000000000E+00 0. -1.
         22   -1    0    0    0    0 -0.00000000000E+00 -0.00000000000E+00 -0.14406047310E+04  0.14406047310E+04  0.00000000000E+00 0.  1.
         24    2    1    2    0    0 -0.11613383585E+02  0.31555957417E+02 -0.86823760429E+03  0.87293247792E+03  0.83928090561E+02 0.  0.
         25    2    1    2    0    0  0.91959571524E+01 -0.88454436862E+02 -0.51053194750E+03  0.53310422918E+03  0.12509395161E+03 0.  0.
        -24    2    1    2    0    0  0.24174264327E+01  0.56898479445E+02  0.32584750196E+01  0.99661678093E+02  0.81722405172E+02 0.  0.
        -11    1    3    3    0    0  0.27214742454E+02 -0.72263376217E+01 -0.15132193657E+03  0.15391942909E+03  0.00000000000E+00 0.  1.
         12    1    3    3    0    0 -0.38828126040E+02  0.38782295038E+02 -0.71691566772E+03  0.71901304884E+03  0.00000000000E+00 0. -1.
         11    1    5    5    0    0 -0.15204289161E+02  0.73019963755E+02 -0.40179212382E+01  0.74694238109E+02  0.00000000000E+00 0. -1.
        -12    1    5    5    0    0  0.17621715594E+02 -0.16121484310E+02  0.72763962579E+01  0.24967439983E+02  0.00000000000E+00 0.  1.
          5    1    4    4  501    0  0.51334994936E+02 -0.31774557858E+02 -0.10289099837E+03  0.11936889954E+03  0.41800000000E+01 0. -1.
         -5    1    4    4    0  501 -0.42139037783E+02 -0.56679879003E+02 -0.40764094913E+03  0.41373532965E+03  0.41800000000E+01 0. -1.
</event>
<event>
11    1  0.8041700E-009  0.1589456E+03  0.7561462E-02  0.1088073E+00
         22   -1    0    0    0    0  0.00000000000E+00  0.00000000000E+00  0.15137308880E+04  0.15137308880E+04  0.00000000000E+00 0.  1.
         22   -1    0    0    0    0 -0.00000000000E+00 -0.00000000000E+00 -0.18828974943E+03  0.18828974943E+03  0.00000000000E+00 0.  1.
        -24    2    1    2    0    0  0.29323767842E+01 -0.58866775672E+02 -0.11850163395E+03  0.15484555481E+03  0.80377935314E+02 0.  0.
         25    2    1    2    0    0  0.49434644437E+02  0.13849696647E+03  0.14288392619E+03  0.24018531692E+03  0.12509187147E+03 0.  0.
         24    2    1    2    0    0 -0.52367021221E+02 -0.79630190803E+02  0.13010588463E+04  0.13069897657E+04  0.79905280307E+02 0.  0.
        -13    1    5    5    0    0  0.19441579850E+02 -0.34371137554E+02  0.41080733890E+03  0.41270088420E+03  0.00000000000E+00 0.  1.
         14    1    5    5    0    0 -0.71808601072E+02 -0.45259053249E+02  0.89025150739E+03  0.89428888146E+03  0.00000000000E+00 0. -1.
         11    1    3    3    0    0  0.84139391781E+00 -0.40699347443E+02 -0.63351045999E+01  0.41198038500E+02  0.00000000000E+00 0. -1.
        -12    1    3    3    0    0  0.20909828664E+01 -0.18167428229E+02 -0.11216652935E+03  0.11364751631E+03  0.00000000000E+00 0.  1.
          5    1    4    4  501    0  0.42099492962E+02 -0.20975811928E+01  0.69438420449E+02  0.81338390622E+02  0.41800000000E+01 0.  1.
         -5    1    4    4    0  501  0.73351514746E+01  0.14059454767E+03  0.73445505744E+02  0.15884692630E+03  0.41800000000E+01 0.  1.
</event>
<event>
11    1  0.8041700E-009  0.1889428E+03  0.7561462E-02  0.1062630E+00
         22   -1    0    0    0    0  0.00000000000E+00  0.00000000000E+00  0.26440113533E+03  0.26440113533E+03  0.00000000000E+00 0.  1.
         22   -1    0    0    0    0 -0.00000000000E+00 -0.00000000000E+00 -0.57951624504E+03  0.57951624504E+03  0.00000000000E+00 0.  1.
        -24    2    1    2    0    0 -0.20390847576E+02  0.92944844637E+01 -0.38589056997E+03  0.39476219054E+03  0.80146621783E+02 0.  0.
         25    2    1    2    0    0 -0.68453229603E+02  0.10505568189E+03 -0.10905464187E+03  0.20800036740E+03  0.12509475202E+03 0.  0.
         24    2    1    2    0    0  0.88844077179E+02 -0.11435016635E+03  0.17983010213E+03  0.24115482244E+03  0.69624364673E+02 0.  0.
        -11    1    5    5    0    0  0.86277759322E+02 -0.12016036563E+03  0.18191616805E+03  0.23446931019E+03  0.00000000000E+00 0.  1.
         12    1    5    5    0    0  0.25663178571E+01  0.58101992818E+01 -0.20860659127E+01  0.66855122489E+01  0.00000000000E+00 0. -1.
         13    1    3    3    0    0  0.78606836207E+01  0.21672116451E+01 -0.39125912164E+00  0.81633471689E+01  0.00000000000E+00 0. -1.
        -14    1    3    3    0    0 -0.28251531197E+02  0.71272728186E+01 -0.38549931085E+03  0.38659884337E+03  0.00000000000E+00 0.  1.
          5    1    4    4  501    0 -0.33101514199E+02 -0.13850299954E+02  0.84299157089E+01  0.37095510914E+02  0.41800000000E+01 0.  1.
         -5    1    4    4    0  501 -0.35351715404E+02  0.11890598184E+03 -0.11748455758E+03  0.17090485648E+03  0.41800000000E+01 0.  1.
</event>
<event>
11    1  0.8041700E-009  0.1335332E+03  0.7561462E-02  0.1115002E+00
         22   -1    0    0    0    0  0.00000000000E+00  0.00000000000E+00  0.29444243217E+04  0.29444243217E+04  0.00000000000E+00 0. -1.
         22   -1    0    0    0    0 -0.00000000000E+00 -0.00000000000E+00 -0.27013962714E+02  0.27013962714E+02  0.00000000000E+00 0.  1.
         24    2    1    2    0    0  0.10078651654E+02  0.21969523988E+02  0.58900632739E+02  0.10295829752E+03  0.80912837595E+02 0.  0.
         25    2    1    2    0    0 -0.56408534982E+01 -0.56308297686E+02  0.21614401020E+04  0.21657962894E+04  0.12509120299E+03 0.  0.
        -24    2    1    2    0    0 -0.44377981553E+01  0.34338773698E+02  0.69706962425E+03  0.70268369749E+03  0.81605589474E+02 0.  0.
        -11    1    3    3    0    0 -0.95378747019E+00  0.51123754367E+02  0.25041699977E+02  0.56935355526E+02  0.00000000000E+00 0.  1.
         12    1    3    3    0    0  0.11032439124E+02 -0.29154230379E+02  0.33858932762E+02  0.46022941994E+02  0.00000000000E+00 0. -1.
         13    1    5    5    0    0 -0.39192288303E+02  0.18132925254E+02  0.50374362173E+03  0.50559121321E+03  0.00000000000E+00 0. -1.
        -14    1    5    5    0    0  0.34754490148E+02  0.16205848444E+02  0.19332600251E+03  0.19709248427E+03  0.00000000000E+00 0.  1.
          5    1    4    4  501    0 -0.63183610176E+02 -0.11759960942E+02  0.10128418967E+04  0.10148875038E+04  0.41800000000E+01 0. -1.
         -5    1    4    4    0  501  0.57542756678E+02 -0.44548336744E+02  0.11485982053E+04  0.11509087856E+04  0.41800000000E+01 0. -1.
</event>
<event>
11    1  0.8041700E-009  0.1716223E+03  0.7561462E-02  0.1076628E+00
         22   -1    0    0    0    0  0.00000000000E+00  0.00000000000E+00  0.85504320687E+02  0.85504320687E+02  0.00000000000E+00 0. -1.
         22   -1    0    0    0    0 -0.00000000000E+00 -0.00000000000E+00 -0.84645691501E+03  0.84645691501E+03  0.00000000000E+00 0. -1.
         24    2    1    2    0    0  0.84113282632E+02  0.27421179570E+02 -0.22525946000E+03  0.25489386358E+03  0.80013073740E+02 0.  0.
         25    2    1    2    0    0 -0.15367238579E+03 -0.13645209301E+02 -0.53151925464E+03  0.56741804486E+03  0.12509646553E+03 0.  0.
        -24    2    1    2    0    0  0.69559103158E+02 -0.13775970269E+02 -0.41738796908E+01  0.10964932726E+03  0.83530278988E+02 0.  0.
        -13    1    3    3    0    0  0.29997936355E+02 -0.15276889391E+02 -0.21878383528E+02  0.40148763378E+02  0.00000000000E+00 0.  1.
         14    1    3    3    0    0  0.54115346277E+02  0.42698068960E+02 -0.20338107647E+03  0.21474510020E+03  0.00000000000E+00 0. -1.
         11    1    5    5    0    0  0.82209776013E+02 -0.30129600511E+02  0.34184942458E+01  0.87623776465E+02  0.00000000000E+00 0. -1.
        -12    1    5    5    0    0 -0.12650672855E+02  0.16353630243E+02 -0.75923739366E+01  0.22025550794E+02  0.00000000000E+00 0.  1.
          5    1    4    4  501    0 -0.31386051739E+02  0.37520071436E+02 -0.26741137245E+03  0.27188077262E+03  0.41800000000E+01 0. -1.
         -5    1    4    4    0  501 -0.12228633405E+03 -0.51165280737E+02 -0.26410788218E+03  0.29553727224E+03  0.41800000000E+01 0. -1.
</event>
<event>
11    1  0.8041700E-009  0.1524290E+03  0.7561462E-02  0.1094422E+00
         22   -1    0    0    0    0  0.00000000000E+00  0.00000000000E+00  0.15052237352E+04  0.15052237352E+04  0.00000000000E+00 0. -1.
         22   -1    0    0    0    0 -0.00000000000E+00 -0.00000000000E+00 -0.20232093047E+03  0.20232093047E+03  0.00000000000E+00 0.  1.
        -24    2    1    2    0    0 -0.50836001939E+02 -0.34294481690E+02 -0.12348054983E+03  0.16071617837E+03  0.82594389870E+02 0.  0.
         25    2    1    2    0    0  0.11249030541E+03  0.92048925411E+02  0.10195783824E+03  0.21718693969E+03  0.12509073711E+03 0.  0.
         24    2    1    2    0    0 -0.61654303467E+02 -0.57754443721E+02  0.13244255163E+04  0.13296415476E+04  0.81895469640E+02 0.  0.
        -11    1    5    5    0    0 -0.58162791452E+01  0.13041951569E+02  0.49150164801E+02  0.51182617204E+02  0.00000000000E+00 0.  1.
         12    1    5    5    0    0 -0.55838024321E+02 -0.70796395291E+02  0.12752753515E+04  0.12784589304E+04  0.00000000000E+00 0. -1.
         13    1    3    3    0    0  0.86023970214E+01 -0.17039584523E-01  0.84195147271E+01  0.12037015955E+02  0.00000000000E+00 0. -1.
        -14    1    3    3    0    0 -0.59438398961E+02 -0.34277442105E+02 -0.13190006455E+03  0.14867916242E+03  0.00000000000E+00 0.  1.
          5    1    4    4  501    0  0.32935785493E+02  0.10410741237E+03  0.73698667496E+02  0.13180320659E+03  0.41800000000E+01 0. -1.
         -5    1    4    4    0  501  0.79554519913E+02 -0.12058486960E+02  0.28259170748E+02  0.85383733098E+02  0.41800000000E+01 0. -1.
</event>
<event>
11    1  0.8041700E-009  0.1361582E+03  0.7561462E-02  0.1111926E+00
         22   -1    0    0    0    0  0.00000000000E+00  0.00000000000E+00  0.96095763703E+02  0.96095763703E+02  0.00000000000E+00 0. -1.
         22   -1    0    0    0    0 -0.00000000000E+00 -0.00000000000E+00 -0.24403412610E+04  0.24403412610E+04  0.00000000000E+00 0.  1.
        -24    2    1    2    0    0  0.50345764426E+02  0.14589435399E+02 -0.21391701369E+04  0.21415256091E+04  0.85647602904E+02 0.  0.
         25    2    1    2    0    0 -0.86490763824E+02  0.18305025899E+02 -0.25163760920E+03  0.29458945444E+03  0.12508290891E+03 0.  0.
         24    2    1    2    0    0  0.36144999398E+02 -0.32894461298E+02  0.46562248847E+02  0.10032196120E+03  0.74215539579E+02 0.  0.
        -13    1    5    5    0    0 -0.17475845293E+02 -0.14228676920E+02  0.36148805283E+02  0.42598081401E+02  0.00000000000E+00 0.  1.
         14    1    5    5    0    0  0.53620844691E+02 -0.18665784378E+02  0.10413443563E+02  0.57723879795E+02  0.00000000000E+00 0. -1.
         13    1    3    3    0    0 -0.12696761585E+02 -0.21552722367E+02 -0.79416546936E+03  0.79455932460E+03  0.00000000000E+00 0. -1.
        -14    1    3    3    0    0  0.63042526011E+02  0.36142157766E+02 -0.13450046676E+04  0.13469662845E+04  0.00000000000E+00 0.  1.
          5    1    4    4  501    0  0.28014253941E+02  0.72828299866E+01 -0.10012975096E+03  0.10431336186E+03  0.41800000000E+01 0.  1.
         -5    1    4    4    0  501 -0.11450501777E+03  0.11022195912E+02 -0.15150785824E+03  0.19027609258E+03  0.41800000000E+01 0.  1.
</event>
<event>
11    1  0.8041700E-009  0.1497148E+03  0.7561462E-02  0.1097171E+00
         22   -1    0    0    0    0  0.00000000000E+00  0.00000000000E+00  0.17109090309E+03  0.17109090309E+03  0.00000000000E+00 0. -1.
         22   -1    0    0    0    0 -0.00000000000E+00 -0.00000000000E+00 -0.11143130259E+04  0.11143130259E+04  0.00000000000E+00 0. -1.
        -24    2    1    2    0    0 -0.24640050167E+02  0.17168723170E+02 -0.48300691432E+03  0.49072909200E+03  0.81347804709E+02 0.  0.
         25    2    1    2    0    0  0.10310422297E+03 -0.38698995586E+02 -0.59575548325E+03  0.61862542706E+03  0.12507889561E+03 0.  0.
         24    2    1    2    0    0 -0.78464172802E+02  0.21530272416E+02  0.13554027480E+03  0.17604940988E+03  0.77472895783E+02 0.  0.
        -13    1    5    5    0    0 -0.44601830965E+02  0.47847525235E+02  0.57921130831E+02  0.87370283239E+02  0.00000000000E+00 0.  1.
         14    1    5    5    0    0 -0.33862341837E+02 -0.26317252819E+02  0.77619143971E+02  0.88679126639E+02  0.00000000000E+00 0. -1.
         13    1    3    3    0    0 -0.19037591289E+02 -0.24911431958E+02 -0.34294439936E+03  0.34437460763E+03  0.00000000000E+00 0. -1.
        -14    1    3    3    0    0 -0.56024588789E+01  0.42080155128E+02 -0.14006251495E+03  0.14635448437E+03  0.00000000000E+00 0.  1.
          5    1    4    4  501    0  0.20678328832E+02 -0.17884367966E+02 -0.14608136938E+02  0.31278010897E+02  0.41800000000E+01 0. -1.
         -5    1    4    4    0  501  0.82425894137E+02 -0.20814627619E+02 -0.58114734631E+03  0.58734741616E+03  0.41800000000E+01 0. -1.
</event>
<event>
11    1  0.8041700E-009  0.1323929E+03  0.7561462E-02  0.1116363E+00
         22   -1    0    0    0    0  0.00000000000E+00  0.00000000000E+00  0.73768614783E+03  0.73768614783E+03  0.00000000000E+00 0. -1.
         22   -1    0    0    0    0 -0.00000000000E+00 -0.00000000000E+00 -0.14792591347E+03  0.14792591347E+03  0.00000000000E+00 0. -1.
        -24    2    1    2    0    0 -0.92308787516E+00  0.28417183104E+01 -0.10693942430E+03  0.13394799161E+03  0.80604568926E+02 0.  0.
         25    2    1    2    0    0 -0.42194604465E+02 -0.82551815130E+01  0.16440365742E+03  0.21100654005E+03  0.12508662879E+03 0.  0.
         24    2    1    2    0    0  0.43117692340E+02  0.54134632026E+01  0.53229600124E+03  0.54065752965E+03  0.84161098217E+02 0.  0.
        -13    1    5    5    0    0 -0.10916287185E+02  0.13649990203E+02  0.25455225143E+02  0.30878083579E+02  0.00000000000E+00 0.  1.
         14    1    5    5    0    0  0.54033979526E+02 -0.82365270001E+01  0.50684077609E+03  0.50977944607E+03  0.00000000000E+00 0. -1.
         11    1    3    3    0    0  0.46898711778E+00  0.14589314111E+02 -0.11731087036E+03  0.11821551649E+03  0.00000000000E+00 0. -1.
        -12    1    3    3    0    0 -0.13920749929E+01 -0.11747595801E+02  0.10371446059E+02  0.15732475115E+02  0.00000000000E+00 0.  1.
          5    1    4    4  501    0 -0.70656854529E+02  0.35994183073E+02  0.95057521246E+02  0.12386031266E+03  0.41800000000E+01 0. -1.
         -5    1    4    4    0  501  0.28462250064E+02 -0.44249364586E+02  0.69346136179E+02  0.87146227388E+02  0.41800000000E+01 0. -1.
</event>
<event>
11    1  0.8041700E-009  0.1330162E+03  0.7561462E-02  0.1115618E+00
         22   -1    0    0    0    0  0.00000000000E+00  0.00000000000E+00  0.11744842632E+04  0.11744842632E+04  0.00000000000E+00 0. -1.
         22   -1    0    0    0    0 -0.00000000000E+00 -0.00000000000E+00 -0.10242173545E+04  0.10242173545E+04  0.00000000000E+00 0. -1.
        -24    2    1    2    0    0 -0.42044538287E+02 -0.16486976399E+02 -0.10045336563E+04  0.10086452535E+04  0.78979852969E+02 0.  0.
         25    2    1    2    0    0  0.47992053465E+02  0.26429442536E+02  0.28011781763E+03  0.31163402566E+03  0.12509205238E+03 0.  0.
         24    2    1    2    0    0 -0.59475151782E+01 -0.99424661367E+01  0.87468274744E+03  0.87842233854E+03  0.80135326808E+02 0.  0.
        -11    1    5    5    0    0 -0.27323602598E+02  0.11396134439E+02  0.13890065380E+03  0.14202057163E+03  0.00000000000E+00 0.  1.
         12    1    5    5    0    0  0.21376087420E+02 -0.21338600576E+02  0.73578209364E+03  0.73640176691E+03  0.00000000000E+00 0. -1.
         11    1    3    3    0    0 -0.18027950060E+01  0.29680216574E+02 -0.32573658186E+03  0.32709094468E+03  0.00000000000E+00 0. -1.
        -12    1    3    3    0    0 -0.40241743281E+02 -0.46167192973E+02 -0.67879707444E+03  0.68155430883E+03  0.00000000000E+00 0.  1.
          5    1    4    4  501    0  0.14559173582E+02 -0.20696679931E+02  0.60415988275E-01  0.25647575824E+02  0.41800000000E+01 0. -1.
         -5    1    4    4    0  501  0.33432879884E+02  0.47126122467E+02  0.28005740164E+03  0.28598644984E+03  0.41800000000E+01 0. -1.
</event>
<event>
11    1  0.8041700E-009  0.1814505E+03  0.7561462E-02  0.1068476E+00
         22   -1    0    0    0    0  0.00000000000E+00  0.00000000000E+00  0.44009172342E+02  0.44009172342E+02  0.00000000000E+00 0.  1.
         22   -1    0    0    0    0 -0.00000000000E+00 -0.00000000000E+00 -0.30222228893E+04  0.30222228893E+04  0.00000000000E+00 0. -1.
         24    2    1    2    0    0  0.81029070349E+01  0.66017137543E+02 -0.18365216879E+04  0.18394946133E+04  0.80651118820E+02 0.  0.
         25    2    1    2    0    0  0.77490797557E+02  0.46038311433E+02 -0.97822002702E+03  0.99029623355E+03  0.12509140298E+03 0.  0.
        -24    2    1    2    0    0 -0.85593704591E+02 -0.11205544898E+03 -0.16347200204E+03  0.23644121471E+03  0.96429490578E+02 0.  0.
        -13    1    3    3    0    0  0.19162052731E+02  0.68542065433E+02 -0.86994503205E+03  0.87285139502E+03  0.00000000000E+00 0.  1.
         14    1    3    3    0    0 -0.11059145696E+02 -0.25249278897E+01 -0.96657665582E+03  0.96664321832E+03  0.00000000000E+00 0. -1.
         13    1    5    5    0    0  0.42403130519E+01 -0.72573022974E+02 -0.70001863355E+02  0.10092118108E+03  0.00000000000E+00 0. -1.
        -14    1    5    5    0    0 -0.89834017643E+02 -0.39482426002E+02 -0.93470138686E+02  0.13552003363E+03  0.00000000000E+00 0.  1.
          5    1    4    4  501    0  0.61721344178E+02  0.54499875463E+02 -0.96275094145E+03  0.96627460301E+03  0.41800000000E+01 0.  1.
         -5    1    4    4    0  501  0.15769453379E+02 -0.84615640296E+01 -0.15469085569E+02  0.24021630545E+02  0.41800000000E+01 0.  1.
</event>
<event>
11    1  0.8041700E-009  0.3573973E+03  0.7561462E-02  0.9784562E-01
         22   -1    0    0    0    0  0.00000000000E+00  0.00000000000E+00  0.36938099976E+03  0.36938099976E+03  0.00000000000E+00 0.  1.
         22   -1    0    0    0    0 -0.00000000000E+00 -0.00000000000E+00 -0.70337023267E+03  0.70337023267E+03  0.00000000000E+00 0. -1.
         24    2    1    2    0    0 -0.71467565444E+01  0.27508326809E+02 -0.33973826986E+03  0.35005176791E+03  0.79412618902E+02 0.  0.
         25    2    1    2    0    0 -0.31768281506E+03  0.73815376515E+02 -0.89231074918E+02  0.36052871010E+03  0.12509070820E+03 0.  0.
        -24    2    1    2    0    0  0.32482957161E+03 -0.10132370332E+03  0.94980111862E+02  0.36217075442E+03  0.79785275967E+02 0.  0.
        -11    1    3    3    0    0  0.38363730548E+01  0.16539575258E+02 -0.95133806164E+01  0.19462263966E+02  0.00000000000E+00 0.  1.
         12    1    3    3    0    0 -0.10983129599E+02  0.10968751551E+02 -0.33022488924E+03  0.33058950395E+03  0.00000000000E+00 0. -1.
         11    1    5    5    0    0  0.92841015777E+02 -0.63536051884E+02  0.13048579988E+02  0.11325435771E+03  0.00000000000E+00 0. -1.
        -12    1    5    5    0    0  0.23198855583E+03 -0.37787651439E+02  0.81931531874E+02  0.24891639671E+03  0.00000000000E+00 0.  1.
          5    1    4    4  501    0 -0.28779643343E+03  0.87420136425E+02 -0.11130468399E+03  0.32074175348E+03  0.41800000000E+01 0.  1.
         -5    1    4    4    0  501 -0.29886381632E+02 -0.13604759910E+02  0.22073609075E+02  0.39786956618E+02  0.41800000000E+01 0.  1.
</event>
<event>
11    1  0.8041700E-009  0.1274513E+03  0.7561462E-02  0.1122441E+00
         22   -1    0    0    0    0  0.00000000000E+00  0.00000000000E+00  0.64008792217E+02  0.64008792217E+02  0.00000000000E+00 0.  1.
         22   -1    0    0    0    0 -0.00000000000E+00 -0.00000000000E+00 -0.10488513681E+04  0.10488513681E+04  0.00000000000E+00 0. -1.
         24    2    1    2    0    0 -0.18459152942E+02  0.20920942486E+02 -0.75767435574E+03  0.76355695922E+03  0.90390123738E+02 0.  0.
         25    2    1    2    0    0  0.78571811912E+01 -0.43863730708E+00 -0.23327529281E+03  0.26481651195E+03  0.12509394496E+03 0.  0.
        -24    2    1    2    0    0  0.10601971751E+02 -0.20482305179E+02  0.61070726755E+01  0.84486689136E+02  0.81047996114E+02 0.  0.
        -13    1    3    3    0    0 -0.10739776194E+02  0.27086249658E+02 -0.70138049663E+02  0.75949678892E+02  0.00000000000E+00 0.  1.
         14    1    3    3    0    0 -0.77193767481E+01 -0.61653071724E+01 -0.68753630608E+03  0.68760728033E+03  0.00000000000E+00 0. -1.
         11    1    5    5    0    0  0.30466750658E+02  0.47538040617E+01 -0.25059220245E+02  0.39733941008E+02  0.00000000000E+00 0. -1.
        -12    1    5    5    0    0 -0.19864778907E+02 -0.25236109240E+02  0.31166292921E+02  0.44752748128E+02  0.00000000000E+00 0.  1.
          5    1    4    4  501    0 -0.37004396581E+02 -0.42862992052E+02 -0.15473707194E+03  0.16482595453E+03  0.41800000000E+01 0.  1.
         -5    1    4    4    0  501  0.44861577772E+02  0.42424354744E+02 -0.78538220865E+02  0.99990557416E+02  0.41800000000E+01 0.  1.
</event>
<event>
11    1  0.8041700E-009  0.1257065E+03  0.7561462E-02  0.1124660E+00
         22   -1    0    0    0    0  0.00000000000E+00  0.00000000000E+00  0.30262194600E+04  0.30262194600E+04  0.00000000000E+00 0.  1.
         22   -1    0    0    0    0 -0.00000000000E+00 -0.00000000000E+00 -0.19480634877E+03  0.19480634877E+03  0.00000000000E+00 0. -1.
         24    2    1    2    0    0 -0.11714372817E+02 -0.64473222345E+00 -0.15144710804E+03  0.17241006645E+03  0.81555884336E+02 0.  0.
         25    2    1    2    0    0  0.20673619123E+02 -0.10221750057E+02  0.92974994312E+02  0.15755763222E+03  0.12509266646E+03 0.  0.
        -24    2    1    2    0    0 -0.89592463064E+01  0.10866482280E+02  0.28898852249E+04  0.28910581101E+04  0.81129735882E+02 0.  0.
        -11    1    3    3    0    0 -0.13748306969E+02  0.36213301072E+02 -0.43106420694E+02  0.57953279666E+02  0.00000000000E+00 0.  1.
         12    1    3    3    0    0  0.20339341521E+01 -0.36858033295E+02 -0.10834068734E+03  0.11445678678E+03  0.00000000000E+00 0. -1.
         11    1    5    5    0    0  0.20248336276E+02 -0.18855174240E+01  0.20977295911E+03  0.21075636330E+03  0.00000000000E+00 0. -1.
        -12    1    5    5    0    0 -0.29207582582E+02  0.12751999704E+02  0.26801122658E+04  0.26803017468E+04  0.00000000000E+00 0.  1.
          5    1    4    4  501    0  0.43272889904E+02  0.43745018763E+02  0.73063719990E+02  0.95613541122E+02  0.41800000000E+01 0.  1.
         -5    1    4    4    0  501 -0.22599270780E+02 -0.53966768819E+02  0.19911274322E+02  0.61944091096E+02  0.41800000000E+01 0.  1.
</event>
<event>
11    1  0.8041700E-009  0.1430820E+03  0.7561462E-02  0.1104165E+00
         22   -1    0    0    0    0  0.00000000000E+00  0.00000000000E+00  0.52027366063E+03  0.52027366063E+03  0.00000000000E+00 0. -1.
         22   -1    0    0    0    0 -0.00000000000E+00 -0.00000000000E+00 -0.17823041225E+03  0.17823041225E+03  0.00000000000E+00 0.  1.
         24    2    1    2    0    0  0.23928023778E+02  0.79292050376E+02 -0.10504461679E+03  0.15777189421E+03  0.83652970732E+02 0.  0.
         25    2    1    2    0    0  0.14176240448E+02 -0.21911745175E+02  0.62863316073E+02  0.14240704501E+03  0.12508748775E+03 0.  0.
        -24    2    1    2    0    0 -0.38104264226E+02 -0.57380305202E+02  0.38422454909E+03  0.39832513365E+03  0.79309353757E+02 0.  0.
        -11    1    3    3    0    0  0.54000027999E+02  0.64757359947E+02 -0.75224600256E+02  0.11299672197E+03  0.00000000000E+00 0.  1.
         12    1    3    3    0    0 -0.30072004221E+02  0.14534690429E+02 -0.29820016533E+02  0.44775172247E+02  0.00000000000E+00 0. -1.
         13    1    5    5    0    0  0.56796468712E+01 -0.54145791799E+02  0.27978874703E+03  0.28503643298E+03  0.00000000000E+00 0. -1.
        -14    1    5    5    0    0 -0.43783911097E+02 -0.32345134025E+01  0.10443580206E+03  0.11328870067E+03  0.00000000000E+00 0.  1.
          5    1    4    4  501    0  0.18131715385E+02 -0.72522926972E+02  0.49467845320E+02  0.89737807863E+02  0.41800000000E+01 0.  1.
         -5    1    4    4    0  501 -0.39554749370E+01  0.50611181797E+02  0.13395470753E+02  0.52669237146E+02  0.41800000000E+01 0.  1.
</event>
<event>
11    1  0.8041700E-009  0.2252170E+03  0.7561462E-02  0.1037998E+00
         22   -1    0    0    0    0  0.00000000000E+00  0.00000000000E+00  0.51485338506E+03  0.51485338506E+03  0.00000000000E+00 0. -1.
         22   -1    0    0    0    0 -0.00000000000E+00 -0.00000000000E+00 -0.45722935323E+03  0.45722935323E+03  0.00000000000E+00 0.  1.
         24    2    1    2    0    0  0.96950178730E+02 -0.14311298614E+02 -0.25268836242E+03  0.28250113134E+03  0.79695233748E+02 0.  0.
         25    2    1    2    0    0 -0.12504980734E+03  0.19514245532E+03 -0.58846470933E+02  0.26986517632E+03  0.12508506731E+03 0.  0.
        -24    2    1    2    0    0  0.28099628607E+02 -0.18083115671E+03  0.36915886519E+03  0.41971643063E+03  0.79963229240E+02 0.  0.
        -13    1    3    3    0    0  0.10097964674E+03  0.32415524950E+00 -0.16454153290E+03  0.19305675378E+03  0.00000000000E+00 0.  1.
         14    1    3    3    0    0 -0.40294680070E+01 -0.14635453864E+02 -0.88146829526E+02  0.89444377563E+02  0.00000000000E+00 0. -1.
         13    1    5    5    0    0  0.35124215874E+02 -0.62988035281E+02  0.81794225870E+02  0.10904814769E+03  0.00000000000E+00 0. -1.
        -14    1    5    5    0    0 -0.70245872672E+01 -0.11784312143E+03  0.28736463932E+03  0.31066828294E+03  0.00000000000E+00 0.  1.
          5    1    4    4  501    0 -0.78729100785E+02  0.42455271682E+02 -0.64169234817E+02  0.11016299061E+03  0.41800000000E+01 0. -1.
         -5    1    4    4    0  501 -0.46320706553E+02  0.15268718364E+03  0.53227638837E+01  0.15970218570E+03  0.41800000000E+01 0. -1.
</event>
<event>
11    1  0.8041700E-009  0.1520965E+03  0.7561462E-02  0.1094756E+00
         22   -1    0    0    0    0  0.00000000000E+00  0.00000000000E+00  0.86868709168E+03  0.86868709168E+03  0.00000000000E+00 0.  1.
         22   -1    0    0    0    0 -0.00000000000E+00 -0.00000000000E+00 -0.21280202570E+03  0.21280202570E+03  0.00000000000E+00 0.  1.
         24    2    1    2    0    0  0.51100679999E+02  0.56836833416E+02 -0.10750470296E+03  0.15473447844E+03  0.80893711306E+02 0.  0.
         25    2    1    2    0    0 -0.10478159365E+03 -0.82837865466E+02  0.28487999059E+02  0.18520218180E+03  0.12508792000E+03 0.  0.
        -24    2    1    2    0    0  0.53680913653E+02  0.26001032051E+02  0.73490176988E+03  0.74155245715E+03  0.79131164327E+02 0.  0.
        -11    1    3    3    0    0  0.51482569212E+02  0.25143295290E+01 -0.76322841345E+02  0.92097518406E+02  0.00000000000E+00 0.  1.
         12    1    3    3    0    0 -0.38188921286E+00  0.54322503887E+02 -0.31181861618E+02  0.62636960030E+02  0.00000000000E+00 0. -1.
         11    1    5    5    0    0 -0.18284051213E+02 -0.69338557798E+01  0.12094087068E+03  0.12251154675E+03  0.00000000000E+00 0. -1.
        -12    1    5    5    0    0  0.71964964866E+02  0.32934887830E+02  0.61396089920E+03  0.61904091040E+03  0.00000000000E+00 0.  1.
          5    1    4    4  501    0 -0.54215084833E+02 -0.62167562351E+02 -0.44595047127E+02  0.93863048428E+02  0.41800000000E+01 0.  1.
         -5    1    4    4    0  501 -0.50566508819E+02 -0.20670303116E+02  0.73083046185E+02  0.91339133370E+02  0.41800000000E+01 0.  1.
</event>
<event>
11    1  0.8041700E-009  0.1328805E+03  0.7561462E-02  0.1115780E+00
         22   -1    0    0    0    0  0.00000000000E+00  0.00000000000E+00  0.33785302203E+03  0.33785302203E+03  0.00000000000E+00 0. -1.
         22   -1    0    0    0    0 -0.00000000000E+00 -0.00000000000E+00 -0.10554007455E+03  0.10554007455E+03  0.00000000000E+00 0.  1.
         24    2    1    2    0    0  0.50653880554E+02 -0.46659516790E+01 -0.22658998499E+02  0.96210620182E+02  0.78456781113E+02 0.  0.
         25    2    1    2    0    0  0.18898097907E+02 -0.95685070397E+01  0.16063192553E+03  0.20471993439E+03  0.12513569278E+03 0.  0.
        -24    2    1    2    0    0 -0.69551978461E+02  0.14234458719E+02  0.94340020451E+02  0.14246254201E+03  0.79721006604E+02 0.  0.
        -11    1    3    3    0    0  0.67748446623E+02 -0.16232673215E+02 -0.64448210577E+01  0.69963472027E+02  0.00000000000E+00 0.  1.
         12    1    3    3    0    0 -0.17094566070E+02  0.11566721536E+02 -0.16214177441E+02  0.26247148155E+02  0.00000000000E+00 0. -1.
         13    1    5    5    0    0 -0.14037745435E+01  0.21087297592E+02  0.64278979629E+02  0.67664111055E+02  0.00000000000E+00 0. -1.
        -14    1    5    5    0    0 -0.68148203917E+02 -0.68528388733E+01  0.30061040821E+02  0.74798430953E+02  0.00000000000E+00 0.  1.
          5    1    4    4  501    0  0.57442601537E+02 -0.38309748784E+02  0.13085063298E+03  0.14800895201E+03  0.41800000000E+01 0. -1.
         -5    1    4    4    0  501 -0.38544503630E+02  0.28741241745E+02  0.29781292550E+02  0.56710982384E+02  0.41800000000E+01 0. -1.
</event>
<event>
11    1  0.8041700E-009  0.1306032E+03  0.7561462E-02  0.1118530E+00
         22   -1    0    0    0    0  0.00000000000E+00  0.00000000000E+00  0.50219596983E+03  0.50219596983E+03  0.00000000000E+00 0.  1.
         22   -1    0    0    0    0 -0.00000000000E+00 -0.00000000000E+00 -0.87242764233E+03  0.87242764233E+03  0.00000000000E+00 0. -1.
         24    2    1    2    0    0  0.38018576402E+02 -0.15606358776E+02 -0.73539800429E+03  0.74026171448E+03  0.74082458308E+02 0.  0.
         25    2    1    2    0    0 -0.30934005513E+02 -0.22002371055E+02 -0.97636502108E+02  0.16315123927E+03  0.12507766908E+03 0.  0.
        -24    2    1    2    0    0 -0.70845708891E+01  0.37608729831E+02  0.46280283390E+03  0.47121065840E+03  0.79927553587E+02 0.  0.
        -11    1    3    3    0    0  0.29207576447E+01 -0.89218080591E+01 -0.90635600152E+01  0.13049046111E+02  0.00000000000E+00 0.  1.
         12    1    3    3    0    0  0.35097818757E+02 -0.66845507169E+01 -0.72633444427E+03  0.72721266837E+03  0.00000000000E+00 0. -1.
         11    1    5    5    0    0 -0.34891775491E+02  0.36198943847E+02  0.17543785080E+03  0.18249996994E+03  0.00000000000E+00 0. -1.
        -12    1    5    5    0    0  0.27807204602E+02  0.14097859839E+01  0.28736498309E+03  0.28871068846E+03  0.00000000000E+00 0.  1.
          5    1    4    4  501    0 -0.15025222329E+02 -0.34717839045E+02  0.20479124087E+02  0.43219816952E+02  0.41800000000E+01 0.  1.
         -5    1    4    4    0  501 -0.15908783184E+02  0.12715467990E+02 -0.11811562619E+03  0.11993142232E+03  0.41800000000E+01 0.  1.
</event>
<event>
11    1  0.8041700E-009  0.1542446E+03  0.7561462E-02  0.1092619E+00
         22   -1    0    0    0    0  0.00000000000E+00  0.00000000000E+00  0.14317868648E+04  0.14317868648E+04  0.00000000000E+00 0.  1.
         22   -1    0    0    0    0 -0.00000000000E+00 -0.00000000000E+00 -0.35936582897E+03  0.35936582897E+03  0.00000000000E+00 0. -1.
         24    2    1    2    0    0  0.19568486956E+02  0.10476895128E+02 -0.28596170057E+03  0.29787320633E+03  0.80384462693E+02 0.  0.
         25    2    1    2    0    0 -0.95061312980E+02 -0.58225065192E+02  0.44055532863E+02  0.17323868925E+03  0.12507574519E+03 0.  0.
        -24    2    1    2    0    0  0.75492826024E+02  0.47748170064E+02  0.13143272036E+04  0.13200407982E+04  0.84099086788E+02 0.  0.
        -13    1    3    3    0    0 -0.21554599751E+02 -0.13827177141E+02 -0.17777692286E+03  0.17961187572E+03  0.00000000000E+00 0.  1.
         14    1    3    3    0    0  0.41123086707E+02  0.24304072269E+02 -0.10818477771E+03  0.11826133061E+03  0.00000000000E+00 0. -1.
         11    1    5    5    0    0  0.93260480754E+01  0.18620577734E+02  0.57829637053E+02  0.61465177211E+02  0.00000000000E+00 0. -1.
        -12    1    5    5    0    0  0.66166777949E+02  0.29127592331E+02  0.12564975665E+04  0.12585756210E+04  0.00000000000E+00 0.  1.
          5    1    4    4  501    0 -0.62779709465E+02 -0.87849838516E+02 -0.39250871183E+01  0.10812846414E+03  0.41800000000E+01 0. -1.
         -5    1    4    4    0  501 -0.32281603515E+02  0.29624773324E+02  0.47980619982E+02  0.65110225110E+02  0.41800000000E+01 0. -1.
</event>
<event>
11    1  0.8041700E-009  0.1591122E+03  0.7561462E-02  0.1087915E+00
         22   -1    0    0    0    0  0.00000000000E+00  0.00000000000E+00  0.79336352012E+03  0.79336352012E+03  0.00000000000E+00 0.  1.
         22   -1    0    0    0    0 -0.00000000000E+00 -0.00000000000E+00 -0.53682373104E+03  0.53682373104E+03  0.00000000000E+00 0.  1.
         24    2    1    2    0    0 -0.35949955202E+02 -0.95485259798E+02 -0.47127125532E+03  0.48884873185E+03  0.80415498630E+02 0.  0.
         25    2    1    2    0    0 -0.17037645902E+02  0.66770261406E+02  0.43030696292E+02  0.14919844235E+03  0.12513986251E+03 0.  0.
        -24    2    1    2    0    0  0.52987601104E+02  0.28714998392E+02  0.68478034810E+03  0.69214007697E+03  0.80632028359E+02 0.  0.
        -13    1    3    3    0    0 -0.76338979750E+01 -0.36757722495E+02 -0.34212375112E+03  0.34417737817E+03  0.00000000000E+00 0.  1.
         14    1    3    3    0    0 -0.28316057227E+02 -0.58727537303E+02 -0.12914750420E+03  0.14467135368E+03  0.00000000000E+00 0. -1.
         11    1    5    5    0    0 -0.75176929148E+01 -0.15789398309E+01  0.53797381256E+01  0.93781842620E+01  0.00000000000E+00 0. -1.
        -12    1    5    5    0    0  0.60505294019E+02  0.30293938222E+02  0.67940060997E+03  0.68276189270E+03  0.00000000000E+00 0.  1.
          5    1    4    4  501    0 -0.56433865655E+02  0.26072846164E+02  0.63370545835E+02  0.88869977941E+02  0.41800000000E+01 0. -1.
         -5    1    4    4    0  501  0.39396219753E+02  0.40697415242E+02 -0.20339849543E+02  0.60328464407E+02  0.41800000000E+01 0. -1.
</event>
<event>
11    1  0.8041700E-009  0.1392083E+03  0.7561462E-02  0.1108446E+00
         22   -1    0    0    0    0  0.00000000000E+00  0.00000000000E+00  0.83822737628E+03  0.83822737628E+03  0.00000000000E+00 0. -1.
         22   -1    0    0    0    0 -0.00000000000E+00 -0.00000000000E+00 -0.24078815065E+03  0.24078815065E+03  0.00000000000E+00 0.  1.
        -24    2    1    2    0    0  0.53115207945E+02 -0.40851845098E+02 -0.18218236456E+03  0.20968662608E+03  0.79296712652E+02 0.  0.
         25    2    1    2    0    0 -0.11519744155E+02  0.17261478977E+02  0.54289905259E+02  0.13793282827E+03  0.12508960045E+03 0.  0.
         24    2    1    2    0    0 -0.41595463790E+02  0.23590366121E+02  0.72533168493E+03  0.73139607258E+03  0.80916462084E+02 0.  0.
        -11    1    5    5    0    0 -0.44232494251E+02  0.50154443864E+02  0.54831704126E+03  0.55237990507E+03  0.00000000000E+00 0.  1.
         12    1    5    5    0    0  0.26370304617E+01 -0.26564077743E+02  0.17701464366E+03  0.17901616750E+03  0.00000000000E+00 0. -1.
         13    1    3    3    0    0  0.11891108154E+02 -0.46281215064E+02 -0.42510462738E+02  0.63956928969E+02  0.00000000000E+00 0. -1.
        -14    1    3    3    0    0  0.41224099791E+02  0.54293699661E+01 -0.13967190182E+03  0.14572969711E+03  0.00000000000E+00 0.  1.
          5    1    4    4  501    0  0.17240454357E+02 -0.40931190560E+02  0.57537698916E+02  0.72805596102E+02  0.41800000000E+01 0.  1.
         -5    1    4    4    0  501 -0.28760198512E+02  0.58192669537E+02 -0.32477936579E+01  0.65127232168E+02  0.41800000000E+01 0.  1.
</event>
<event>
11    1  0.8041700E-009  0.1388168E+03  0.7561462E-02  0.1108887E+00
         22   -1    0    0    0    0  0.00000000000E+00  0.00000000000E+00  0.18465518086E+03  0.18465518086E+03  0.00000000000E+00 0. -1.
         22   -1    0    0    0    0 -0.00000000000E+00 -0.00000000000E+00 -0.75703606088E+03  0.75703606088E+03  0.00000000000E+00 0. -1.
        -24    2    1    2    0    0 -0.30778150007E+02 -0.48316879481E+01 -0.45527505305E+03  0.46297622419E+03  0.78108709520E+02 0.  0.
         25    2    1    2    0    0  0.38350620848E+02  0.64047896608E+02 -0.26344380109E+03  0.30103895200E+03  0.12509560786E+03 0.  0.
         24    2    1    2    0    0 -0.75724708410E+01 -0.59216208660E+02  0.14633797413E+03  0.17767606556E+03  0.81179307192E+02 0.  0.
        -11    1    5    5    0    0  0.44662439402E+00  0.17902715899E+02  0.91901157735E+01  0.20128709294E+02  0.00000000000E+00 0.  1.
         12    1    5    5    0    0 -0.80190952350E+01 -0.77118924559E+02  0.13714785836E+03  0.15754735626E+03  0.00000000000E+00 0. -1.
         11    1    3    3    0    0 -0.41921951233E+02 -0.23076146818E+02 -0.41135803143E+03  0.41413209073E+03  0.00000000000E+00 0. -1.
        -12    1    3    3    0    0  0.11143801225E+02  0.18244458870E+02 -0.43917021621E+02  0.48844133458E+02  0.00000000000E+00 0.  1.
          5    1    4    4  501    0  0.13290771347E+01  0.12173460374E+01  0.13696875617E+02  0.14433474255E+02  0.41800000000E+01 0.  1.
         -5    1    4    4    0  501  0.37021543713E+02  0.62830550571E+02 -0.27714067671E+03  0.28660547774E+03  0.41800000000E+01 0.  1.
</event>
<event>
11    1  0.8041700E-009  0.2244294E+03  0.7561462E-02  0.1038478E+00
         22   -1    0    0    0    0  0.00000000000E+00  0.00000000000E+00  0.27455188172E+04  0.27455188172E+04  0.00000000000E+00 0.  1.
         22   -1    0    0    0    0 -0.00000000000E+00 -0.00000000000E+00 -0.17138771553E+03  0.17138771553E+03  0.00000000000E+00 0. -1.
        -24    2    1    2    0    0  0.74272892252E+02  0.91423342897E+02 -0.10761431832E+03  0.17899526800E+03  0.81140460365E+02 0.  0.
         25    2    1    2    0    0 -0.59550080793E+02  0.11123447661E+03  0.31905531593E+03  0.36518966343E+03  0.12509146550E+03 0.  0.
         24    2    1    2    0    0 -0.14722811459E+02 -0.20265781951E+03  0.23626901041E+04  0.23727216013E+04  0.78843620391E+02 0.  0.
        -13    1    5    5    0    0  0.31340487353E+02 -0.86777799499E+02  0.11179649443E+04  0.11217656748E+04  0.00000000000E+00 0.  1.
         14    1    5    5    0    0 -0.46063298813E+02 -0.11588002001E+03  0.12447251598E+04  0.12509559265E+04  0.00000000000E+00 0. -1.
         13    1    3    3    0    0  0.76423453445E+00  0.56931970096E+02 -0.67875799319E+02  0.88594341843E+02  0.00000000000E+00 0. -1.
        -14    1    3    3    0    0  0.73508657718E+02  0.34491372801E+02 -0.39738518997E+02  0.90400926153E+02  0.00000000000E+00 0.  1.
          5    1    4    4  501    0 -0.30449645234E+02  0.41497197307E+02  0.27024345291E+03  0.27513304876E+03  0.41800000000E+01 0. -1.
         -5    1    4    4    0  501 -0.29100435559E+02  0.69737279306E+02  0.48811863028E+02  0.90056614676E+02  0.41800000000E+01 0. -1.
</event>
<event>
11    1  0.8041700E-009  0.1451968E+03  0.7561462E-02  0.1101890E+00
         22   -1    0    0    0    0  0.00000000000E+00  0.00000000000E+00  0.39834820165E+03  0.39834820165E+03  0.00000000000E+00 0.  1.
         22   -1    0    0    0    0 -0.00000000000E+00 -0.00000000000E+00 -0.21202991948E+03  0.21202991948E+03  0.00000000000E+00 0. -1.
         24    2    1    2    0    0 -0.35519148756E+02  0.30424190836E+02 -0.10951959301E+03  0.14313436762E+03  0.79408215084E+02 0.  0.
         25    2    1    2    0    0  0.81149860022E+02  0.27490511449E+02  0.13253682042E+01  0.15162532550E+03  0.12508978668E+03 0.  0.
        -24    2    1    2    0    0 -0.45630711266E+02 -0.57914702284E+02  0.29451250698E+03  0.31561842802E+03  0.86261815336E+02 0.  0.
        -13    1    3    3    0    0 -0.26338419748E+02  0.45502014719E+01  0.33828617264E+01  0.26941797299E+02  0.00000000000E+00 0.  1.
         14    1    3    3    0    0 -0.91807290083E+01  0.25873989364E+02 -0.11290245474E+03  0.11619257032E+03  0.00000000000E+00 0. -1.
         13    1    5    5    0    0  0.23254785262E+02 -0.26655785363E+02  0.12667317414E+03  0.13151961442E+03  0.00000000000E+00 0. -1.
        -14    1    5    5    0    0 -0.68885496529E+02 -0.31258916921E+02  0.16783933283E+03  0.18409881359E+03  0.00000000000E+00 0.  1.
          5    1    4    4  501    0  0.60239825322E+02 -0.42001949441E+02  0.20669759321E+02  0.76404919096E+02  0.41800000000E+01 0.  1.
         -5    1    4    4    0  501  0.20910034700E+02  0.69492460890E+02 -0.19344391117E+02  0.75220406403E+02  0.41800000000E+01 0.  1.
</event>
<event>
11    1  0.8041700E-009  0.2124471E+03  0.7561462E-02  0.1046055E+00
         22   -1    0    0    0    0  0.00000000000E+00  0.00000000000E+00  0.11058665424E+04  0.11058665424E+04  0.00000000000E+00 0. -1.
         22   -1    0    0    0    0 -0.00000000000E+00 -0.00000000000E+00 -0.20692561598E+03  0.20692561598E+03  0.00000000000E+00 0. -1.
        -24    2    1    2    0    0  0.17651490226E+02 -0.17022654733E+03 -0.13488002685E+03  0.23241112222E+03  0.80831030973E+02 0.  0.
         25    2    1    2    0    0 -0.41931134123E+02  0.17562100829E+03  0.60904132989E+03  0.64744125995E+03  0.12509150654E+03 0.  0.
         24    2    1    2    0    0  0.24279643898E+02 -0.53944609633E+01  0.42477962338E+03  0.43293977621E+03  0.79878157665E+02 0.  0.
        -11    1    5    5    0    0 -0.23673806281E+02  0.18196714954E+02  0.17200477922E+03  0.17457724254E+03  0.00000000000E+00 0.  1.
         12    1    5    5    0    0  0.47953450178E+02 -0.23591175917E+02  0.25277484416E+03  0.25836253367E+03  0.00000000000E+00 0. -1.
         13    1    3    3    0    0  0.24421350390E+02 -0.12446654145E+03 -0.13622538052E+03  0.18613349133E+03  0.00000000000E+00 0. -1.
        -14    1    3    3    0    0 -0.67698601641E+01 -0.45760005877E+02  0.13453536778E+01  0.46277630893E+02  0.00000000000E+00 0.  1.
          5    1    4    4  501    0 -0.47030666123E+02  0.18316600579E+03  0.45070834438E+03  0.48879152337E+03  0.41800000000E+01 0.  1.
         -5    1    4    4    0  501  0.50995319995E+01 -0.75449974955E+01  0.15833298551E+03  0.15864973658E+03  0.41800000000E+01 0.  1.
</event>
<event>
11    1  0.8041700E-009  0.1788862E+03  0.7561462E-02  0.1070547E+00
         22   -1    0    0    0    0  0.00000000000E+00  0.00000000000E+00  0.12287225269E+03  0.12287225269E+03  0.00000000000E+00 0. -1.
         22   -1    0    0    0    0 -0.00000000000E+00 -0.00000000000E+00 -0.20112891997E+04  0.20112891997E+04  0.00000000000E+00 0.  1.
         24    2    1    2    0    0  0.47058636718E+02  0.12323501463E+03 -0.15065703426E+04  0.15144444575E+04  0.79915163194E+02 0.  0.
         25    2    1    2    0    0 -0.55543466819E+02 -0.99229464223E+02 -0.46901897331E+03  0.49855568276E+03  0.12508960073E+03 0.  0.
        -24    2    1    2    0    0  0.84848301012E+01 -0.24005550408E+02  0.87172368973E+02  0.12116131213E+03  0.80204631115E+02 0.  0.
        -13    1    3    3    0    0  0.60348721350E+02  0.11808831213E+03 -0.14520100138E+04  0.14580534619E+04  0.00000000000E+00 0.  1.
         14    1    3    3    0    0 -0.13290084632E+02  0.51467025015E+01 -0.54560328879E+02  0.56390995589E+02  0.00000000000E+00 0. -1.
         11    1    5    5    0    0  0.30434130785E+02 -0.27938273811E+02  0.89663766568E+02  0.98723728127E+02  0.00000000000E+00 0. -1.
        -12    1    5    5    0    0 -0.21949300684E+02  0.39327234021E+01 -0.24913975949E+01  0.22437584002E+02  0.00000000000E+00 0.  1.
          5    1    4    4  501    0  0.32662811652E+02 -0.67660010641E+02 -0.20439710243E+03  0.21780813618E+03  0.41800000000E+01 0.  1.
         -5    1    4    4    0  501 -0.88206278472E+02 -0.31569453582E+02 -0.26462187088E+03  0.28074754658E+03  0.41800000000E+01 0.  1.
</event>
<event>
11    1  0.8041700E-009  0.1286428E+03  0.7561462E-02  0.1120948E+00
         22   -1    0    0    0    0  0.00000000000E+00  0.00000000000E+00  0.12071812207E+04  0.12071812207E+04  0.00000000000E+00 0. -1.
         22   -1    0    0    0    0 -0.00000000000E+00 -0.00000000000E+00 -0.12240877000E+03  0.12240877000E+03  0.00000000000E+00 0.  1.
        -24    2    1    2    0    0  0.45892066549E+01 -0.79259675905E+00 -0.85425250390E+02  0.11887402042E+03  0.82534055387E+02 0.  0.
         25    2    1    2    0    0  0.22050574721E+02 -0.13872863829E+02  0.20292341351E+03  0.23980138876E+03  0.12509240626E+03 0.  0.
         24    2    1    2    0    0 -0.26639781376E+02  0.14665460588E+02  0.96727428762E+03  0.97091458156E+03  0.78299575404E+02 0.  0.
        -11    1    5    5    0    0  0.96563817907E+01 -0.16827376922E+02  0.79220645986E+02  0.81561737805E+02  0.00000000000E+00 0.  1.
         12    1    5    5    0    0 -0.36296163166E+02  0.31492837509E+02  0.88805364164E+03  0.88935284376E+03  0.00000000000E+00 0. -1.
         13    1    3    3    0    0 -0.26413422059E+02  0.29011762847E+02 -0.34758466388E+02  0.52416621734E+02  0.00000000000E+00 0. -1.
        -14    1    3    3    0    0  0.31002628714E+02 -0.29804359606E+02 -0.50666784002E+02  0.66457398684E+02  0.00000000000E+00 0.  1.
          5    1    4    4  501    0 -0.37048791555E+02 -0.42655333800E+02  0.12838841871E+03  0.14033228038E+03  0.41800000000E+01 0.  1.
         -5    1    4    4    0  501  0.59099366276E+02  0.28782469972E+02  0.74534994794E+02  0.99469108374E+02  0.41800000000E+01 0.  1.
</event>
<event>
11    1  0.8041700E-009  0.1384463E+03  0.7561462E-02  0.1109306E+00
         22   -1    0    0    0    0  0.00000000000E+00  0.00000000000E+00  0.95749527500E+03  0.95749527500E+03  0.00000000000E+00 0.  1.
         22   -1    0    0    0    0 -0.00000000000E+00 -0.00000000000E+00 -0.52024818498E+03  0.52024818498E+03  0.00000000000E+00 0. -1.
        -24    2    1    2    0    0 -0.27593742536E+02  0.17115077496E+02 -0.47065664067E+03  0.47890942688E+03  0.82354266684E+02 0.  0.
         25    2    1    2    0    0  0.21669546337E+02 -0.75314853097E+02  0.84185817357E+02  0.16992880395E+03  0.12508657095E+03 0.  0.
         24    2    1    2    0    0  0.59241961984E+01  0.58199775601E+02  0.82371791334E+03  0.82890522915E+03  0.71766065650E+02 0.  0.
        -13    1    5    5    0    0 -0.27512089369E+02  0.48791443998E+02  0.58465535878E+03  0.58733245152E+03  0.00000000000E+00 0.  1.
         14    1    5    5    0    0  0.33436285567E+02  0.94083316027E+01  0.23906255457E+03  0.24157277763E+03  0.00000000000E+00 0. -1.
         13    1    3    3    0    0  0.13192568792E+02  0.11165515060E+02 -0.36630257584E+03  0.36671008939E+03  0.00000000000E+00 0. -1.
        -14    1    3    3    0    0 -0.40786311328E+02  0.59495624358E+01 -0.10435406484E+03  0.11219933749E+03  0.00000000000E+00 0.  1.
          5    1    4    4  501    0 -0.12615169517E+02 -0.95132123121E+02  0.26160999866E+02  0.99554676763E+02  0.41800000000E+01 0.  1.
         -5    1    4    4    0  501  0.34284715854E+02  0.19817270024E+02  0.58024817491E+02  0.70374127186E+02  0.41800000000E+01 0.  1.
</event>
<event>
11    1  0.8041700E-009  0.1730041E+03  0.7561462E-02  0.1075447E+00
         22   -1    0    0    0    0  0.00000000000E+00  0.00000000000E+00  0.20172760810E+03  0.20172760810E+03  0.00000000000E+00 0.  1.
         22   -1    0    0    0    0 -0.00000000000E+00 -0.00000000000E+00 -0.67927066498E+03  0.67927066498E+03  0.00000000000E+00 0.  1.
         24    2    1    2    0    0  0.48093986460E+02 -0.98869047672E+02 -0.44845744769E+03  0.46899486277E+03  0.82182594234E+02 0.  0.
         25    2    1    2    0    0 -0.11725920386E+03  0.13913886181E+03 -0.13316170363E+03  0.25785409662E+03  0.12508937635E+03 0.  0.
        -24    2    1    2    0    0  0.69165217398E+02 -0.40269814136E+02  0.10407609444E+03  0.15414931368E+03  0.80775567135E+02 0.  0.
        -13    1    3    3    0    0  0.38219987451E+02 -0.76567794389E+02 -0.42993553669E+03  0.43836966168E+03  0.00000000000E+00 0.  1.
         14    1    3    3    0    0  0.98739990092E+01 -0.22301253283E+02 -0.18521911005E+02  0.30625201089E+02  0.00000000000E+00 0. -1.
         13    1    5    5    0    0  0.64926084985E+02 -0.47055762249E+02  0.40059877731E+02  0.89635010326E+02  0.00000000000E+00 0. -1.
        -14    1    5    5    0    0  0.42391324132E+01  0.67859481135E+01  0.64016216713E+02  0.64514303357E+02  0.00000000000E+00 0.  1.
          5    1    4    4  501    0 -0.18620208009E+02  0.19045859239E+02  0.24502863085E+02  0.36432397668E+02  0.41800000000E+01 0. -1.
         -5    1    4    4    0  501 -0.98638995849E+02  0.12009300257E+03 -0.15766456672E+03  0.22142169895E+03  0.41800000000E+01 0. -1.
</event>
<event>
11    1  0.8041700E-009  0.1312147E+03  0.7561462E-02  0.1117785E+00
         22   -1    0    0    0    0  0.00000000000E+00  0.00000000000E+00  0.17359748019E+03  0.17359748019E+03  0.00000000000E+00 0.  1.
         22   -1    0    0    0    0 -0.00000000000E+00 -0.00000000000E+00 -0.41432925356E+03  0.41432925356E+03  0.00000000000E+00 0.  1.
         24    2    1    2    0    0 -0.22234977549E+02  0.14816626113E+02 -0.29777507300E+03  0.30936411369E+03  0.79512477656E+02 0.  0.
         25    2    1    2    0    0 -0.19748190442E+02 -0.21365537437E+02 -0.50176204698E+02  0.13788524996E+03  0.12509281923E+03 0.  0.
        -24    2    1    2    0    0  0.41983167990E+02  0.65489113245E+01  0.10721950433E+03  0.14067737011E+03  0.80552006290E+02 0.  0.
        -13    1    3    3    0    0 -0.85483016644E+01 -0.12435909827E+01 -0.28407358067E+03  0.28420488950E+03  0.00000000000E+00 0.  1.
         14    1    3    3    0    0 -0.13686675884E+02  0.16060217096E+02 -0.13701492333E+02  0.25159224194E+02  0.00000000000E+00 0. -1.
         13    1    5    5    0    0 -0.56321085478E+01  0.27719890766E+02  0.93357059762E+01  0.29787050825E+02  0.00000000000E+00 0. -1.
        -14    1    5    5    0    0  0.47615276538E+02 -0.21170979441E+02  0.97883798353E+02  0.11089031928E+03  0.00000000000E+00 0.  1.
          5    1    4    4  501    0 -0.25636449475E+02  0.19233449991E+02 -0.80469556780E+02  0.86717790036E+02  0.41800000000E+01 0.  1.
         -5    1    4    4    0  501  0.58882590338E+01 -0.40598987428E+02  0.30293352082E+02  0.51167459923E+02  0.41800000000E+01 0.  1.
</event>
<event>
11    1  0.8041700E-009  0.1671170E+03  0.7561462E-02  0.1080568E+00
         22   -1    0    0    0    0  0.00000000000E+00  0.00000000000E+00  0.18516937940E+03  0.18516937940E+03  0.00000000000E+00 0.  1.
         22   -1    0    0    0    0 -0.00000000000E+00 -0.00000000000E+00 -0.54547171997E+03  0.54547171997E+03  0.00000000000E+00 0.  1.
         24    2    1    2    0    0  0.41411798501E+02  0.24870756369E+02 -0.28978541946E+03  0.30434014625E+03  0.79459698673E+02 0.  0.
         25    2    1    2    0    0 -0.11871628633E+03 -0.95411903603E+02 -0.17114325200E+03  0.26102450150E+03  0.12508712839E+03 0.  0.
        -24    2    1    2    0    0  0.77304487833E+02  0.70541147233E+02  0.10062633089E+03  0.16527645161E+03  0.78984870041E+02 0.  0.
        -11    1    3    3    0    0  0.44879914043E+02  0.13492111765E+02 -0.28860625238E+03  0.29238640987E+03  0.00000000000E+00 0.  1.
         12    1    3    3    0    0 -0.34681155417E+01  0.11378644604E+02 -0.11791670755E+01  0.11953736379E+02  0.00000000000E+00 0. -1.
         13    1    5    5    0    0  0.28328545281E+00 -0.13999714269E+02  0.17819748349E+01  0.14115512196E+02  0.00000000000E+00 0. -1.
        -14    1    5    5    0    0  0.77021202380E+02  0.84540861502E+02  0.98844356054E+02  0.15116093941E+03  0.00000000000E+00 0.  1.
          5    1    4    4  501    0 -0.11334032582E+03 -0.69409798670E+02 -0.58590654819E+02  0.14530687128E+03  0.41800000000E+01 0. -1.
         -5    1    4    4    0  501 -0.53759605137E+01 -0.26002104933E+02 -0.11255259718E+03  0.11571763022E+03  0.41800000000E+01 0. -1.
</event>
<event>
11    1  0.8041700E-009  0.1664090E+03  0.7561462E-02  0.1081200E+00
         22   -1    0    0    0    0  0.00000000000E+00  0.00000000000E+00  0.11119953144E+04  0.11119953144E+04  0.00000000000E+00 0.  1.
         22   -1    0    0    0    0 -0.00000000000E+00 -0.00000000000E+00 -0.11973837256E+03  0.11973837256E+03  0.00000000000E+00 0.  1.
        -24    2    1    2    0    0 -0.96992386330E+02 -0.53321654371E+02 -0.55280259839E+02  0.14811824659E+03  0.81439462264E+02 0.  0.
         25    2    1    2    0    0  0.11485607038E+03 -0.73308413771E+01  0.54595068705E+03  0.57180049956E+03  0.12509196805E+03 0.  0.
         24    2    1    2    0    0 -0.17863684049E+02  0.60652495748E+02  0.50158651464E+03  0.51181494081E+03  0.79797653624E+02 0.  0.
        -13    1    5    5    0    0 -0.79672670158E+01  0.79360137511E+02  0.42145335537E+03  0.42893407363E+03  0.00000000000E+00 0.  1.
         14    1    5    5    0    0 -0.98964170334E+01 -0.18707641762E+02  0.80133159265E+02  0.82880867178E+02  0.00000000000E+00 0. -1.
         11    1    3    3    0    0 -0.66778841573E+02 -0.74345429004E+02 -0.33766728785E+02  0.10548387777E+03  0.00000000000E+00 0. -1.
        -12    1    3    3    0    0 -0.30213544757E+02  0.21023774633E+02 -0.21513531055E+02  0.42634368824E+02  0.00000000000E+00 0.  1.
          5    1    4    4  501    0  0.96450415439E+02  0.38337251439E+02  0.23480458195E+03  0.25675492516E+03  0.41800000000E+01 0. -1.
         -5    1    4    4    0  501  0.18405654940E+02 -0.45668092816E+02  0.31114610509E+03  0.31504557440E+03  0.41800000000E+01 0. -1.
</event>
<event>
11    1  0.8041700E-009  0.1532827E+03  0.7561462E-02  0.1093571E+00
         22   -1    0    0    0    0  0.00000000000E+00  0.00000000000E+00  0.41000739986E+03  0.41000739986E+03  0.00000000000E+00 0. -1.
         22   -1    0    0    0    0 -0.00000000000E+00 -0.00000000000E+00 -0.34248008936E+03  0.34248008936E+03  0.00000000000E+00 0. -1.
         24    2    1    2    0    0  0.54839333106E+02 -0.69062144185E+02 -0.24985853009E+03  0.27677915814E+03  0.80003031861E+02 0.  0.
         25    2    1    2    0    0 -0.77161944994E+02  0.54356779897E+02  0.10443587807E+02  0.15705057403E+03  0.12508872452E+03 0.  0.
        -24    2    1    2    0    0  0.22322611888E+02  0.14705364288E+02  0.30694225278E+03  0.31865775705E+03  0.81330639052E+02 0.  0.
        -13    1    3    3    0    0  0.16876891337E+02 -0.67878405133E+02 -0.99019615177E+02  0.12123197406E+03  0.00000000000E+00 0.  1.
         14    1    3    3    0    0  0.37962441769E+02 -0.11837390517E+01 -0.15083891491E+03  0.15554718408E+03  0.00000000000E+00 0. -1.
         13    1    5    5    0    0 -0.73911257144E+01  0.43554691760E+02  0.15509926776E+03  0.16126817037E+03  0.00000000000E+00 0. -1.
        -14    1    5    5    0    0  0.29713737602E+02 -0.28849327472E+02  0.15184298501E+03  0.15738958668E+03  0.00000000000E+00 0.  1.
          5    1    4    4  501    0 -0.95265823917E+02  0.69663118911E+02  0.34488358248E+02  0.12302620289E+03  0.41800000000E+01 0. -1.
         -5    1    4    4    0  501  0.18103878923E+02 -0.15306339014E+02 -0.24044770441E+02  0.34024371142E+02  0.41800000000E+01 0. -1.
</event>
<event>
11    1  0.8041700E-009  0.1341262E+03  0.7561462E-02  0.1114301E+00
         22   -1    0    0    0    0  0.00000000000E+00  0.00000000000E+00  0.12235794308E+04  0.12235794308E+04  0.00000000000E+00 0.  1.
         22   -1    0    0    0    0 -0.00000000000E+00 -0.00000000000E+00 -0.18307588265E+04  0.18307588265E+04  0.00000000000E+00 0.  1.
        -24    2    1    2    0    0  0.21712285361E+02 -0.25905578847E+01 -0.16681443753E+04  0.16701741897E+04  0.79360144760E+02 0.  0.
         25    2    1    2    0    0 -0.53204044341E+02  0.39094509292E+02 -0.12844272928E+03  0.19106093558E+03  0.12509074869E+03 0.  0.
         24    2    1    2    0    0  0.31491758980E+02 -0.36503951407E+02  0.11894077088E+04  0.11931031320E+04  0.80499170801E+02 0.  0.
        -11    1    5    5    0    0 -0.20207439526E+02  0.11526361741E+02  0.29717530182E+03  0.29808448070E+03  0.00000000000E+00 0.  1.
         12    1    5    5    0    0  0.51699198506E+02 -0.48030313149E+02  0.89223240702E+03  0.89501865133E+03  0.00000000000E+00 0. -1.
         13    1    3    3    0    0 -0.14087559743E+02  0.28915992766E+02 -0.88058373105E+03  0.88117098305E+03  0.00000000000E+00 0. -1.
        -14    1    3    3    0    0  0.35799845103E+02 -0.31506550651E+02 -0.78756064427E+03  0.78900320662E+03  0.00000000000E+00 0.  1.
          5    1    4    4  501    0 -0.38580633991E+02  0.39973802344E+02  0.57482957618E+01  0.56007905667E+02  0.41800000000E+01 0.  1.
         -5    1    4    4    0  501 -0.14623410349E+02 -0.87929305246E+00 -0.13419102504E+03  0.13505302991E+03  0.41800000000E+01 0.  1.
</event>
<event>
11    1  0.8041700E-009  0.1559923E+03  0.7561462E-02  0.1090908E+00
         22   -1    0    0    0    0  0.00000000000E+00  0.00000000000E+00  0.10843515436E+04  0.10843515436E+04  0.00000000000E+00 0.  1.
         22   -1    0    0    0    0 -0.00000000000E+00 -0.00000000000E+00 -0.10941156242E+04  0.10941156242E+04  0.00000000000E+00 0.  1.
        -24    2    1    2    0    0 -0.86408731181E+02 -0.32919584359E+02 -0.10477231961E+04  0.10548562679E+04  0.80297460893E+02 0.  0.
         25    2    1    2    0    0  0.11958571811E+03  0.76705754677E+02  0.18355790124E+03  0.26367678074E+03  0.12508966711E+03 0.  0.
         24    2    1    2    0    0 -0.33176986924E+02 -0.43786170319E+02  0.85440121437E+03  0.85993411924E+03  0.80419606780E+02 0.  0.
        -13    1    5    5    0    0 -0.38758484341E+02 -0.21045189920E+02  0.79290611463E+03  0.79413174395E+03  0.00000000000E+00 0.  1.
         14    1    5    5    0    0  0.55814974167E+01 -0.22740980399E+02  0.61495099733E+02  0.65802375292E+02  0.00000000000E+00 0. -1.
         13    1    3    3    0    0 -0.35085282056E+02 -0.24158669173E+02 -0.15894521014E+03  0.16455454457E+03  0.00000000000E+00 0. -1.
        -14    1    3    3    0    0 -0.51323449125E+02 -0.87609151861E+01 -0.88877798601E+03  0.89030172328E+03  0.00000000000E+00 0.  1.
          5    1    4    4  501    0  0.10034885042E+03  0.63415136588E+02  0.20150376186E+03  0.23390726746E+03  0.41800000000E+01 0. -1.
         -5    1    4    4    0  501  0.19236867686E+02  0.13290618089E+02 -0.17945860617E+02  0.29769513279E+02  0.41800000000E+01 0. -1.
</event>
<event>
11    1  0.8041700E-009  0.1389431E+03  0.7561462E-02  0.1108744E+00
         22   -1    0    0    0    0  0.00000000000E+00  0.00000000000E+00  0.87897160347E+03  0.87897160347E+03  0.00000000000E+00 0. -1.
         22   -1    0    0    0    0 -0.00000000000E+00 -0.00000000000E+00 -0.20242434031E+03  0.20242434031E+03  0.00000000000E+00 0. -1.
        -24    2    1    2    0    0  0.58418807086E+02 -0.10916907943E+02 -0.15992426080E+03  0.18999907903E+03  0.83617850606E+02 0.  0.
         25    2    1    2    0    0 -0.67084357769E+02  0.59617470802E+02  0.22436927297E+03  0.27210809728E+03  0.12508673818E+03 0.  0.
         24    2    1    2    0    0  0.86655506835E+01 -0.48700562859E+02  0.61210225100E+03  0.61928876747E+03  0.80016093654E+02 0.  0.
        -13    1    5    5    0    0  0.41332995256E+02 -0.15652833342E+02  0.21639648111E+03  0.22086390544E+03  0.00000000000E+00 0.  1.
         14    1    5    5    0    0 -0.32667444572E+02 -0.33047729517E+02  0.39570576989E+03  0.39842486203E+03  0.00000000000E+00 0. -1.
         13    1    3    3    0    0  0.77406156481E+02 -0.22131787314E+02 -0.12727149582E+03  0.15059735297E+03  0.00000000000E+00 0. -1.
        -14    1    3    3    0    0 -0.18987349396E+02  0.11214879371E+02 -0.32652764978E+02  0.39401726068E+02  0.00000000000E+00 0.  1.
          5    1    4    4  501    0  0.30650648982E+02  0.37169587932E+02  0.42487846992E+02  0.64371811315E+02  0.41800000000E+01 0. -1.
         -5    1    4    4    0  501 -0.97735006751E+02  0.22447882870E+02  0.18188142597E+03  0.20773628596E+03  0.41800000000E+01 0. -1.
</event>
<event>
11    1  0.8041700E-009  0.4489628E+03  0.7561462E-02  0.9515404E-01
         22   -1    0    0    0    0  0.00000000000E+00  0.00000000000E+00  0.20726495656E+04  0.20726495656E+04  0.00000000000E+00 0. -1.
         22   -1    0    0    0    0 -0.00000000000E+00 -0.00000000000E+00 -0.20474115356E+04  0.20474115356E+04  0.00000000000E+00 0.  1.
         24    2    1    2    0    0 -0.49543498986E+01 -0.15284871688E+02 -0.18894697447E+04  0.18911034918E+04  0.76930668879E+02 0.  0.
         25    2    1    2    0    0  0.28597679145E+03 -0.31374516087E+03  0.25233715600E+03  0.50945071068E+03  0.12508890879E+03 0.  0.
        -24    2    1    2    0    0 -0.28102244155E+03  0.32903003256E+03  0.16623706187E+04  0.17195068987E+04  0.77417863575E+02 0.  0.
        -11    1    3    3    0    0  0.28901267272E+01 -0.12824682594E+02 -0.18689760000E+04  0.18690222347E+04  0.00000000000E+00 0.  1.
         12    1    3    3    0    0 -0.78444766258E+01 -0.24601890946E+01 -0.20493744721E+02  0.22081257134E+02  0.00000000000E+00 0. -1.
         11    1    5    5    0    0 -0.14059550699E+03  0.21122283622E+03  0.87246636475E+03  0.90861418696E+03  0.00000000000E+00 0. -1.
        -12    1    5    5    0    0 -0.14042693456E+03  0.11780719634E+03  0.78990425398E+03  0.81089271171E+03  0.00000000000E+00 0.  1.
          5    1    4    4  501    0  0.17718242312E+03 -0.22690149975E+03  0.10436279982E+03  0.30624658045E+03  0.41800000000E+01 0.  1.
         -5    1    4    4    0  501  0.10879436832E+03 -0.86843661121E+02  0.14797435618E+03  0.20320413023E+03  0.41800000000E+01 0.  1.
</event>
<event>
11    1  0.1056645E-008  0.1494963E+03  0.7561462E-02  0.1097395E+00
         22   -1    0    0    0    0  0.00000000000E+00  0.00000000000E+00  0.76983122865E+03  0.76983122865E+03  0.00000000000E+00 0. -1.
         22   -1    0    0    0    0 -0.00000000000E+00 -0.00000000000E+00 -0.12692900595E+04  0.12692900595E+04  0.00000000000E+00 0. -1.
         24    2    1    2    0    0 -0.73519734389E+02 -0.83408233999E+01 -0.10183806361E+04  0.10244211607E+04  0.82854533848E+02 0.  0.
         25    2    1    2    0    0  0.94945592479E+02  0.86816025558E+02 -0.21038830199E+03  0.27652330215E+03  0.12510080412E+03 0.  0.
        -24    2    1    2    0    0 -0.21425858090E+02 -0.78475202158E+02  0.72931010732E+03  0.73817682525E+03  0.79964791965E+02 0.  0.
        -11    1    3    3    0    0 -0.83164431984E+02 -0.24712072298E+02 -0.92904763613E+03  0.93308977032E+03  0.00000000000E+00 0.  1.
         12    1    3    3    0    0  0.96446975948E+01  0.16371248898E+02 -0.89333000003E+02  0.91331390396E+02  0.00000000000E+00 0. -1.
         13    1    5    5    0    0 -0.38990732392E+02 -0.54115357863E+02  0.64928695055E+03  0.65270383278E+03  0.00000000000E+00 0. -1.
        -14    1    5    5    0    0  0.17564874302E+02 -0.24359844295E+02  0.80023156774E+02  0.85472992479E+02  0.00000000000E+00 0.  1.
          5    1    4    4  501    0  0.37548061960E+02  0.47821215773E+02 -0.67147292247E+01  0.61313013492E+02  0.41800000000E+01 0. -1.
         -5    1    4    4    0  501  0.57397530519E+02  0.38994809785E+02 -0.20367357277E+03  0.21521028866E+03  0.41800000000E+01 0. -1.
</event>
<event>
11    1  0.8041700E-009  0.1298039E+03  0.7561462E-02  0.1119510E+00
         22   -1    0    0    0    0  0.00000000000E+00  0.00000000000E+00  0.18977466983E+04  0.18977466983E+04  0.00000000000E+00 0.  1.
         22   -1    0    0    0    0 -0.00000000000E+00 -0.00000000000E+00 -0.84875530765E+02  0.84875530765E+02  0.00000000000E+00 0. -1.
        -24    2    1    2    0    0 -0.34918601697E+02 -0.33443791726E+01 -0.34851153556E+02  0.99848871568E+02  0.86745032323E+02 0.  0.
         25    2    1    2    0    0  0.32515316151E+02 -0.31236993820E+02  0.25340906092E+03  0.28617604892E+03  0.12509030038E+03 0.  0.
         24    2    1    2    0    0  0.24032855457E+01  0.34581372993E+02  0.15943132602E+04  0.15965973086E+04  0.78016325706E+02 0.  0.
        -13    1    5    5    0    0  0.18392086035E+02  0.23408998455E+02  0.14996459349E+04  0.14999413922E+04  0.00000000000E+00 0.  1.
         14    1    5    5    0    0 -0.15988800490E+02  0.11172374538E+02  0.94667325343E+02  0.96655916433E+02  0.00000000000E+00 0. -1.
         11    1    3    3    0    0 -0.17713558136E+01  0.66489632459E+01 -0.57867614339E+02  0.58275270938E+02  0.00000000000E+00 0. -1.
        -12    1    3    3    0    0 -0.33147245884E+02 -0.99933424185E+01  0.23016460783E+02  0.41573600630E+02  0.00000000000E+00 0.  1.
          5    1    4    4  501    0 -0.28196683686E+02 -0.16841659540E+02  0.20347414043E+03  0.20615017024E+03  0.41800000000E+01 0. -1.
         -5    1    4    4    0  501  0.60711999837E+02 -0.14395334281E+02  0.49934920495E+02  0.80025878678E+02  0.41800000000E+01 0. -1.
</event>
<event>
11    1  0.8041700E-009  0.1258768E+03  0.7561462E-02  0.1124441E+00
         22   -1    0    0    0    0  0.00000000000E+00  0.00000000000E+00  0.30300427865E+03  0.30300427865E+03  0.00000000000E+00 0.  1.
         22   -1    0    0    0    0 -0.00000000000E+00 -0.00000000000E+00 -0.27096655486E+03  0.27096655486E+03  0.00000000000E+00 0. -1.
        -24    2    1    2    0    0 -0.13391133301E+02 -0.11140000729E+02 -0.17604572262E+03  0.19567132750E+03  0.83616684249E+02 0.  0.
         25    2    1    2    0    0 -0.18611372443E+02  0.12172123559E+02 -0.25585499635E+02  0.12960432777E+03  0.12509244665E+03 0.  0.
         24    2    1    2    0    0  0.32002505745E+02 -0.10321228295E+01  0.23366894604E+03  0.24869517824E+03  0.78885294476E+02 0.  0.
        -11    1    5    5    0    0 -0.22498031436E+02 -0.12251200390E+02  0.11221002756E+03  0.11509710515E+03  0.00000000000E+00 0.  1.
         12    1    5    5    0    0  0.54500537180E+02  0.11219077561E+02  0.12145891849E+03  0.13359807310E+03  0.00000000000E+00 0. -1.
         13    1    3    3    0    0  0.44973330720E+01 -0.44435105046E+02 -0.12027626764E+03  0.12830076041E+03  0.00000000000E+00 0. -1.
        -14    1    3    3    0    0 -0.17888466373E+02  0.33295104316E+02 -0.55769454982E+02  0.67370567087E+02  0.00000000000E+00 0.  1.
          5    1    4    4  501    0  0.33031451208E+02 -0.90518028657E+01 -0.56083174336E+02  0.65846843110E+02  0.41800000000E+01 0.  1.
         -5    1    4    4    0  501 -0.51642823652E+02  0.21223926424E+02  0.30497674700E+02  0.63757484656E+02  0.41800000000E+01 0.  1.
</event>
<event>
11    1  0.8041700E-009  0.1415658E+03  0.7561462E-02  0.1105822E+00
         22   -1    0    0    0    0  0.00000000000E+00  0.00000000000E+00  0.36738271416E+03  0.36738271416E+03  0.00000000000E+00 0.  1.
         22   -1    0    0    0    0 -0.00000000000E+00 -0.00000000000E+00 -0.18474853996E+04  0.18474853996E+04  0.00000000000E+00 0. -1.
        -24    2    1    2    0    0 -0.68891681043E+02  0.47387575018E+02 -0.12128094638E+04  0.12181242736E+04  0.76995482840E+02 0.  0.
         25    2    1    2    0    0  0.10173783244E+02 -0.25644178412E+02 -0.61807477309E+03  0.63120968153E+03  0.12509239456E+03 0.  0.
         24    2    1    2    0    0  0.58717897800E+02 -0.21743396606E+02  0.35078155148E+03  0.36553415864E+03  0.81528874974E+02 0.  0.
        -11    1    5    5    0    0  0.69959727520E+02 -0.40513404417E+02  0.27017306193E+03  0.28200918922E+03  0.00000000000E+00 0.  1.
         12    1    5    5    0    0 -0.11241829720E+02  0.18770007811E+02  0.80608489550E+02  0.83524969418E+02  0.00000000000E+00 0. -1.
         13    1    3    3    0    0 -0.53420381357E+02  0.32668732720E+02 -0.11515194724E+04  0.11532207414E+04  0.00000000000E+00 0. -1.
        -14    1    3    3    0    0 -0.15471299687E+02  0.14718842298E+02 -0.61289991445E+02  0.64903532137E+02  0.00000000000E+00 0.  1.
          5    1    4    4  501    0 -0.39016192666E+02  0.30175974991E+02 -0.17311402683E+03  0.18005219089E+03  0.41800000000E+01 0. -1.
         -5    1    4    4    0  501  0.49189975910E+02 -0.55820153403E+02 -0.44496074625E+03  0.45115749064E+03  0.41800000000E+01 0. -1.
</event>
<event>
11    1  0.8041700E-009  0.1496316E+03  0.7561462E-02  0.1097256E+00
         22   -1    0    0    0    0  0.00000000000E+00  0.00000000000E+00  0.74393706468E+03  0.74393706468E+03  0.00000000000E+00 0. -1.
         22   -1    0    0    0    0 -0.00000000000E+00 -0.00000000000E+00 -0.12788244449E+04  0.12788244449E+04  0.00000000000E+00 0. -1.
        -24    2    1    2    0    0  0.56665014011E+02 -0.55954174254E+02 -0.10243073591E+04  0.10304391471E+04  0.79104213688E+02 0.  0.
         25    2    1    2    0    0  0.16906421789E+02  0.93418863665E+02 -0.22188407276E+03  0.27183142749E+03  0.12508745756E+03 0.  0.
         24    2    1    2    0    0 -0.73571435800E+02 -0.37464689411E+02  0.71130405169E+03  0.72049093491E+03  0.79607626678E+02 0.  0.
        -11    1    5    5    0    0 -0.17365890294E+02  0.25137408332E+02  0.18632891571E+03  0.18881718214E+03  0.00000000000E+00 0.  1.
         12    1    5    5    0    0 -0.56205545506E+02 -0.62602097743E+02  0.52497513598E+03  0.53167375277E+03  0.00000000000E+00 0. -1.
         11    1    3    3    0    0  0.13779866878E+02 -0.66379581487E+02 -0.65766099705E+03  0.66114606602E+03  0.00000000000E+00 0. -1.
        -12    1    3    3    0    0  0.42885147133E+02  0.10425407233E+02 -0.36664636206E+03  0.36929308113E+03  0.00000000000E+00 0.  1.
          5    1    4    4  501    0  0.21290976963E+02  0.65450861764E+01  0.95214776981E+01  0.24582001356E+02  0.41800000000E+01 0.  1.
         -5    1    4    4    0  501 -0.43845551745E+01  0.86873777489E+02 -0.23140555046E+03  0.24724942613E+03  0.41800000000E+01 0.  1.
</event>
<event>
11    1  0.8041700E-009  0.1528053E+03  0.7561462E-02  0.1094046E+00
         22   -1    0    0    0    0  0.00000000000E+00  0.00000000000E+00  0.44496021662E+03  0.44496021662E+03  0.00000000000E+00 0. -1.
         22   -1    0    0    0    0 -0.00000000000E+00 -0.00000000000E+00 -0.35631712147E+03  0.35631712147E+03  0.00000000000E+00 0.  1.
        -24    2    1    2    0    0 -0.65325809146E+02 -0.57184459077E+02 -0.28653683596E+03  0.31024370611E+03  0.81303598434E+02 0.  0.
         25    2    1    2    0    0  0.80612199175E+02  0.55614942029E+02  0.67535462576E+02  0.17262421664E+03  0.12508690192E+03 0.  0.
         24    2    1    2    0    0 -0.15286390028E+02  0.15695170483E+01  0.30764446853E+03  0.31840941534E+03  0.80643038483E+02 0.  0.
        -11    1    5    5    0    0 -0.47284012430E+02  0.70012312855E+01  0.14900910187E+03  0.15648804271E+03  0.00000000000E+00 0.  1.
         12    1    5    5    0    0  0.31997622402E+02 -0.54317142372E+01  0.15863536666E+03  0.16192137263E+03  0.00000000000E+00 0. -1.
         11    1    3    3    0    0  0.17065778143E+02  0.15679079775E+01 -0.31416884999E+02  0.35787145487E+02  0.00000000000E+00 0. -1.
        -12    1    3    3    0    0 -0.82391587290E+02 -0.58752367054E+02 -0.25511995096E+03  0.27445656062E+03  0.00000000000E+00 0.  1.
          5    1    4    4  501    0  0.40545294969E+02  0.94333136264E+02  0.48138904210E+02  0.11347902026E+03  0.41800000000E+01 0.  1.
         -5    1    4    4    0  501  0.40066904206E+02 -0.38718194235E+02  0.19396558366E+02  0.59145196372E+02  0.41800000000E+01 0.  1.
</event>
<event>
11    1  0.8041700E-009  0.2208404E+03  0.7561462E-02  0.1040692E+00
         22   -1    0    0    0    0  0.00000000000E+00  0.00000000000E+00  0.16654399932E+04  0.16654399932E+04  0.00000000000E+00 0. -1.
         22   -1    0    0    0    0 -0.00000000000E+00 -0.00000000000E+00 -0.80985240622E+03  0.80985240622E+03  0.00000000000E+00 0.  1.
        -24    2    1    2    0    0 -0.17878463862E+03 -0.28260226871E+02 -0.74453228042E+03  0.77055314928E+03  0.81616492502E+02 0.  0.
         25    2    1    2    0    0  0.20870002275E+03 -0.12863111903E+02  0.24274485436E+03  0.34393875918E+03  0.12509055361E+03 0.  0.
         24    2    1    2    0    0 -0.29915384121E+02  0.41123338774E+02  0.13573750130E+04  0.13608004909E+04  0.82006042293E+02 0.  0.
        -11    1    5    5    0    0  0.32987752039E+00 -0.24292442347E+02  0.31247763627E+03  0.31342065143E+03  0.00000000000E+00 0.  1.
         12    1    5    5    0    0 -0.30245261642E+02  0.65415781121E+02  0.10448973768E+04  0.10473798395E+04  0.00000000000E+00 0. -1.
         11    1    3    3    0    0 -0.66230533723E+02 -0.18532972535E+02 -0.14517647254E+03  0.16064296700E+03  0.00000000000E+00 0. -1.
        -12    1    3    3    0    0 -0.11255410490E+03 -0.97272543360E+01 -0.59935580788E+03  0.60991018228E+03  0.00000000000E+00 0.  1.
          5    1    4    4  501    0  0.20326704668E+03 -0.10577649373E+01  0.15636803486E+03  0.25648985528E+03  0.41800000000E+01 0.  1.
         -5    1    4    4    0  501  0.54329760611E+01 -0.11805346966E+02  0.86376819501E+02  0.87448903898E+02  0.41800000000E+01 0.  1.
</event>
<event>
11    1  0.8041700E-009  0.1734833E+03  0.7561462E-02  0.1075039E+00
         22   -1    0    0    0    0  0.00000000000E+00  0.00000000000E+00  0.96056286318E+03  0.96056286318E+03  0.00000000000E+00 0. -1.
         22   -1    0    0    0    0 -0.00000000000E+00 -0.00000000000E+00 -0.16857726038E+03  0.16857726038E+03  0.00000000000E+00 0.  1.
         24    2    1    2    0    0 -0.11236633647E+02 -0.25254210499E+02 -0.64625157087E+02  0.10749202220E+03  0.81327036244E+02 0.  0.
         25    2    1    2    0    0  0.12477773937E+03  0.60297361216E+02  0.37870027237E+02  0.19049093632E+03  0.12508957528E+03 0.  0.
        -24    2    1    2    0    0 -0.11354110573E+03 -0.35043150716E+02  0.81874073265E+03  0.83115716505E+03  0.79788724758E+02 0.  0.
        -11    1    3    3    0    0 -0.42981517813E+02 -0.73943076885E+01 -0.54273728719E+02  0.69625600815E+02  0.00000000000E+00 0.  1.
         12    1    3    3    0    0  0.31744884166E+02 -0.17859902811E+02 -0.10351428368E+02  0.37866421384E+02  0.00000000000E+00 0. -1.
         11    1    5    5    0    0 -0.11863020510E+03 -0.40984511463E+02  0.80893168306E+03  0.81861060560E+03  0.00000000000E+00 0. -1.
        -12    1    5    5    0    0  0.50890993761E+01  0.59413607465E+01  0.98090495924E+01  0.12546559444E+02  0.00000000000E+00 0.  1.
          5    1    4    4  501    0  0.11635457315E+03  0.83501756618E+02  0.61633857489E+02  0.15597158344E+03  0.41800000000E+01 0.  1.
         -5    1    4    4    0  501  0.84231662250E+01 -0.23204395402E+02 -0.23763830253E+02  0.34519352884E+02  0.41800000000E+01 0.  1.
</event>
<event>
11    1  0.8964367E-009  0.2105097E+03  0.7561462E-02  0.1047331E+00
         22   -1    0    0    0    0  0.00000000000E+00  0.00000000000E+00  0.24530613010E+04  0.24530613010E+04  0.00000000000E+00 0. -1.
         22   -1    0    0    0    0 -0.00000000000E+00 -0.00000000000E+00 -0.19022833964E+03  0.19022833964E+03  0.00000000000E+00 0. -1.
        -24    2    1    2    0    0 -0.12988615023E+02  0.78767665878E+00 -0.11916544097E+03  0.14392733085E+03  0.79657703259E+02 0.  0.
         25    2    1    2    0    0  0.17929774498E+02  0.16847957533E+03  0.14787303770E+03  0.25733310843E+03  0.12508816609E+03 0.  0.
         24    2    1    2    0    0 -0.49411594750E+01 -0.16926725199E+03  0.22341253646E+04  0.22420292013E+04  0.81871711937E+02 0.  0.
        -13    1    5    5    0    0 -0.92918071630E+01  0.27499782482E+01  0.39610541174E+02  0.40778609992E+02  0.00000000000E+00 0.  1.
         14    1    5    5    0    0  0.43506476880E+01 -0.17201723024E+03  0.21945148234E+04  0.22012505913E+04  0.00000000000E+00 0. -1.
         13    1    3    3    0    0 -0.83403329506E+01  0.18964776608E+00 -0.13096535313E+03  0.13123079228E+03  0.00000000000E+00 0. -1.
        -14    1    3    3    0    0 -0.46482820727E+01  0.59802889269E+00  0.11799912160E+02  0.12696538574E+02  0.00000000000E+00 0.  1.
          5    1    4    4  501    0 -0.71055519484E+01 -0.18789596410E+02  0.22999064014E+02  0.30821537068E+02  0.41800000000E+01 0. -1.
         -5    1    4    4    0  501  0.25035326447E+02  0.18726917174E+03  0.12487397369E+03  0.22651157136E+03  0.41800000000E+01 0. -1.
</event>
<event>
11    1  0.8041700E-009  0.1641938E+03  0.7561462E-02  0.1083198E+00
         22   -1    0    0    0    0  0.00000000000E+00  0.00000000000E+00  0.61833539567E+02  0.61833539567E+02  0.00000000000E+00 0. -1.
         22   -1    0    0    0    0 -0.00000000000E+00 -0.00000000000E+00 -0.25127381865E+04  0.25127381865E+04  0.00000000000E+00 0.  1.
        -24    2    1    2    0    0  0.63898605467E+01 -0.11132731406E+03 -0.19754526724E+04  0.19803974032E+04  0.84415711433E+02 0.  0.
         25    2    1    2    0    0  0.46610992432E+02  0.80599864272E+02 -0.46411954526E+03  0.48961536670E+03  0.12508929723E+03 0.  0.
         24    2    1    2    0    0 -0.53000852978E+02  0.30727449784E+02 -0.11332429260E+02  0.10455895620E+03  0.83969546759E+02 0.  0.
        -11    1    5    5    0    0  0.11916516630E+02  0.67370994837E+01 -0.29915799071E+02  0.32899041204E+02  0.00000000000E+00 0.  1.
         12    1    5    5    0    0 -0.64917369609E+02  0.23990350301E+02  0.18583369811E+02  0.71659915001E+02  0.00000000000E+00 0. -1.
         13    1    3    3    0    0  0.45465138759E+01 -0.92975889110E+02 -0.90283860995E+03  0.90762478060E+03  0.00000000000E+00 0. -1.
        -14    1    3    3    0    0  0.18433466708E+01 -0.18351424945E+02 -0.10726140625E+04  0.10727726226E+04  0.00000000000E+00 0.  1.
          5    1    4    4  501    0  0.33431463591E+02  0.92563479929E+02 -0.46057517270E+03  0.47099110680E+03  0.41800000000E+01 0. -1.
         -5    1    4    4    0  501  0.13179528840E+02 -0.11963615657E+02 -0.35443725586E+01  0.18624259902E+02  0.41800000000E+01 0. -1.
</event>
<event>
11    1  0.8041700E-009  0.1515310E+03  0.7561462E-02  0.1095325E+00
         22   -1    0    0    0    0  0.00000000000E+00  0.00000000000E+00  0.15327367290E+03  0.15327367290E+03  0.00000000000E+00 0. -1.
         22   -1    0    0    0    0 -0.00000000000E+00 -0.00000000000E+00 -0.99652940356E+03  0.99652940356E+03  0.00000000000E+00 0. -1.
        -24    2    1    2    0    0 -0.83022580450E+02 -0.43632580175E+02 -0.78868378739E+03  0.79971534174E+03  0.93412849284E+02 0.  0.
         25    2    1    2    0    0  0.41553427653E+02  0.26297394550E+02 -0.16049037890E+03  0.20933075983E+03  0.12507583692E+03 0.  0.
         24    2    1    2    0    0  0.41469152797E+02  0.17335185625E+02  0.10591843563E+03  0.14075697490E+03  0.81077812505E+02 0.  0.
        -11    1    5    5    0    0 -0.14920594627E+02 -0.93859613527E+01 -0.22648536263E+00  0.17628718336E+02  0.00000000000E+00 0.  1.
         12    1    5    5    0    0  0.56389747424E+02  0.26721146978E+02  0.10614492100E+03  0.12312825656E+03  0.00000000000E+00 0. -1.
         11    1    3    3    0    0 -0.70841173829E+02 -0.13231320110E+02 -0.72027059131E+03  0.72386688310E+03  0.00000000000E+00 0. -1.
        -12    1    3    3    0    0 -0.12181406621E+02 -0.30401260065E+02 -0.68413196071E+02  0.75848458636E+02  0.00000000000E+00 0.  1.
          5    1    4    4  501    0  0.65392833336E+02 -0.20661967473E+02 -0.44453322669E+02  0.81833427448E+02  0.41800000000E+01 0.  1.
         -5    1    4    4    0  501 -0.23839405683E+02  0.46959362023E+02 -0.11603705623E+03  0.12749733238E+03  0.41800000000E+01 0.  1.
</event>
<event>
11    1  0.8041700E-009  0.1342726E+03  0.7561462E-02  0.1114128E+00
         22   -1    0    0    0    0  0.00000000000E+00  0.00000000000E+00  0.98966425481E+03  0.98966425481E+03  0.00000000000E+00 0.  1.
         22   -1    0    0    0    0 -0.00000000000E+00 -0.00000000000E+00 -0.25761030564E+03  0.25761030564E+03  0.00000000000E+00 0.  1.
        -24    2    1    2    0    0  0.52085440687E+01  0.74037657652E+01 -0.21545368893E+03  0.23002753280E+03  0.80065155324E+02 0.  0.
         25    2    1    2    0    0  0.11806563266E+02 -0.52736329622E+02  0.11152975255E+03  0.17608755132E+03  0.12508966635E+03 0.  0.
         24    2    1    2    0    0 -0.17015107335E+02  0.45332563857E+02  0.83597788556E+03  0.84115947632E+03  0.79659803182E+02 0.  0.
        -11    1    5    5    0    0  0.58159207902E+01 -0.12480471324E+02  0.44984236441E+03  0.45005304122E+03  0.00000000000E+00 0.  1.
         12    1    5    5    0    0 -0.22831028125E+02  0.57813035180E+02  0.38613552115E+03  0.39110643510E+03  0.00000000000E+00 0. -1.
         13    1    3    3    0    0 -0.18026922546E+01 -0.29012765247E+02 -0.33591919735E+02  0.44423049401E+02  0.00000000000E+00 0. -1.
        -14    1    3    3    0    0  0.70112363234E+01  0.36416531012E+02 -0.18186176919E+03  0.18560448340E+03  0.00000000000E+00 0.  1.
          5    1    4    4  501    0 -0.17807954000E+02  0.12886530567E+02  0.10070732483E+03  0.10316309209E+03  0.41800000000E+01 0. -1.
         -5    1    4    4    0  501  0.29614517266E+02 -0.65622860189E+02  0.10822427719E+02  0.72924459230E+02  0.41800000000E+01 0. -1.
</event>
<event>
11    1  0.8041700E-009  0.1342436E+03  0.7561462E-02  0.1114162E+00
         22   -1    0    0    0    0  0.00000000000E+00  0.00000000000E+00  0.11374612996E+04  0.11374612996E+04  0.00000000000E+00 0. -1.
         22   -1    0    0    0    0 -0.00000000000E+00 -0.00000000000E+00 -0.53234135705E+03  0.53234135705E+03  0.00000000000E+00 0.  1.
        -24    2    1    2    0    0 -0.40715363058E+02 -0.26923578903E+02 -0.50621603487E+03  0.51490932472E+03  0.80587336658E+02 0.  0.
         25    2    1    2    0    0  0.13527078661E+02  0.58031074190E+02  0.22726149301E+03  0.26616897539E+03  0.12509016679E+03 0.  0.
         24    2    1    2    0    0  0.27188284397E+02 -0.31107495288E+02  0.88407448441E+03  0.88872435654E+03  0.80848060314E+02 0.  0.
        -11    1    5    5    0    0 -0.48058376333E+01 -0.93457446004E+01  0.12669474838E+02  0.16460698957E+02  0.00000000000E+00 0.  1.
         12    1    5    5    0    0  0.31994122030E+02 -0.21761750687E+02  0.87140500957E+03  0.87226365759E+03  0.00000000000E+00 0. -1.
         13    1    3    3    0    0  0.28133778716E+01  0.11405256009E+02 -0.10329881356E+02  0.15642934779E+02  0.00000000000E+00 0. -1.
        -14    1    3    3    0    0 -0.43528740929E+02 -0.38328834912E+02 -0.49588615352E+03  0.49926638994E+03  0.00000000000E+00 0.  1.
          5    1    4    4  501    0 -0.14521397492E+02 -0.14268575201E+02  0.16588431653E+03  0.16718116549E+03  0.41800000000E+01 0. -1.
         -5    1    4    4    0  501  0.28048476152E+02  0.72299649392E+02  0.61377176477E+02  0.98987809900E+02  0.41800000000E+01 0. -1.
</event>
<event>
11    1  0.8041700E-009  0.1490910E+03  0.7561462E-02  0.1097811E+00
         22   -1    0    0    0    0  0.00000000000E+00  0.00000000000E+00  0.14769261069E+03  0.14769261069E+03  0.00000000000E+00 0.  1.
         22   -1    0    0    0    0 -0.00000000000E+00 -0.00000000000E+00 -0.78378534654E+03  0.78378534654E+03  0.00000000000E+00 0. -1.
        -24    2    1    2    0    0  0.28698354193E+02 -0.68463338384E+02 -0.55422885899E+03  0.56484973504E+03  0.79842161772E+02 0.  0.
         25    2    1    2    0    0 -0.60578419032E+02  0.12531523411E+03 -0.15171417597E+03  0.24090878046E+03  0.12508475751E+03 0.  0.
         24    2    1    2    0    0  0.31880064838E+02 -0.56851895725E+02  0.69850299108E+02  0.12571944172E+03  0.81718034484E+02 0.  0.
        -13    1    5    5    0    0  0.15287148417E+02 -0.60747067962E+02  0.83146892778E+02  0.10410239647E+03  0.00000000000E+00 0.  1.
         14    1    5    5    0    0  0.16592916422E+02  0.38951722362E+01 -0.13296593670E+02  0.21617045250E+02  0.00000000000E+00 0. -1.
         13    1    3    3    0    0 -0.24341731108E+02 -0.41382400724E+02 -0.29392416210E+03  0.29781946885E+03  0.00000000000E+00 0. -1.
        -14    1    3    3    0    0  0.53040085302E+02 -0.27080937660E+02 -0.26030469689E+03  0.26703026619E+03  0.00000000000E+00 0.  1.
          5    1    4    4  501    0 -0.32517149833E+02  0.16214438127E+02  0.15105323426E+02  0.39571659465E+02  0.41800000000E+01 0.  1.
         -5    1    4    4    0  501 -0.28061269199E+02  0.10910079598E+03 -0.16681949939E+03  0.20133712099E+03  0.41800000000E+01 0.  1.
</event>
<event>
11    1  0.8041700E-009  0.1718398E+03  0.7561462E-02  0.1076442E+00
         22   -1    0    0    0    0  0.00000000000E+00  0.00000000000E+00  0.20013939406E+04  0.20013939406E+04  0.00000000000E+00 0.  1.
         22   -1    0    0    0    0 -0.00000000000E+00 -0.00000000000E+00 -0.14202063724E+03  0.14202063724E+03  0.00000000000E+00 0.  1.
         24    2    1    2    0    0 -0.84078983065E+01 -0.14108058332E+03 -0.96616065633E+01  0.16313931785E+03  0.80911474120E+02 0.  0.
         25    2    1    2    0    0 -0.10581834414E+03  0.61289711508E+02  0.95260747754E+02  0.19918857260E+03  0.12509007434E+03 0.  0.
        -24    2    1    2    0    0  0.11422624245E+03  0.79790871813E+02  0.17737741622E+04  0.17810866874E+04  0.81122080393E+02 0.  0.
        -11    1    3    3    0    0 -0.22845193998E+02 -0.11640650406E+03 -0.36307886318E+02  0.12405901695E+03  0.00000000000E+00 0.  1.
         12    1    3    3    0    0  0.14437295692E+02 -0.24674079257E+02  0.26646279755E+02  0.39080300905E+02  0.00000000000E+00 0. -1.
         11    1    5    5    0    0  0.36880221984E+02  0.64938254608E+02  0.59214762419E+03  0.59683828339E+03  0.00000000000E+00 0. -1.
        -12    1    5    5    0    0  0.77346020465E+02  0.14852617205E+02  0.11816265380E+04  0.11842484040E+04  0.00000000000E+00 0.  1.
          5    1    4    4  501    0 -0.38983821343E+01 -0.12392085634E+01  0.78100111763E+02  0.78318790073E+02  0.41800000000E+01 0.  1.
         -5    1    4    4    0  501 -0.10191996201E+03  0.62528920072E+02  0.17160635992E+02  0.12086978253E+03  0.41800000000E+01 0.  1.
</event>
<event>
11    1  0.8041700E-009  0.1334096E+03  0.7561462E-02  0.1115149E+00
         22   -1    0    0    0    0  0.00000000000E+00  0.00000000000E+00  0.16754863842E+04  0.16754863842E+04  0.00000000000E+00 0.  1.
         22   -1    0    0    0    0 -0.00000000000E+00 -0.00000000000E+00 -0.12918520833E+03  0.12918520833E+03  0.00000000000E+00 0. -1.
         24    2    1    2    0    0  0.57354395557E+02 -0.13061447948E+01 -0.53578404610E+02  0.11055297633E+03  0.77846531275E+02 0.  0.
         25    2    1    2    0    0 -0.13051869204E+02  0.22588038088E+01  0.40310406064E+02  0.13209008312E+03  0.12508959884E+03 0.  0.
        -24    2    1    2    0    0 -0.44302526353E+02 -0.95265901401E+00  0.15595691744E+04  0.15620285331E+04  0.75587743537E+02 0.  0.
        -11    1    3    3    0    0  0.66894530059E+02  0.46945910151E+01 -0.12830907416E+02  0.68275541167E+02  0.00000000000E+00 0.  1.
         12    1    3    3    0    0 -0.95401345018E+01 -0.60007358099E+01 -0.40747497194E+02  0.42277435165E+02  0.00000000000E+00 0. -1.
         13    1    5    5    0    0 -0.16524567669E+02 -0.15285792326E+02  0.11842518781E+03  0.12054560088E+03  0.00000000000E+00 0. -1.
        -14    1    5    5    0    0 -0.27777958684E+02  0.14333133312E+02  0.14411439866E+04  0.14414829322E+04  0.00000000000E+00 0.  1.
          5    1    4    4  501    0 -0.58714975818E+00  0.28315015703E+02  0.78769818119E+02  0.83810748151E+02  0.41800000000E+01 0. -1.
         -5    1    4    4    0  501 -0.12464719446E+02 -0.26056211894E+02 -0.38459412056E+02  0.48279334967E+02  0.41800000000E+01 0. -1.
</event>
<event>
11    1  0.1237000E-008  0.1640029E+03  0.7561462E-02  0.1083372E+00
         22   -1    0    0    0    0  0.00000000000E+00  0.00000000000E+00  0.25282788960E+04  0.25282788960E+04  0.00000000000E+00 0.  1.
         22   -1    0    0    0    0 -0.00000000000E+00 -0.00000000000E+00 -0.34511524812E+03  0.34511524812E+03  0.00000000000E+00 0.  1.
         24    2    1    2    0    0  0.76716658861E+02 -0.19739412073E+01 -0.16893844532E+03  0.20214536334E+03  0.80207277867E+02 0.  0.
         25    2    1    2    0    0 -0.16622762569E+03 -0.53562562080E+02 -0.84656573528E+02  0.23090040848E+03  0.12509073346E+03 0.  0.
        -24    2    1    2    0    0  0.89510966827E+02  0.55536503287E+02  0.24367586667E+04  0.24403483723E+04  0.80067858109E+02 0.  0.
        -13    1    3    3    0    0  0.37073484927E+02  0.37846489488E+02 -0.63756466737E+02  0.82895639825E+02  0.00000000000E+00 0.  1.
         14    1    3    3    0    0  0.39643173934E+02 -0.39820430695E+02 -0.10518197858E+03  0.11924972351E+03  0.00000000000E+00 0. -1.
         11    1    5    5    0    0 -0.76974698959E+01  0.19943725479E+02  0.18861684350E+03  0.18982443700E+03  0.00000000000E+00 0. -1.
        -12    1    5    5    0    0  0.97208436723E+02  0.35592777808E+02  0.22481418232E+04  0.22505239353E+04  0.00000000000E+00 0.  1.
          5    1    4    4  501    0 -0.14692124776E+03 -0.36396635540E+02 -0.11550595387E+03  0.19044596583E+03  0.41800000000E+01 0. -1.
         -5    1    4    4    0  501 -0.19306377925E+02 -0.17165926540E+02  0.30849380343E+02  0.40454442649E+02  0.41800000000E+01 0. -1.
</event>
<event>
11    1  0.8041700E-009  0.1568101E+03  0.7561462E-02  0.1090116E+00
         22   -1    0    0    0    0  0.00000000000E+00  0.00000000000E+00  0.55675792958E+03  0.55675792958E+03  0.00000000000E+00 0. -1.
         22   -1    0    0    0    0 -0.00000000000E+00 -0.00000000000E+00 -0.80690034626E+03  0.80690034626E+03  0.00000000000E+00 0. -1.
         24    2    1    2    0    0 -0.10753577242E+02 -0.33778211810E+02 -0.76460129997E+03  0.77085659556E+03  0.91368134351E+02 0.  0.
         25    2    1    2    0    0 -0.85645867696E+02  0.62579237665E+01  0.18709707729E+03  0.24088959122E+03  0.12509237612E+03 0.  0.
        -24    2    1    2    0    0  0.96399444938E+02  0.27520288044E+02  0.32736180600E+03  0.35191208906E+03  0.81401149635E+02 0.  0.
        -13    1    3    3    0    0 -0.24895320148E+02  0.17324284912E+02 -0.10980042525E+03  0.11391242776E+03  0.00000000000E+00 0.  1.
         14    1    3    3    0    0  0.14141742906E+02 -0.51102496722E+02 -0.65480087472E+03  0.65694416779E+03  0.00000000000E+00 0. -1.
         11    1    5    5    0    0  0.93422976994E+02  0.12004248295E+02  0.17504434994E+03  0.19877746113E+03  0.00000000000E+00 0. -1.
        -12    1    5    5    0    0  0.29764679442E+01  0.15516039749E+02  0.15231745607E+03  0.15313462794E+03  0.00000000000E+00 0.  1.
          5    1    4    4  501    0 -0.44632774767E+02 -0.59157018863E+02  0.85673122326E+02  0.11335340204E+03  0.41800000000E+01 0.  1.
         -5    1    4    4    0  501 -0.41013092929E+02  0.65414942630E+02  0.10142395497E+03  0.12753618919E+03  0.41800000000E+01 0.  1.
</event>
<event>
11    1  0.8041700E-009  0.1508644E+03  0.7561462E-02  0.1095999E+00
         22   -1    0    0    0    0  0.00000000000E+00  0.00000000000E+00  0.16790347551E+04  0.16790347551E+04  0.00000000000E+00 0. -1.
         22   -1    0    0    0    0 -0.00000000000E+00 -0.00000000000E+00 -0.37216364281E+03  0.37216364281E+03  0.00000000000E+00 0.  1.
         24    2    1    2    0    0  0.77772026937E+02  0.29137896147E+02 -0.28180649270E+03  0.30503432195E+03  0.82058107929E+02 0.  0.
         25    2    1    2    0    0 -0.10809953978E+03  0.27322578370E+02  0.14194085637E+02  0.16817377842E+03  0.12509561899E+03 0.  0.
        -24    2    1    2    0    0  0.30327512847E+02 -0.56460474517E+02  0.15744835193E+04  0.15779902975E+04  0.83351563784E+02 0.  0.
        -11    1    3    3    0    0  0.19748248228E+02  0.17527410494E+02 -0.21149183278E+03  0.21313375791E+03  0.00000000000E+00 0.  1.
         12    1    3    3    0    0  0.58023778709E+02  0.11610485654E+02 -0.70314659920E+02  0.91900564049E+02  0.00000000000E+00 0. -1.
         11    1    5    5    0    0  0.27327726970E+02 -0.14691447904E+02  0.16541425610E+03  0.16829889905E+03  0.00000000000E+00 0. -1.
        -12    1    5    5    0    0  0.29997858771E+01 -0.41769026613E+02  0.14090692632E+04  0.14096913984E+04  0.00000000000E+00 0.  1.
          5    1    4    4  501    0 -0.11862393537E+03  0.57318302465E+02 -0.28901480555E+01  0.13184404119E+03  0.41800000000E+01 0.  1.
         -5    1    4    4    0  501  0.10524395588E+02 -0.29995724095E+02  0.17084233692E+02  0.36329737232E+02  0.41800000000E+01 0.  1.
</event>
<event>
11    1  0.8041700E-009  0.1708838E+03  0.7561462E-02  0.1077265E+00
         22   -1    0    0    0    0  0.00000000000E+00  0.00000000000E+00  0.81011694013E+03  0.81011694013E+03  0.00000000000E+00 0. -1.
         22   -1    0    0    0    0 -0.00000000000E+00 -0.00000000000E+00 -0.18688695647E+04  0.18688695647E+04  0.00000000000E+00 0. -1.
         24    2    1    2    0    0  0.85629931741E+02  0.80064856949E+02 -0.18294320717E+04  0.18349548736E+04  0.80590424231E+02 0.  0.
         25    2    1    2    0    0 -0.34896105385E+02 -0.63824443186E+02  0.12500857301E+03  0.19123230289E+03  0.12510536609E+03 0.  0.
        -24    2    1    2    0    0 -0.50733826356E+02 -0.16240413763E+02  0.64567087416E+03  0.65279932834E+03  0.80114999597E+02 0.  0.
        -13    1    3    3    0    0  0.10757427503E+02  0.60070452858E+02 -0.60409299071E+03  0.60716762346E+03  0.00000000000E+00 0.  1.
         14    1    3    3    0    0  0.74872504238E+02  0.19994404091E+02 -0.12253390810E+04  0.12277872501E+04  0.00000000000E+00 0. -1.
         13    1    5    5    0    0 -0.64412928610E+02  0.94557823214E+01  0.37978613817E+03  0.38532576859E+03  0.00000000000E+00 0. -1.
        -14    1    5    5    0    0  0.13679102254E+02 -0.25696196085E+02  0.26588473599E+03  0.26747355975E+03  0.00000000000E+00 0.  1.
          5    1    4    4  501    0  0.22225846996E+02  0.25515088190E+02  0.11845606915E+02  0.36094304304E+02  0.41800000000E+01 0. -1.
         -5    1    4    4    0  501 -0.57121952380E+02 -0.89339531376E+02  0.11316296609E+03  0.15513799859E+03  0.41800000000E+01 0. -1.
</event>
<event>
11    1  0.8041700E-009  0.1567094E+03  0.7561462E-02  0.1090214E+00
         22   -1    0    0    0    0  0.00000000000E+00  0.00000000000E+00  0.46587257842E+03  0.46587257842E+03  0.00000000000E+00 0. -1.
         22   -1    0    0    0    0 -0.00000000000E+00 -0.00000000000E+00 -0.69999429761E+03  0.69999429761E+03  0.00000000000E+00 0. -1.
         24    2    1    2    0    0 -0.40669557445E+02 -0.78352879964E+02 -0.51908193477E+03  0.53364202486E+03  0.86801895056E+02 0.  0.
         25    2    1    2    0    0  0.29134064671E+02  0.14222124666E+03 -0.11191259820E+03  0.22191661037E+03  0.12508747178E+03 0.  0.
        -24    2    1    2    0    0  0.11535492774E+02 -0.63868366698E+02  0.39687281378E+03  0.41030824081E+03  0.81440691880E+02 0.  0.
        -13    1    3    3    0    0 -0.60613709503E+02 -0.58237908112E+02 -0.26564210234E+03  0.27862412361E+03  0.00000000000E+00 0.  1.
         14    1    3    3    0    0  0.19944152058E+02 -0.20114971852E+02 -0.25343983244E+03  0.25501790125E+03  0.00000000000E+00 0. -1.
         11    1    5    5    0    0  0.26769372896E+02 -0.47381109587E+02  0.37512997442E+03  0.37905681181E+03  0.00000000000E+00 0. -1.
        -12    1    5    5    0    0 -0.15233880122E+02 -0.16487257111E+02  0.21742839360E+02  0.31251428992E+02  0.00000000000E+00 0.  1.
          5    1    4    4  501    0  0.69596930584E+02  0.89841853842E+02 -0.32140240586E+02  0.11817681208E+03  0.41800000000E+01 0.  1.
         -5    1    4    4    0  501 -0.40462865913E+02  0.52379392819E+02 -0.79772357614E+02  0.10373979829E+03  0.41800000000E+01 0.  1.
</event>
<event>
11    1  0.8041700E-009  0.1500065E+03  0.7561462E-02  0.1096872E+00
         22   -1    0    0    0    0  0.00000000000E+00  0.00000000000E+00  0.72312975002E+03  0.72312975002E+03  0.00000000000E+00 0. -1.
         22   -1    0    0    0    0 -0.00000000000E+00 -0.00000000000E+00 -0.75834620878E+03  0.75834620878E+03  0.00000000000E+00 0.  1.
         24    2    1    2    0    0 -0.33736601820E+01  0.58690253946E+02 -0.62767596080E+03  0.63573596325E+03  0.82019361801E+02 0.  0.
         25    2    1    2    0    0 -0.11278603137E+02 -0.13796812204E+03 -0.50315225784E+02  0.19322857164E+03  0.12507297615E+03 0.  0.
        -24    2    1    2    0    0  0.14652263320E+02  0.79277868096E+02  0.64277472782E+03  0.65251142390E+03  0.78180166313E+02 0.  0.
        -11    1    3    3    0    0 -0.49253673519E+01  0.32546886363E+01 -0.43995560551E+03  0.43999521255E+03  0.00000000000E+00 0.  1.
         12    1    3    3    0    0  0.15517071699E+01  0.55435565309E+02 -0.18772035529E+03  0.19574075070E+03  0.00000000000E+00 0. -1.
         13    1    5    5    0    0  0.11159741488E+02  0.59022419578E+02  0.18997229141E+03  0.19924270965E+03  0.00000000000E+00 0. -1.
        -14    1    5    5    0    0  0.34925218312E+01  0.20255448518E+02  0.45280243641E+03  0.45326871426E+03  0.00000000000E+00 0.  1.
          5    1    4    4  501    0 -0.31102218812E+02  0.11188363472E+02  0.32059683520E+01  0.33470556095E+02  0.41800000000E+01 0. -1.
         -5    1    4    4    0  501  0.19823615675E+02 -0.14915648551E+03 -0.53521194136E+02  0.15975801554E+03  0.41800000000E+01 0. -1.
</event>
<event>
11    1  0.8041700E-009  0.2007616E+03  0.7561462E-02  0.1053986E+00
         22   -1    0    0    0    0  0.00000000000E+00  0.00000000000E+00  0.15921626081E+04  0.15921626081E+04  0.00000000000E+00 0. -1.
         22   -1    0    0    0    0 -0.00000000000E+00 -0.00000000000E+00 -0.36793203846E+03  0.36793203846E+03  0.00000000000E+00 0.  1.
        -24    2    1    2    0    0 -0.16104054187E+03  0.22120574119E+02 -0.21197167558E+03  0.27979609118E+03  0.83249537317E+02 0.  0.
         25    2    1    2    0    0  0.13513778747E+03 -0.62667707078E+02 -0.42076686363E+02  0.19901550160E+03  0.12508900523E+03 0.  0.
         24    2    1    2    0    0  0.25902754404E+02  0.40547132960E+02  0.14782789316E+04  0.14812830538E+04  0.81091695999E+02 0.  0.
        -13    1    5    5    0    0 -0.72996570791E+01 -0.15272422110E+01  0.12724629478E+02  0.14749022259E+02  0.00000000000E+00 0.  1.
         14    1    5    5    0    0  0.33202411483E+02  0.42074375171E+02  0.14655543021E+04  0.14665340315E+04  0.00000000000E+00 0. -1.
         11    1    3    3    0    0 -0.70641590484E+02  0.92481763685E+01 -0.32240037882E+02  0.78199636283E+02  0.00000000000E+00 0. -1.
        -12    1    3    3    0    0 -0.90398951391E+02  0.12872397750E+02 -0.17973163770E+03  0.20159645489E+03  0.00000000000E+00 0.  1.
          5    1    4    4  501    0  0.22870904328E+02  0.33873987789E+02 -0.29047465006E+02  0.50316527471E+02  0.41800000000E+01 0.  1.
         -5    1    4    4    0  501  0.11226688314E+03 -0.96541694867E+02 -0.13029221357E+02  0.14869897413E+03  0.41800000000E+01 0.  1.
</event>
<event>
11    1  0.8041700E-009  0.1631046E+03  0.7561462E-02  0.1084193E+00
         22   -1    0    0    0    0  0.00000000000E+00  0.00000000000E+00  0.55072577871E+03  0.55072577871E+03  0.00000000000E+00 0. -1.
         22   -1    0    0    0    0 -0.00000000000E+00 -0.00000000000E+00 -0.14899599170E+04  0.14899599170E+04  0.00000000000E+00 0. -1.
        -24    2    1    2    0    0 -0.61986445390E+02 -0.84212587595E+02 -0.14149507149E+04  0.14224544293E+04  0.10176934015E+03 0.  0.
         25    2    1    2    0    0 -0.30355424195E+02  0.15670041380E+03  0.12066157719E+03  0.23597287670E+03  0.12509001105E+03 0.  0.
         24    2    1    2    0    0  0.92341869585E+02 -0.72487826201E+02  0.35505499938E+03  0.38225838972E+03  0.79220692395E+02 0.  0.
        -13    1    5    5    0    0  0.30039772178E+02  0.13661922907E+02  0.57728618950E+02  0.66495334392E+02  0.00000000000E+00 0.  1.
         14    1    5    5    0    0  0.62302097407E+02 -0.86149749108E+02  0.29732638043E+03  0.31576305533E+03  0.00000000000E+00 0. -1.
         11    1    3    3    0    0 -0.66336352816E+02 -0.97050136829E+02 -0.13795173147E+04  0.13845169780E+04  0.00000000000E+00 0. -1.
        -12    1    3    3    0    0  0.43499074267E+01  0.12837549234E+02 -0.35433400227E+02  0.37937451372E+02  0.00000000000E+00 0.  1.
          5    1    4    4  501    0  0.19722901815E+02  0.99250310720E+01 -0.17303006981E+02  0.28361338974E+02  0.41800000000E+01 0.  1.
         -5    1    4    4    0  501 -0.50078326011E+02  0.14677538272E+03  0.13796458417E+03  0.20761153772E+03  0.41800000000E+01 0.  1.
</event>
<event>
11    1  0.8041700E-009  0.1642029E+03  0.7561462E-02  0.1083190E+00
         22   -1    0    0    0    0  0.00000000000E+00  0.00000000000E+00  0.12311150285E+04  0.12311150285E+04  0.00000000000E+00 0.  1.
         22   -1    0    0    0    0 -0.00000000000E+00 -0.00000000000E+00 -0.16886542722E+03  0.16886542722E+03  0.00000000000E+00 0.  1.
         24    2    1    2    0    0  0.90697095476E+02 -0.45631403221E+02 -0.86680381675E+02  0.15590132077E+03  0.80520464243E+02 0.  0.
         25    2    1    2    0    0 -0.13885645270E+03  0.18045251663E+02  0.14980259998E+03  0.24019712052E+03  0.12508833751E+03 0.  0.
        -24    2    1    2    0    0  0.48159357226E+02  0.27586151558E+02  0.99912738302E+03  0.10038820145E+04  0.80269869999E+02 0.  0.
        -11    1    3    3    0    0  0.48802421813E+02  0.17689367277E+02 -0.47955292989E+02  0.70670363061E+02  0.00000000000E+00 0.  1.
         12    1    3    3    0    0  0.41894673663E+02 -0.63320770498E+02 -0.38725088686E+02  0.85230957706E+02  0.00000000000E+00 0. -1.
         13    1    5    5    0    0 -0.15888907288E+02 -0.52614230732E+01  0.41485310557E+03  0.41519060580E+03  0.00000000000E+00 0. -1.
        -14    1    5    5    0    0  0.64048264514E+02  0.32847574631E+02  0.58427427745E+03  0.58869140866E+03  0.00000000000E+00 0.  1.
          5    1    4    4  501    0 -0.59906883331E+02 -0.43550869842E+02  0.21196982830E+02  0.77151133598E+02  0.41800000000E+01 0. -1.
         -5    1    4    4    0  501 -0.78949569371E+02  0.61596121504E+02  0.12860561715E+03  0.16304598692E+03  0.41800000000E+01 0. -1.
</event>
<event>
11    1  0.8041700E-009  0.1291812E+03  0.7561462E-02  0.1120279E+00
         22   -1    0    0    0    0  0.00000000000E+00  0.00000000000E+00  0.63664574705E+03  0.63664574705E+03  0.00000000000E+00 0.  1.
         22   -1    0    0    0    0 -0.00000000000E+00 -0.00000000000E+00 -0.19793076503E+03  0.19793076503E+03  0.00000000000E+00 0. -1.
        -24    2    1    2    0    0 -0.48795207573E+00  0.23703626652E+02 -0.99857598300E+02  0.13008034217E+03  0.79920306981E+02 0.  0.
         25    2    1    2    0    0 -0.10607282875E+02 -0.53042228003E+02 -0.21215232681E+02  0.13792250032E+03  0.12508612072E+03 0.  0.
         24    2    1    2    0    0  0.11095234951E+02  0.29338601351E+02  0.55978781300E+03  0.56657366959E+03  0.81605574089E+02 0.  0.
        -11    1    5    5    0    0 -0.11388242309E+02  0.27942597729E+01  0.47198827165E+03  0.47213390953E+03  0.00000000000E+00 0.  1.
         12    1    5    5    0    0  0.22483477259E+02  0.26544341578E+02  0.87799541346E+02  0.94439760060E+02  0.00000000000E+00 0. -1.
         11    1    3    3    0    0  0.36589387387E+02 -0.42206528687E+01 -0.40814761488E+02  0.54976739948E+02  0.00000000000E+00 0. -1.
        -12    1    3    3    0    0 -0.37077339463E+02  0.27924279521E+02 -0.59042836812E+02  0.75103602225E+02  0.00000000000E+00 0.  1.
          5    1    4    4  501    0 -0.41939774268E+02 -0.82153930727E+02 -0.22090867612E+02  0.94940464668E+02  0.41800000000E+01 0. -1.
         -5    1    4    4    0  501  0.31332491393E+02  0.29111702724E+02  0.87563493130E+00  0.42982035653E+02  0.41800000000E+01 0. -1.
</event>
<event>
11    1  0.8041700E-009  0.1328294E+03  0.7561462E-02  0.1115841E+00
         22   -1    0    0    0    0  0.00000000000E+00  0.00000000000E+00  0.36456253241E+02  0.36456253241E+02  0.00000000000E+00 0. -1.
         22   -1    0    0    0    0 -0.00000000000E+00 -0.00000000000E+00 -0.21011032010E+04  0.21011032010E+04  0.00000000000E+00 0. -1.
         24    2    1    2    0    0 -0.34891160979E+02 -0.45006859368E+02 -0.17131347090E+04  0.17158063033E+04  0.76926775360E+02 0.  0.
         25    2    1    2    0    0 -0.22165278307E+02  0.36215081617E+02 -0.22307278074E+03  0.25925261818E+03  0.12509045857E+03 0.  0.
        -24    2    1    2    0    0  0.57056439286E+02  0.87917777510E+01 -0.12843945805E+03  0.16250053280E+03  0.81098681582E+02 0.  0.
        -13    1    3    3    0    0  0.18954112820E+02 -0.26094779539E+02 -0.35162531196E+03  0.35310133945E+03  0.00000000000E+00 0.  1.
         14    1    3    3    0    0 -0.53845273799E+02 -0.18912079830E+02 -0.13615093970E+04  0.13627049639E+04  0.00000000000E+00 0. -1.
         11    1    5    5    0    0  0.34406338770E+01 -0.35253498148E+01  0.11297465565E+02  0.12324722350E+02  0.00000000000E+00 0. -1.
        -12    1    5    5    0    0  0.53615805409E+02  0.12317127566E+02 -0.13973692362E+03  0.15017581045E+03  0.00000000000E+00 0.  1.
          5    1    4    4  501    0 -0.13339788532E+01 -0.30037646365E+02 -0.16743925989E+03  0.17016879223E+03  0.41800000000E+01 0.  1.
         -5    1    4    4    0  501 -0.20831299454E+02  0.66252727982E+02 -0.55633520856E+02  0.89083825944E+02  0.41800000000E+01 0.  1.
</event>
<event>
11    1  0.8041700E-009  0.2172322E+03  0.7561462E-02  0.1042965E+00
         22   -1    0    0    0    0  0.00000000000E+00  0.00000000000E+00  0.16498325543E+04  0.16498325543E+04  0.00000000000E+00 0. -1.
         22   -1    0    0    0    0 -0.00000000000E+00 -0.00000000000E+00 -0.56727336967E+02  0.56727336967E+02  0.00000000000E+00 0. -1.
         24    2    1    2    0    0 -0.62385987368E+02 -0.16137111735E+02  0.87992499978E+02  0.13534050062E+03  0.80137090415E+02 0.  0.
         25    2    1    2    0    0  0.17624007898E+03 -0.10626538569E+03  0.61437638988E+03  0.65989313024E+03  0.12509075607E+03 0.  0.
        -24    2    1    2    0    0 -0.11385409161E+03  0.12240249742E+03  0.89073632743E+03  0.91132626037E+03  0.95703825854E+02 0.  0.
        -11    1    3    3    0    0 -0.19390287654E+02  0.31872236878E+02  0.41926563427E+02  0.56121826946E+02  0.00000000000E+00 0.  1.
         12    1    3    3    0    0 -0.42995699714E+02 -0.48009348613E+02  0.46065936551E+02  0.79218673672E+02  0.00000000000E+00 0. -1.
         11    1    5    5    0    0 -0.52494251196E+02  0.88000153682E+02  0.71045681427E+03  0.71780816268E+03  0.00000000000E+00 0. -1.
        -12    1    5    5    0    0 -0.61359840418E+02  0.34402343739E+02  0.18027951315E+03  0.19351809769E+03  0.00000000000E+00 0.  1.
          5    1    4    4  501    0  0.16215359349E+03 -0.13248997318E+03  0.55785776461E+03  0.59587762066E+03  0.41800000000E+01 0. -1.
         -5    1    4    4    0  501  0.14086485493E+02  0.26224587496E+02  0.56518625275E+02  0.64015509572E+02  0.41800000000E+01 0. -1.
</event>
<event>
11    1  0.8041700E-009  0.2151313E+03  0.7561462E-02  0.1044311E+00
         22   -1    0    0    0    0  0.00000000000E+00  0.00000000000E+00  0.10735838809E+04  0.10735838809E+04  0.00000000000E+00 0.  1.
         22   -1    0    0    0    0 -0.00000000000E+00 -0.00000000000E+00 -0.50994657151E+03  0.50994657151E+03  0.00000000000E+00 0.  1.
         24    2    1    2    0    0  0.43202384785E+02 -0.18476987059E+03  0.29748572603E+03  0.36198185955E+03  0.80788355143E+02 0.  0.
         25    2    1    2    0    0  0.13276129448E+03  0.12301118836E+03 -0.43778927679E+03  0.48996483441E+03  0.12509506112E+03 0.  0.
        -24    2    1    2    0    0 -0.17596367927E+03  0.61758682232E+02  0.70394086010E+03  0.73158375840E+03  0.70033633173E+02 0.  0.
        -13    1    3    3    0    0  0.35719621293E+02 -0.98101785202E+02  0.22757622945E+03  0.25038129286E+03  0.00000000000E+00 0.  1.
         14    1    3    3    0    0  0.74827634917E+01 -0.86668085386E+02  0.69909496583E+02  0.11160056669E+03  0.00000000000E+00 0. -1.
         11    1    5    5    0    0 -0.76264455744E+02  0.53807425656E+02  0.42847822982E+03  0.43852605361E+03  0.00000000000E+00 0. -1.
        -12    1    5    5    0    0 -0.99699223523E+02  0.79512565759E+01  0.27546263029E+03  0.29305770479E+03  0.00000000000E+00 0.  1.
          5    1    4    4  501    0  0.13244780196E+03  0.48251018737E+02 -0.23851852776E+03  0.27709049341E+03  0.41800000000E+01 0.  1.
         -5    1    4    4    0  501  0.31349251942E+00  0.74760169619E+02 -0.19927074902E+03  0.21287434100E+03  0.41800000000E+01 0.  1.
</event>
<event>
11    1  0.8041700E-009  0.1348076E+03  0.7561462E-02  0.1113499E+00
         22   -1    0    0    0    0  0.00000000000E+00  0.00000000000E+00  0.22309349170E+03  0.22309349170E+03  0.00000000000E+00 0. -1.
         22   -1    0    0    0    0 -0.00000000000E+00 -0.00000000000E+00 -0.12847798589E+04  0.12847798589E+04  0.00000000000E+00 0.  1.
         24    2    1    2    0    0 -0.24790569323E+02 -0.12013884441E+02 -0.12161666294E+04  0.12191634764E+04  0.80866593894E+02 0.  0.
         25    2    1    2    0    0 -0.88235065974E+01  0.51215664693E+02  0.45031428507E+02  0.14274495326E+03  0.12508954212E+03 0.  0.
        -24    2    1    2    0    0  0.33614075921E+02 -0.39201780251E+02  0.10944883364E+03  0.14596492099E+03  0.81608978053E+02 0.  0.
        -13    1    3    3    0    0 -0.24461087277E+02  0.26842255437E+02 -0.88163806492E+03  0.88238570307E+03  0.00000000000E+00 0.  1.
         14    1    3    3    0    0 -0.32948204660E+00 -0.38856139879E+02 -0.33452856446E+03  0.33677777333E+03  0.00000000000E+00 0. -1.
         11    1    5    5    0    0  0.46279790931E+02  0.62685747743E+01  0.71495195310E+02  0.85397172264E+02  0.00000000000E+00 0. -1.
        -12    1    5    5    0    0 -0.12665715010E+02 -0.45470355026E+02  0.37953638330E+02  0.60567748723E+02  0.00000000000E+00 0.  1.
          5    1    4    4  501    0 -0.49437141205E+02 -0.65660736043E+01  0.51360908653E+02  0.71711641947E+02  0.41800000000E+01 0. -1.
         -5    1    4    4    0  501  0.40613634608E+02  0.57781738297E+02 -0.63294801460E+01  0.71033311310E+02  0.41800000000E+01 0. -1.
</event>
<event>
11    1  0.8041700E-009  0.1373744E+03  0.7561462E-02  0.1110526E+00
         22   -1    0    0    0    0  0.00000000000E+00  0.00000000000E+00  0.79088120921E+03  0.79088120921E+03  0.00000000000E+00 0.  1.
         22   -1    0    0    0    0 -0.00000000000E+00 -0.00000000000E+00 -0.15490514078E+03  0.15490514078E+03  0.00000000000E+00 0. -1.
         24    2    1    2    0    0 -0.60637249222E+00  0.77313788460E+01 -0.92946268732E+02  0.13210496291E+03  0.93555173279E+02 0.  0.
         25    2    1    2    0    0  0.15394056668E+02 -0.61834523899E+02  0.89442732701E+02  0.16645659888E+03  0.12508921437E+03 0.  0.
        -24    2    1    2    0    0 -0.14787684176E+02  0.54103145053E+02  0.63947960446E+03  0.64722478820E+03  0.82582904036E+02 0.  0.
        -11    1    3    3    0    0  0.26453244685E+02  0.42063132380E+02 -0.42811694296E+02  0.65589041984E+02  0.00000000000E+00 0.  1.
         12    1    3    3    0    0 -0.27059617177E+02 -0.34331753534E+02 -0.50134574435E+02  0.66515920923E+02  0.00000000000E+00 0. -1.
         13    1    5    5    0    0  0.30534804217E+02  0.13972297928E+02  0.13444741661E+03  0.13857744121E+03  0.00000000000E+00 0. -1.
        -14    1    5    5    0    0 -0.45322488393E+02  0.40130847125E+02  0.50503218785E+03  0.50864734700E+03  0.00000000000E+00 0.  1.
          5    1    4    4  501    0  0.15291578322E+02  0.33169844947E+02  0.53245592430E+02  0.64704223159E+02  0.41800000000E+01 0.  1.
         -5    1    4    4    0  501  0.10247834641E+00 -0.95004368846E+02  0.36197140272E+02  0.10175237572E+03  0.41800000000E+01 0.  1.
</event>
<event>
11    1  0.8041700E-009  0.1313813E+03  0.7561462E-02  0.1117583E+00
         22   -1    0    0    0    0  0.00000000000E+00  0.00000000000E+00  0.99099268743E+03  0.99099268743E+03  0.00000000000E+00 0.  1.
         22   -1    0    0    0    0 -0.00000000000E+00 -0.00000000000E+00 -0.66160956163E+03  0.66160956163E+03  0.00000000000E+00 0. -1.
        -24    2    1    2    0    0  0.46334153403E+01  0.96261335366E+01 -0.59879802678E+03  0.60468240042E+03  0.83472136169E+02 0.  0.
         25    2    1    2    0    0  0.17027955559E+02  0.24711564538E+02  0.14554349004E+02  0.12945963412E+03  0.12508938843E+03 0.  0.
         24    2    1    2    0    0 -0.21661370899E+02 -0.34337698075E+02  0.91362680358E+03  0.91846021452E+03  0.84893680202E+02 0.  0.
        -13    1    5    5    0    0 -0.52010216156E+02 -0.36666531132E+02  0.62849573513E+03  0.63170909932E+03  0.00000000000E+00 0.  1.
         14    1    5    5    0    0  0.30348845257E+02  0.23288330577E+01  0.28513106846E+03  0.28675111520E+03  0.00000000000E+00 0. -1.
         13    1    3    3    0    0  0.14624867423E+02  0.44844807117E+02 -0.36509653854E+03  0.36813099017E+03  0.00000000000E+00 0. -1.
        -14    1    3    3    0    0 -0.99914520830E+01 -0.35218673580E+02 -0.23370148825E+03  0.23655141025E+03  0.00000000000E+00 0.  1.
          5    1    4    4  501    0 -0.43105017647E+02  0.45112703886E+02  0.19830843876E+02  0.65604370031E+02  0.41800000000E+01 0. -1.
         -5    1    4    4    0  501  0.60132973206E+02 -0.20401139348E+02 -0.52764948714E+01  0.63855264086E+02  0.41800000000E+01 0. -1.
</event>
<event>
11    1  0.8041700E-009  0.1378043E+03  0.7561462E-02  0.1110035E+00
         22   -1    0    0    0    0  0.00000000000E+00  0.00000000000E+00  0.48430814264E+02  0.48430814264E+02  0.00000000000E+00 0.  1.
         22   -1    0    0    0    0 -0.00000000000E+00 -0.00000000000E+00 -0.21267396447E+04  0.21267396447E+04  0.00000000000E+00 0. -1.
         24    2    1    2    0    0  0.22636252063E+02 -0.51891532995E+02 -0.16834554443E+04  0.16862820724E+04  0.79497568760E+02 0.  0.
         25    2    1    2    0    0  0.47498089910E+01  0.77222508818E+02 -0.36713794646E+03  0.39550442413E+03  0.12509037223E+03 0.  0.
        -24    2    1    2    0    0 -0.27386061054E+02 -0.25330975824E+02 -0.27715439644E+02  0.93383962462E+02  0.80998544273E+02 0.  0.
        -11    1    3    3    0    0  0.41893587177E+02 -0.44028926320E+02 -0.70765780234E+03  0.71026275716E+03  0.00000000000E+00 0.  1.
         12    1    3    3    0    0 -0.19257335114E+02 -0.78626066749E+01 -0.97579764200E+03  0.97601931522E+03  0.00000000000E+00 0. -1.
         13    1    5    5    0    0 -0.74063410818E+01 -0.26148600004E+02 -0.53943364132E+02  0.60402729278E+02  0.00000000000E+00 0. -1.
        -14    1    5    5    0    0 -0.19979719972E+02  0.81762418073E+00  0.26227924487E+02  0.32981233184E+02  0.00000000000E+00 0.  1.
          5    1    4    4  501    0  0.36223074143E+02  0.21494294277E+02 -0.29879882348E+03  0.30178191646E+03  0.41800000000E+01 0.  1.
         -5    1    4    4    0  501 -0.31473265152E+02  0.55728214541E+02 -0.68339122977E+02  0.93722507673E+02  0.41800000000E+01 0.  1.
</event>
<event>
11    1  0.8041700E-009  0.1384178E+03  0.7561462E-02  0.1109338E+00
         22   -1    0    0    0    0  0.00000000000E+00  0.00000000000E+00  0.41716910129E+02  0.41716910129E+02  0.00000000000E+00 0.  1.
         22   -1    0    0    0    0 -0.00000000000E+00 -0.00000000000E+00 -0.11528792953E+04  0.11528792953E+04  0.00000000000E+00 0.  1.
         24    2    1    2    0    0 -0.45716442348E+02  0.10306199862E+02 -0.75782539142E+03  0.76362406219E+03  0.81401312122E+02 0.  0.
         25    2    1    2    0    0  0.46891873576E+02  0.50043899871E+02 -0.23885863342E+03  0.27821740849E+03  0.12509292508E+03 0.  0.
        -24    2    1    2    0    0 -0.11754312279E+01 -0.60350099733E+02 -0.11447836032E+03  0.15275473474E+03  0.81149231837E+02 0.  0.
        -11    1    3    3    0    0 -0.36232036053E+02 -0.32818898492E+02 -0.45006254584E+03  0.45270976983E+03  0.00000000000E+00 0.  1.
         12    1    3    3    0    0 -0.94844062944E+01  0.43125098354E+02 -0.30776284558E+03  0.31091429236E+03  0.00000000000E+00 0. -1.
         11    1    5    5    0    0 -0.19617617029E+02 -0.34318892158E+02 -0.11420358480E+03  0.12085154545E+03  0.00000000000E+00 0. -1.
        -12    1    5    5    0    0  0.18442185801E+02 -0.26031207575E+02 -0.27477551417E+00  0.31903189284E+02  0.00000000000E+00 0.  1.
          5    1    4    4  501    0  0.58783665864E+02  0.70025023009E+02 -0.23753308964E+03  0.25455542480E+03  0.41800000000E+01 0. -1.
         -5    1    4    4    0  501 -0.11891792289E+02 -0.19981123139E+02 -0.13255437766E+01  0.23661983687E+02  0.41800000000E+01 0. -1.
</event>
<event>
11    1  0.8041700E-009  0.1294525E+03  0.7561462E-02  0.1119943E+00
         22   -1    0    0    0    0  0.00000000000E+00  0.00000000000E+00  0.53399879028E+03  0.53399879028E+03  0.00000000000E+00 0.  1.
         22   -1    0    0    0    0 -0.00000000000E+00 -0.00000000000E+00 -0.27421980758E+03  0.27421980758E+03  0.00000000000E+00 0.  1.
        -24    2    1    2    0    0 -0.62691536307E+01 -0.12621285640E+02 -0.12915925076E+03  0.15206373253E+03  0.79010553450E+02 0.  0.
         25    2    1    2    0    0 -0.12454865476E+02  0.39942910669E+02 -0.96226289840E+02  0.16327169873E+03  0.12509032322E+03 0.  0.
         24    2    1    2    0    0  0.18724019107E+02 -0.27321625029E+02  0.48516452330E+03  0.49288316659E+03  0.80325221179E+02 0.  0.
        -11    1    5    5    0    0  0.23041957412E+02 -0.18547700563E+02  0.48155007208E+03  0.48245768822E+03  0.00000000000E+00 0.  1.
         12    1    5    5    0    0 -0.43179383049E+01 -0.87739244656E+01  0.36144512138E+01  0.10425478373E+02  0.00000000000E+00 0. -1.
         13    1    3    3    0    0  0.15672331239E+02  0.20465235309E+01  0.40084994469E+01  0.16305774831E+02  0.00000000000E+00 0. -1.
        -14    1    3    3    0    0 -0.21941484870E+02 -0.14667809171E+02 -0.13316775021E+03  0.13575795770E+03  0.00000000000E+00 0.  1.
          5    1    4    4  501    0 -0.27584629521E+02  0.15546739571E+02 -0.12098709969E+03  0.12513178488E+03  0.41800000000E+01 0.  1.
         -5    1    4    4    0  501  0.15129764045E+02  0.24396171098E+02  0.24760809846E+02  0.38139913851E+02  0.41800000000E+01 0.  1.
</event>
<event>
11    1  0.8041700E-009  0.2123159E+03  0.7561462E-02  0.1046141E+00
         22   -1    0    0    0    0  0.00000000000E+00  0.00000000000E+00  0.65865341182E+03  0.65865341182E+03  0.00000000000E+00 0. -1.
         22   -1    0    0    0    0 -0.00000000000E+00 -0.00000000000E+00 -0.22474686132E+03  0.22474686132E+03  0.00000000000E+00 0. -1.
         24    2    1    2    0    0  0.32493566924E+02  0.96973129471E+02 -0.48637515829E+02  0.13807484923E+03  0.78990102636E+02 0.  0.
         25    2    1    2    0    0 -0.18093365580E+03 -0.57278562873E+01 -0.54637174510E+01  0.22010836129E+03  0.12509213549E+03 0.  0.
        -24    2    1    2    0    0  0.14844008888E+03 -0.91245273183E+02  0.48800778378E+03  0.52521706261E+03  0.85680837806E+02 0.  0.
        -11    1    3    3    0    0  0.45485200448E+02  0.18434088692E+02 -0.24723090788E+02  0.54954074497E+02  0.00000000000E+00 0.  1.
         12    1    3    3    0    0 -0.12991633524E+02  0.78539040779E+02 -0.23914425041E+02  0.83120774738E+02  0.00000000000E+00 0. -1.
         11    1    5    5    0    0  0.44202797425E+02 -0.68147749431E+02  0.14780393178E+03  0.16865350665E+03  0.00000000000E+00 0. -1.
        -12    1    5    5    0    0  0.10423729146E+03 -0.23097523752E+02  0.34020385199E+03  0.35656355597E+03  0.00000000000E+00 0.  1.
          5    1    4    4  501    0 -0.81745695172E+02  0.43563721831E+02 -0.44168012579E+02  0.10270560975E+03  0.41800000000E+01 0.  1.
         -5    1    4    4    0  501 -0.99187960632E+02 -0.49291578119E+02  0.38704295128E+02  0.11740275154E+03  0.41800000000E+01 0.  1.
</event>
<event>
11    1  0.8041700E-009  0.1473562E+03  0.7561462E-02  0.1099611E+00
         22   -1    0    0    0    0  0.00000000000E+00  0.00000000000E+00  0.19279660834E+04  0.19279660834E+04  0.00000000000E+00 0. -1.
         22   -1    0    0    0    0 -0.00000000000E+00 -0.00000000000E+00 -0.17340142042E+03  0.17340142042E+03  0.00000000000E+00 0. -1.
        -24    2    1    2    0    0 -0.51340573180E+02  0.10082670777E+03 -0.25330784981E+01  0.13911318901E+03  0.80896127324E+02 0.  0.
         25    2    1    2    0    0  0.56100013106E+02 -0.24427949774E+02 -0.52854038598E+02  0.14895267005E+03  0.12509761116E+03 0.  0.
         24    2    1    2    0    0 -0.47594399261E+01 -0.76398757998E+02  0.18099517801E+04  0.18133016447E+04  0.79233744160E+02 0.  0.
        -13    1    5    5    0    0 -0.15361143894E+01  0.16539212671E+02  0.34687911038E+03  0.34727657914E+03  0.00000000000E+00 0.  1.
         14    1    5    5    0    0 -0.32233255367E+01 -0.92937970669E+02  0.14630726697E+04  0.14660250656E+04  0.00000000000E+00 0. -1.
         13    1    3    3    0    0 -0.61856073145E+02  0.85049922018E+02 -0.26598210310E+02  0.10847639288E+03  0.00000000000E+00 0. -1.
        -14    1    3    3    0    0  0.10515499965E+02  0.15776785755E+02  0.24065131812E+02  0.30636796135E+02  0.00000000000E+00 0.  1.
          5    1    4    4  501    0  0.58218883629E+02 -0.68032533406E+02 -0.54782583658E+02  0.10505459478E+03  0.41800000000E+01 0.  1.
         -5    1    4    4    0  501 -0.21188705229E+01  0.43604583632E+02  0.19285450592E+01  0.43898075266E+02  0.41800000000E+01 0.  1.
</event>
<event>
11    1  0.8041700E-009  0.1419696E+03  0.7561462E-02  0.1105379E+00
         22   -1    0    0    0    0  0.00000000000E+00  0.00000000000E+00  0.98030193943E+02  0.98030193943E+02  0.00000000000E+00 0.  1.
         22   -1    0    0    0    0 -0.00000000000E+00 -0.00000000000E+00 -0.20021116744E+04  0.20021116744E+04  0.00000000000E+00 0. -1.
         24    2    1    2    0    0 -0.36338298590E+02 -0.43614377648E+02 -0.17023685373E+04  0.17052058912E+04  0.80285793014E+02 0.  0.
         25    2    1    2    0    0  0.13175889473E+02 -0.26082504326E+02 -0.24680540036E+03  0.27823249047E+03  0.12508601845E+03 0.  0.
        -24    2    1    2    0    0  0.23162409116E+02  0.69696881974E+02  0.45092457252E+02  0.11670348667E+03  0.78690670012E+02 0.  0.
        -13    1    3    3    0    0  0.13785461679E+02 -0.37020172221E+02 -0.42348882575E+03  0.42532730648E+03  0.00000000000E+00 0.  1.
         14    1    3    3    0    0 -0.50123760268E+02 -0.65942054273E+01 -0.12788797116E+04  0.12798785847E+04  0.00000000000E+00 0. -1.
         13    1    5    5    0    0  0.29038045181E+01  0.45137277106E+02 -0.15865484500E+02  0.47932446877E+02  0.00000000000E+00 0. -1.
        -14    1    5    5    0    0  0.20258604598E+02  0.24559604868E+02  0.60957941752E+02  0.68771039793E+02  0.00000000000E+00 0.  1.
          5    1    4    4  501    0  0.33171856031E+02  0.82444994090E+01 -0.70216988198E+01  0.35144280578E+02  0.41800000000E+01 0. -1.
         -5    1    4    4    0  501 -0.19995966557E+02 -0.34327003735E+02 -0.23978370154E+03  0.24308820990E+03  0.41800000000E+01 0. -1.
</event>
<event>
11    1  0.8041700E-009  0.1710370E+03  0.7561462E-02  0.1077133E+00
         22   -1    0    0    0    0  0.00000000000E+00  0.00000000000E+00  0.83151632831E+03  0.83151632831E+03  0.00000000000E+00 0. -1.
         22   -1    0    0    0    0 -0.00000000000E+00 -0.00000000000E+00 -0.30103096944E+03  0.30103096944E+03  0.00000000000E+00 0. -1.
         24    2    1    2    0    0  0.22086410511E+02  0.31752905883E+02 -0.23594311227E+03  0.25193069921E+03  0.79396904339E+02 0.  0.
         25    2    1    2    0    0 -0.93830210837E+02  0.62056737149E+02  0.93066345459E+02  0.19225796316E+03  0.12508650068E+03 0.  0.
        -24    2    1    2    0    0  0.71743800326E+02 -0.93809643032E+02  0.67336212568E+03  0.68835863537E+03  0.80458912412E+02 0.  0.
        -11    1    3    3    0    0  0.45263038589E+02  0.32297924781E+02 -0.10366509728E+03  0.11763652069E+03  0.00000000000E+00 0.  1.
         12    1    3    3    0    0 -0.23176628078E+02 -0.54501889755E+00 -0.13227801499E+03  0.13429417852E+03  0.00000000000E+00 0. -1.
         11    1    5    5    0    0  0.21186067150E+02 -0.89036816490E+02  0.46238968081E+03  0.47136039402E+03  0.00000000000E+00 0. -1.
        -12    1    5    5    0    0  0.50557733176E+02 -0.47728265419E+01  0.21097244487E+03  0.21699824135E+03  0.00000000000E+00 0.  1.
          5    1    4    4  501    0 -0.10849753317E+03  0.85024159967E+02  0.63475269399E+02  0.15181371712E+03  0.41800000000E+01 0. -1.
         -5    1    4    4    0  501  0.14667322332E+02 -0.22967422819E+02  0.29591076059E+02  0.40444246039E+02  0.41800000000E+01 0. -1.
</event>
<event>
11    1  0.8041700E-009  0.1295734E+03  0.7561462E-02  0.1119794E+00
         22   -1    0    0    0    0  0.00000000000E+00  0.00000000000E+00  0.46145878327E+03  0.46145878327E+03  0.00000000000E+00 0. -1.
         22   -1    0    0    0    0 -0.00000000000E+00 -0.00000000000E+00 -0.11140961756E+03  0.11140961756E+03  0.00000000000E+00 0.  1.
        -24    2    1    2    0    0  0.17763576547E+01 -0.32273470614E+02 -0.52203023433E+02  0.98897453720E+02  0.77529467590E+02 0.  0.
         25    2    1    2    0    0 -0.39097915205E+01 -0.73396149497E+01  0.10524481814E+03  0.16369771117E+03  0.12510520565E+03 0.  0.
         24    2    1    2    0    0  0.21334338658E+01  0.39613085563E+02  0.29700737101E+03  0.31027323593E+03  0.80513069846E+02 0.  0.
        -13    1    5    5    0    0  0.95207872777E+01  0.24467951370E+02  0.20650563830E+02  0.33403170824E+02  0.00000000000E+00 0.  1.
         14    1    5    5    0    0 -0.73873534119E+01  0.15145134193E+02  0.27635680718E+03  0.27687006511E+03  0.00000000000E+00 0. -1.
         13    1    3    3    0    0  0.33822081130E+02 -0.16536205902E+02 -0.25399891779E+01  0.37733682866E+02  0.00000000000E+00 0. -1.
        -14    1    3    3    0    0 -0.32045723476E+02 -0.15737264712E+02 -0.49663034255E+02  0.61163770854E+02  0.00000000000E+00 0.  1.
          5    1    4    4  501    0 -0.49576548584E+02  0.52347222720E+01  0.20436104480E+01  0.50068804963E+02  0.41800000000E+01 0. -1.
         -5    1    4    4    0  501  0.45666757063E+02 -0.12574337222E+02  0.10320120769E+03  0.11362890621E+03  0.41800000000E+01 0. -1.
</event>
<event>
11    1  0.8041700E-009  0.1743800E+03  0.7561462E-02  0.1074282E+00
         22   -1    0    0    0    0  0.00000000000E+00  0.00000000000E+00  0.75261302850E+03  0.75261302850E+03  0.00000000000E+00 0.  1.
         22   -1    0    0    0    0 -0.00000000000E+00 -0.00000000000E+00 -0.61823101654E+03  0.61823101654E+03  0.00000000000E+00 0.  1.
        -24    2    1    2    0    0 -0.39594017711E+02 -0.36418560524E+01 -0.53905051913E+03  0.54635482817E+03  0.79669233277E+02 0.  0.
         25    2    1    2    0    0  0.11819517088E+03  0.91931425359E+02  0.74624582281E+02  0.20891046593E+03  0.12511302533E+03 0.  0.
         24    2    1    2    0    0 -0.78601153170E+02 -0.88289569307E+02  0.59880794882E+03  0.61557875094E+03  0.79956548884E+02 0.  0.
        -13    1    5    5    0    0 -0.82386678913E+02 -0.90617532891E+02  0.59873685383E+03  0.61113412788E+03  0.00000000000E+00 0.  1.
         14    1    5    5    0    0  0.37855257434E+01  0.23279635844E+01  0.71094989640E-01  0.44446230551E+01  0.00000000000E+00 0. -1.
         13    1    3    3    0    0  0.24107279378E+02  0.18294763861E+01 -0.18561880545E+03  0.18718666844E+03  0.00000000000E+00 0. -1.
        -14    1    3    3    0    0 -0.63701297090E+02 -0.54713324386E+01 -0.35343171368E+03  0.35916815973E+03  0.00000000000E+00 0.  1.
          5    1    4    4  501    0 -0.24156713079E+02  0.31921286020E+02  0.20476480592E+02  0.45158320888E+02  0.41800000000E+01 0. -1.
         -5    1    4    4    0  501  0.14235188396E+03  0.60010139340E+02  0.54148101689E+02  0.16375214505E+03  0.41800000000E+01 0. -1.
</event>
<event>
11    1  0.8041700E-009  0.2699807E+03  0.7561462E-02  0.1013763E+00
         22   -1    0    0    0    0  0.00000000000E+00  0.00000000000E+00  0.10757232467E+03  0.10757232467E+03  0.00000000000E+00 0.  1.
         22   -1    0    0    0    0 -0.00000000000E+00 -0.00000000000E+00 -0.16083379468E+04  0.16083379468E+04  0.00000000000E+00 0. -1.
         24    2    1    2    0    0 -0.18645812512E+03  0.38652524692E+02 -0.76448588178E+03  0.79190545911E+03  0.80093337067E+02 0.  0.
         25    2    1    2    0    0  0.17593313811E+03 -0.25096302008E+03 -0.41565494164E+03  0.53136615027E+03  0.12508416609E+03 0.  0.
        -24    2    1    2    0    0  0.10524987017E+02  0.21231049539E+03 -0.32062479868E+03  0.39263866206E+03  0.78602389325E+02 0.  0.
        -13    1    3    3    0    0 -0.12829925640E+03  0.28002065590E+02 -0.36165531805E+03  0.38475886467E+03  0.00000000000E+00 0.  1.
         14    1    3    3    0    0 -0.58158868726E+02  0.10650459102E+02 -0.40283056372E+03  0.40714659444E+03  0.00000000000E+00 0. -1.
         13    1    5    5    0    0 -0.33479354448E+02  0.11562163127E+03 -0.17378109949E+03  0.21139796435E+03  0.00000000000E+00 0. -1.
        -14    1    5    5    0    0  0.44004341465E+02  0.96688864120E+02 -0.14684369919E+03  0.18124069770E+03  0.00000000000E+00 0.  1.
          5    1    4    4  501    0  0.17442784094E+03 -0.22633396500E+03 -0.41786542810E+03  0.50624215926E+03  0.41800000000E+01 0. -1.
         -5    1    4    4    0  501  0.15052971697E+01 -0.24629055081E+02  0.22104864641E+01  0.25123991008E+02  0.41800000000E+01 0. -1.
</event>
<event>
11    1  0.8041700E-009  0.1743043E+03  0.7561462E-02  0.1074346E+00
         22   -1    0    0    0    0  0.00000000000E+00  0.00000000000E+00  0.10910007135E+04  0.10910007135E+04  0.00000000000E+00 0.  1.
         22   -1    0    0    0    0 -0.00000000000E+00 -0.00000000000E+00 -0.14977736185E+04  0.14977736185E+04  0.00000000000E+00 0. -1.
         24    2    1    2    0    0 -0.35478494454E+02 -0.18208244551E+02 -0.14267072215E+04  0.14297140272E+04  0.83656678923E+02 0.  0.
         25    2    1    2    0    0 -0.14164655864E+01 -0.99797435443E+02  0.36435579428E+02  0.16413876709E+03  0.12510974749E+03 0.  0.
        -24    2    1    2    0    0  0.36894960041E+02  0.11800567999E+03  0.98349873702E+03  0.99492153773E+03  0.85513285036E+02 0.  0.
        -13    1    3    3    0    0 -0.84254106557E+01  0.29495568504E+02 -0.27574018506E+03  0.27744121136E+03  0.00000000000E+00 0.  1.
         14    1    3    3    0    0 -0.27053083799E+02 -0.47703813055E+02 -0.11509670364E+04  0.11522728158E+04  0.00000000000E+00 0. -1.
         13    1    5    5    0    0 -0.26805700449E+02  0.20447886322E+02  0.23641722732E+03  0.23880905972E+03  0.00000000000E+00 0. -1.
        -14    1    5    5    0    0  0.63700660490E+02  0.97557793673E+02  0.74708150970E+03  0.75611247800E+03  0.00000000000E+00 0.  1.
          5    1    4    4  501    0 -0.40568125550E+01 -0.94941583857E+02 -0.28137796014E+02  0.99194606900E+02  0.41800000000E+01 0.  1.
         -5    1    4    4    0  501  0.26403469686E+01 -0.48558515856E+01  0.64573375442E+02  0.64944160189E+02  0.41800000000E+01 0.  1.
</event>
<event>
11    1  0.8041700E-009  0.1500582E+03  0.7561462E-02  0.1096819E+00
         22   -1    0    0    0    0  0.00000000000E+00  0.00000000000E+00  0.68860002041E+03  0.68860002041E+03  0.00000000000E+00 0.  1.
         22   -1    0    0    0    0 -0.00000000000E+00 -0.00000000000E+00 -0.21995763183E+03  0.21995763183E+03  0.00000000000E+00 0.  1.
        -24    2    1    2    0    0  0.90849765874E+02 -0.12186923172E+02 -0.16615778481E+03  0.20577689110E+03  0.79583405331E+02 0.  0.
         25    2    1    2    0    0 -0.20684224989E+02 -0.15685750297E+02  0.11680476247E+03  0.17310287783E+03  0.12508946339E+03 0.  0.
         24    2    1    2    0    0 -0.70165540885E+02  0.27872673469E+02  0.51799541092E+03  0.52967788331E+03  0.80866094771E+02 0.  0.
        -13    1    5    5    0    0 -0.31388857705E+02  0.31470480732E+01  0.42259903097E+03  0.42377482851E+03  0.00000000000E+00 0.  1.
         14    1    5    5    0    0 -0.38776683180E+02  0.24725625396E+02  0.95396379945E+02  0.10590305480E+03  0.00000000000E+00 0. -1.
         11    1    3    3    0    0  0.48545085686E+02 -0.37566108795E+02 -0.48619343526E+02  0.78305034571E+02  0.00000000000E+00 0. -1.
        -12    1    3    3    0    0  0.42304680188E+02  0.25379185623E+02 -0.11753844128E+03  0.12747185653E+03  0.00000000000E+00 0.  1.
          5    1    4    4  501    0  0.37694465039E+02  0.21705037677E+02  0.86139379152E+01  0.44538227194E+02  0.41800000000E+01 0.  1.
         -5    1    4    4    0  501 -0.58378690028E+02 -0.37390787974E+02  0.10819082455E+03  0.12856465063E+03  0.41800000000E+01 0.  1.
</event>
<event>
11    1  0.8041700E-009  0.1330307E+03  0.7561462E-02  0.1115600E+00
         22   -1    0    0    0    0  0.00000000000E+00  0.00000000000E+00  0.49264653301E+03  0.49264653301E+03  0.00000000000E+00 0.  1.
         22   -1    0    0    0    0 -0.00000000000E+00 -0.00000000000E+00 -0.36315127693E+03  0.36315127693E+03  0.00000000000E+00 0. -1.
        -24    2    1    2    0    0 -0.25471406817E+02 -0.19733860480E+01 -0.18637363042E+03  0.20387591949E+03  0.78597542049E+02 0.  0.
         25    2    1    2    0    0  0.51804718754E+02  0.38242841922E+02 -0.13315075303E+03  0.19370727150E+03  0.12508852927E+03 0.  0.
         24    2    1    2    0    0 -0.26333311937E+02 -0.36269455874E+02  0.44901963953E+03  0.45821461895E+03  0.79580673501E+02 0.  0.
        -11    1    5    5    0    0 -0.23594186950E+02 -0.32256872457E+02  0.45114501520E+03  0.45291170908E+03  0.00000000000E+00 0.  1.
         12    1    5    5    0    0 -0.27391249864E+01 -0.40125834177E+01 -0.21253756758E+01  0.53029098746E+01  0.00000000000E+00 0. -1.
         13    1    3    3    0    0 -0.79098756053E+01 -0.40258831640E+01 -0.18597878303E+03  0.18619044445E+03  0.00000000000E+00 0. -1.
        -14    1    3    3    0    0 -0.17561531212E+02  0.20524971160E+01 -0.39484738456E+00  0.17685475039E+02  0.00000000000E+00 0.  1.
          5    1    4    4  501    0  0.11005493944E+02 -0.97306847128E+01 -0.12959523418E+03  0.13049216162E+03  0.41800000000E+01 0. -1.
         -5    1    4    4    0  501  0.40799224810E+02  0.47973526635E+02 -0.35555188492E+01  0.63215109880E+02  0.41800000000E+01 0. -1.
</event>
<event>
11    1  0.8041700E-009  0.1489841E+03  0.7561462E-02  0.1097921E+00
         22   -1    0    0    0    0  0.00000000000E+00  0.00000000000E+00  0.75248994002E+03  0.75248994002E+03  0.00000000000E+00 0. -1.
         22   -1    0    0    0    0 -0.00000000000E+00 -0.00000000000E+00 -0.83083181957E+03  0.83083181957E+03  0.00000000000E+00 0. -1.
        -24    2    1    2    0    0 -0.11023749882E+02 -0.79817675308E+02 -0.77557541056E+03  0.78383433487E+03  0.79916598465E+02 0.  0.
         25    2    1    2    0    0 -0.25755967081E+02  0.96379772716E+02  0.85824151532E+02  0.18156464826E+03  0.12508999194E+03 0.  0.
         24    2    1    2    0    0  0.36779716963E+02 -0.16562097408E+02  0.61140937948E+03  0.61792277646E+03  0.79875388612E+02 0.  0.
        -13    1    5    5    0    0  0.12987417955E+02 -0.47229983804E+02  0.28050709773E+03  0.28475178011E+03  0.00000000000E+00 0.  1.
         14    1    5    5    0    0  0.23792299008E+02  0.30667886396E+02  0.33090228175E+03  0.33317099636E+03  0.00000000000E+00 0. -1.
         13    1    3    3    0    0 -0.37522234251E+02 -0.10983548517E+02 -0.30929483803E+03  0.31175607971E+03  0.00000000000E+00 0. -1.
        -14    1    3    3    0    0  0.26498484370E+02 -0.68834126791E+02 -0.46628057253E+03  0.47207825517E+03  0.00000000000E+00 0.  1.
          5    1    4    4  501    0  0.50720155494E+02  0.42531730788E+02  0.33356930498E+02  0.74240416953E+02  0.41800000000E+01 0. -1.
         -5    1    4    4    0  501 -0.76476122575E+02  0.53848041928E+02  0.52467221034E+02  0.10732423131E+03  0.41800000000E+01 0. -1.
</event>
<event>
11    1  0.8041700E-009  0.1304038E+03  0.7561462E-02  0.1118774E+00
         22   -1    0    0    0    0  0.00000000000E+00  0.00000000000E+00  0.10891391417E+03  0.10891391417E+03  0.00000000000E+00 0.  1.
         22   -1    0    0    0    0 -0.00000000000E+00 -0.00000000000E+00 -0.99043716586E+03  0.99043716586E+03  0.00000000000E+00 0. -1.
         24    2    1    2    0    0  0.12764895559E+02  0.39275322554E+02 -0.70241915309E+03  0.70799667413E+03  0.78492868611E+02 0.  0.
         25    2    1    2    0    0 -0.12642864626E+01 -0.84559798173E+00 -0.24800794535E+03  0.27776838410E+03  0.12508005755E+03 0.  0.
        -24    2    1    2    0    0 -0.11500609097E+02 -0.38429724572E+02  0.68903846752E+02  0.11358602180E+03  0.80900781893E+02 0.  0.
        -13    1    3    3    0    0  0.23883333640E+02 -0.65348120817E+00 -0.65349748204E+02  0.69580386991E+02  0.00000000000E+00 0.  1.
         14    1    3    3    0    0 -0.11118438081E+02  0.39928803762E+02 -0.63706940489E+03  0.63841628714E+03  0.00000000000E+00 0. -1.
         11    1    5    5    0    0  0.13192782158E+02  0.13623522656E+02 -0.52533937632E+01  0.19678618261E+02  0.00000000000E+00 0. -1.
        -12    1    5    5    0    0 -0.24693391254E+02 -0.52053247228E+02  0.74157240515E+02  0.93907403539E+02  0.00000000000E+00 0.  1.
          5    1    4    4  501    0 -0.36208420237E+00 -0.17947598900E+02 -0.25721896823E+03  0.25787849353E+03  0.41800000000E+01 0.  1.
         -5    1    4    4    0  501 -0.90220226028E+00  0.17102000918E+02  0.92110228820E+01  0.19889890569E+02  0.41800000000E+01 0.  1.
</event>
<event>
11    1  0.8041700E-009  0.1589527E+03  0.7561462E-02  0.1088066E+00
         22   -1    0    0    0    0  0.00000000000E+00  0.00000000000E+00  0.56693471525E+03  0.56693471525E+03  0.00000000000E+00 0.  1.
         22   -1    0    0    0    0 -0.00000000000E+00 -0.00000000000E+00 -0.28593155687E+03  0.28593155687E+03  0.00000000000E+00 0.  1.
         24    2    1    2    0    0  0.10354709990E+03 -0.18706838572E+02 -0.14887632118E+03  0.19891618810E+03  0.79570994531E+02 0.  0.
         25    2    1    2    0    0 -0.69630071360E+02  0.58458990297E+02 -0.51505495575E+02  0.16299025174E+03  0.12508879128E+03 0.  0.
        -24    2    1    2    0    0 -0.33917028542E+02 -0.39752151725E+02  0.48138497514E+03  0.49095983227E+03  0.81113896607E+02 0.  0.
        -11    1    3    3    0    0  0.58080818982E+02 -0.35702038533E+02 -0.13008336635E+03  0.14686626328E+03  0.00000000000E+00 0.  1.
         12    1    3    3    0    0  0.45466280919E+02  0.16995199960E+02 -0.18792954838E+02  0.52049924821E+02  0.00000000000E+00 0. -1.
         11    1    5    5    0    0 -0.14242257857E+02 -0.79581371226E+01  0.12413986118E+02  0.20500753807E+02  0.00000000000E+00 0. -1.
        -12    1    5    5    0    0 -0.19674770685E+02 -0.31794014602E+02  0.46897098902E+03  0.47045907847E+03  0.00000000000E+00 0.  1.
          5    1    4    4  501    0 -0.35377829555E+02 -0.20084667959E+02  0.25093544803E+02  0.47980653412E+02  0.41800000000E+01 0.  1.
         -5    1    4    4    0  501 -0.34252241804E+02  0.78543658256E+02 -0.76599040378E+02  0.11500959833E+03  0.41800000000E+01 0.  1.
</event>
<event>
11    1  0.8041700E-009  0.1298385E+03  0.7561462E-02  0.1119468E+00
         22   -1    0    0    0    0  0.00000000000E+00  0.00000000000E+00  0.54314860319E+03  0.54314860319E+03  0.00000000000E+00 0.  1.
         22   -1    0    0    0    0 -0.00000000000E+00 -0.00000000000E+00 -0.40441082329E+04  0.40441082329E+04  0.00000000000E+00 0.  1.
        -24    2    1    2    0    0 -0.18875844966E+02 -0.14055608885E+02 -0.39225198246E+04  0.39234211823E+04  0.80735008805E+02 0.  0.
         25    2    1    2    0    0  0.44911711409E+02  0.36004701036E+02 -0.76912049431E+02  0.15772208260E+03  0.12508953462E+03 0.  0.
         24    2    1    2    0    0 -0.26035866443E+02 -0.21949092151E+02  0.49847224437E+03  0.50611357114E+03  0.80726324661E+02 0.  0.
        -11    1    5    5    0    0 -0.46890211135E+02  0.11337960882E+02  0.28631083942E+03  0.29034658260E+03  0.00000000000E+00 0.  1.
         12    1    5    5    0    0  0.20854344693E+02 -0.33287053033E+02  0.21216140495E+03  0.21576698853E+03  0.00000000000E+00 0. -1.
         11    1    3    3    0    0 -0.28852929597E+02 -0.42494345171E+02 -0.19732836435E+04  0.19739520254E+04  0.00000000000E+00 0. -1.
        -12    1    3    3    0    0  0.99770846310E+01  0.28438736286E+02 -0.19492361812E+04  0.19494691570E+04  0.00000000000E+00 0.  1.
          5    1    4    4  501    0  0.22167460137E+02  0.21646505574E+02 -0.11029952172E+03  0.11464477478E+03  0.41800000000E+01 0. -1.
         -5    1    4    4    0  501  0.22744251272E+02  0.14358195462E+02  0.33387472289E+02  0.43077307816E+02  0.41800000000E+01 0. -1.
</event>
<event>
11    1  0.8041700E-009  0.1582150E+03  0.7561462E-02  0.1088768E+00
         22   -1    0    0    0    0  0.00000000000E+00  0.00000000000E+00  0.29169223368E+03  0.29169223368E+03  0.00000000000E+00 0.  1.
         22   -1    0    0    0    0 -0.00000000000E+00 -0.00000000000E+00 -0.43208506784E+03  0.43208506784E+03  0.00000000000E+00 0. -1.
         24    2    1    2    0    0 -0.27155918345E+02 -0.32929717628E+02 -0.20348224182E+03  0.22317216094E+03  0.81110914659E+02 0.  0.
         25    2    1    2    0    0  0.10844665890E+03  0.79975546301E+02 -0.16095243231E+03  0.24435627590E+03  0.12509012060E+03 0.  0.
        -24    2    1    2    0    0 -0.81290740553E+02 -0.47045828673E+02  0.22404183997E+03  0.25624886468E+03  0.81530608345E+02 0.  0.
        -11    1    3    3    0    0  0.20970799269E+02 -0.34486208158E+02 -0.12225259693E+03  0.12874304032E+03  0.00000000000E+00 0.  1.
         12    1    3    3    0    0 -0.48126717615E+02  0.15564905306E+01 -0.81229644888E+02  0.94429120613E+02  0.00000000000E+00 0. -1.
         11    1    5    5    0    0 -0.89579414812E+01  0.19900730818E+02  0.70461044117E+02  0.73763422783E+02  0.00000000000E+00 0. -1.
        -12    1    5    5    0    0 -0.72332799072E+02 -0.66946559491E+02  0.15358079586E+03  0.18248544190E+03  0.00000000000E+00 0.  1.
          5    1    4    4  501    0  0.35558043678E+02  0.79011110242E+02 -0.14600154291E+03  0.16982653781E+03  0.41800000000E+01 0. -1.
         -5    1    4    4    0  501  0.72888615220E+02  0.96443605909E+00 -0.14950889401E+02  0.74529738088E+02  0.41800000000E+01 0. -1.
</event>
<event>
11    1  0.8041700E-009  0.1332406E+03  0.7561462E-02  0.1115350E+00
         22   -1    0    0    0    0  0.00000000000E+00  0.00000000000E+00  0.33067354610E+03  0.33067354610E+03  0.00000000000E+00 0.  1.
         22   -1    0    0    0    0 -0.00000000000E+00 -0.00000000000E+00 -0.24360558733E+03  0.24360558733E+03  0.00000000000E+00 0. -1.
         24    2    1    2    0    0  0.17135347460E+02 -0.39478217745E+02 -0.16706911042E+03  0.19439868818E+03  0.89591363976E+02 0.  0.
         25    2    1    2    0    0 -0.20206157395E+02  0.61634882628E+02  0.35285399909E+02  0.14526052817E+03  0.12509362111E+03 0.  0.
        -24    2    1    2    0    0  0.30708099349E+01 -0.22156664883E+02  0.21885166929E+03  0.23461991709E+03  0.81548173952E+02 0.  0.
        -11    1    3    3    0    0  0.22469192430E+01 -0.19366734599E+01  0.11213391700E+02  0.11599116501E+02  0.00000000000E+00 0.  1.
         12    1    3    3    0    0  0.14888428217E+02 -0.37541544286E+02 -0.17828250213E+03  0.18279957168E+03  0.00000000000E+00 0. -1.
         13    1    5    5    0    0  0.38510789647E+01  0.22475441635E+02  0.18523291329E+02  0.29378369722E+02  0.00000000000E+00 0. -1.
        -14    1    5    5    0    0 -0.78026902980E+00 -0.44632106518E+02  0.20032837796E+03  0.20524154737E+03  0.00000000000E+00 0.  1.
          5    1    4    4  501    0  0.49628317745E+02  0.18515408041E+02 -0.56776357289E+01  0.53436861852E+02  0.41800000000E+01 0.  1.
         -5    1    4    4    0  501 -0.69834475140E+02  0.43119474587E+02  0.40963035638E+02  0.91823666314E+02  0.41800000000E+01 0.  1.
</event>
<event>
11    1  0.8041700E-009  0.2202038E+03  0.7561462E-02  0.1041090E+00
         22   -1    0    0    0    0  0.00000000000E+00  0.00000000000E+00  0.14557349882E+04  0.14557349882E+04  0.00000000000E+00 0.  1.
         22   -1    0    0    0    0 -0.00000000000E+00 -0.00000000000E+00 -0.52670924276E+03  0.52670924276E+03  0.00000000000E+00 0.  1.
        -24    2    1    2    0    0  0.53594628370E+01  0.38890667150E+02 -0.45393824286E+03  0.46200966883E+03  0.76497045232E+02 0.  0.
         25    2    1    2    0    0 -0.62648658095E+02  0.13724574778E+03  0.96651636934E+02  0.21852146261E+03  0.12509532788E+03 0.  0.
         24    2    1    2    0    0  0.57289195258E+02 -0.17613641493E+03  0.12863123513E+04  0.13019130995E+04  0.77924096839E+02 0.  0.
        -11    1    5    5    0    0  0.59038018099E+02 -0.80386339847E+02  0.50510237389E+03  0.51485518286E+03  0.00000000000E+00 0.  1.
         12    1    5    5    0    0 -0.17488228406E+01 -0.95750075079E+02  0.78120997745E+03  0.78705791662E+03  0.00000000000E+00 0. -1.
         13    1    3    3    0    0  0.28498450432E+02  0.41258693262E+02 -0.17328957003E+03  0.18039877086E+03  0.00000000000E+00 0. -1.
        -14    1    3    3    0    0 -0.23138987595E+02 -0.23680261117E+01 -0.28064867283E+03  0.28161089797E+03  0.00000000000E+00 0.  1.
          5    1    4    4  501    0 -0.19293813517E+02  0.10277975129E+03 -0.27052730711E+01  0.10469345451E+03  0.41800000000E+01 0. -1.
         -5    1    4    4    0  501 -0.43354844578E+02  0.34465996483E+02  0.99356910005E+02  0.11382800810E+03  0.41800000000E+01 0. -1.
</event>
<event>
11    1  0.8041700E-009  0.1448978E+03  0.7561462E-02  0.1102209E+00
         22   -1    0    0    0    0  0.00000000000E+00  0.00000000000E+00  0.63895910503E+03  0.63895910503E+03  0.00000000000E+00 0. -1.
         22   -1    0    0    0    0 -0.00000000000E+00 -0.00000000000E+00 -0.52348872667E+03  0.52348872667E+03  0.00000000000E+00 0.  1.
         24    2    1    2    0    0 -0.21672929992E+02 -0.71507659387E+02 -0.48054459755E+03  0.49292913388E+03  0.80454704929E+02 0.  0.
         25    2    1    2    0    0  0.28173923140E+02  0.31768719498E+02  0.10069558810E+03  0.16610640287E+03  0.12509482055E+03 0.  0.
        -24    2    1    2    0    0 -0.65009931480E+01  0.39738939888E+02  0.49531938781E+03  0.50341229496E+03  0.80381568244E+02 0.  0.
        -13    1    3    3    0    0 -0.50756648286E+02 -0.57026978713E+02 -0.36531732518E+03  0.37320913939E+03  0.00000000000E+00 0.  1.
         14    1    3    3    0    0  0.29083718294E+02 -0.14480680674E+02 -0.11522727237E+03  0.11971999449E+03  0.00000000000E+00 0. -1.
         11    1    5    5    0    0 -0.20382127854E+02  0.59640081613E+02  0.40569140706E+03  0.41055802054E+03  0.00000000000E+00 0. -1.
        -12    1    5    5    0    0  0.13881134706E+02 -0.19901141724E+02  0.89627980758E+02  0.92854274416E+02  0.00000000000E+00 0.  1.
          5    1    4    4  501    0  0.96147964957E+01 -0.21719399714E+02  0.10635434057E+03  0.10905454963E+03  0.41800000000E+01 0.  1.
         -5    1    4    4    0  501  0.18559126644E+02  0.53488119212E+02 -0.56587524731E+01  0.57051853241E+02  0.41800000000E+01 0.  1.
</event>
<event>
11    1  0.8041700E-009  0.2268564E+03  0.7561462E-02  0.1037005E+00
         22   -1    0    0    0    0  0.00000000000E+00  0.00000000000E+00  0.91816354542E+02  0.91816354542E+02  0.00000000000E+00 0. -1.
         22   -1    0    0    0    0 -0.00000000000E+00 -0.00000000000E+00 -0.13895319365E+04  0.13895319365E+04  0.00000000000E+00 0.  1.
         24    2    1    2    0    0  0.11141870487E+03  0.11370675940E+03 -0.55188651071E+03  0.57993985392E+03  0.80050974561E+02 0.  0.
         25    2    1    2    0    0 -0.22857155601E+03 -0.11763506346E+03 -0.69531335399E+03  0.75179155912E+03  0.12508766424E+03 0.  0.
        -24    2    1    2    0    0  0.11715285114E+03  0.39283040621E+01 -0.50515717215E+02  0.14961687797E+03  0.78058634281E+02 0.  0.
        -11    1    3    3    0    0  0.12308697484E+03  0.93178043692E+02 -0.48751519528E+03  0.51137424342E+03  0.00000000000E+00 0.  1.
         12    1    3    3    0    0 -0.11668269973E+02  0.20528715710E+02 -0.64371315437E+02  0.68565610505E+02  0.00000000000E+00 0. -1.
         13    1    5    5    0    0  0.60194219803E+02  0.65258496500E+01  0.15387644832E+02  0.62471676981E+02  0.00000000000E+00 0. -1.
        -14    1    5    5    0    0  0.56958631333E+02 -0.25975455879E+01 -0.65903362047E+02  0.87145200990E+02  0.00000000000E+00 0.  1.
          5    1    4    4  501    0 -0.57873157666E+02 -0.91106611409E+02 -0.33892855040E+03  0.35572426357E+03  0.41800000000E+01 0.  1.
         -5    1    4    4    0  501 -0.17069839834E+03 -0.26528452055E+02 -0.35638480360E+03  0.39606729554E+03  0.41800000000E+01 0.  1.
</event>
<event>
11    1  0.8041700E-009  0.1530184E+03  0.7561462E-02  0.1093834E+00
         22   -1    0    0    0    0  0.00000000000E+00  0.00000000000E+00  0.19615044730E+04  0.19615044730E+04  0.00000000000E+00 0.  1.
         22   -1    0    0    0    0 -0.00000000000E+00 -0.00000000000E+00 -0.10877766795E+03  0.10877766795E+03  0.00000000000E+00 0. -1.
        -24    2    1    2    0    0  0.23837650060E+02 -0.20202359300E+02 -0.74360702481E+02  0.11392524849E+03  0.80455449090E+02 0.  0.
         25    2    1    2    0    0  0.67985201784E+02  0.24090253943E+02  0.41562165967E+03  0.43998992601E+03  0.12508973983E+03 0.  0.
         24    2    1    2    0    0 -0.91822851843E+02 -0.38878946428E+01  0.15114658479E+04  0.15163669665E+04  0.79957587660E+02 0.  0.
        -11    1    5    5    0    0 -0.98012959382E+02 -0.22931781463E+02  0.11739512880E+04  0.11782588991E+04  0.00000000000E+00 0.  1.
         12    1    5    5    0    0  0.61901075387E+01  0.19043886821E+02  0.33751455995E+03  0.33810806739E+03  0.00000000000E+00 0. -1.
         11    1    3    3    0    0  0.20806007520E+02  0.21038479131E+02 -0.65157753071E+02  0.71561444496E+02  0.00000000000E+00 0. -1.
        -12    1    3    3    0    0  0.30316425401E+01 -0.41240838431E+02 -0.92029494096E+01  0.42363803994E+02  0.00000000000E+00 0.  1.
          5    1    4    4  501    0  0.90803585073E+02  0.50032667648E+02  0.24866122840E+03  0.26944097276E+03  0.41800000000E+01 0. -1.
         -5    1    4    4    0  501 -0.22818383290E+02 -0.25942413705E+02  0.16696043127E+03  0.17054895325E+03  0.41800000000E+01 0. -1.
</event>
<event>
11    1  0.8041700E-009  0.1324266E+03  0.7561462E-02  0.1116323E+00
         22   -1    0    0    0    0  0.00000000000E+00  0.00000000000E+00  0.25754199815E+03  0.25754199815E+03  0.00000000000E+00 0.  1.
         22   -1    0    0    0    0 -0.00000000000E+00 -0.00000000000E+00 -0.35431476660E+03  0.35431476660E+03  0.00000000000E+00 0. -1.
        -24    2    1    2    0    0  0.23070887274E+02 -0.18030116065E+02 -0.21721310638E+03  0.23332093252E+03  0.79998581527E+02 0.  0.
         25    2    1    2    0    0 -0.12210403789E+02 -0.25774870376E+02 -0.84835006472E+02  0.15382527246E+03  0.12510714696E+03 0.  0.
         24    2    1    2    0    0 -0.10860483485E+02  0.43804986441E+02  0.20527534440E+03  0.22471055977E+03  0.79498690021E+02 0.  0.
        -11    1    5    5    0    0  0.14238523568E+02  0.58934513095E+02  0.11832449697E+03  0.13295374748E+03  0.00000000000E+00 0.  1.
         12    1    5    5    0    0 -0.25099007053E+02 -0.15129526654E+02  0.86950847437E+02  0.91756812291E+02  0.00000000000E+00 0. -1.
         13    1    3    3    0    0  0.49216670262E+02 -0.28096917446E+02 -0.13303991317E+03  0.14460752366E+03  0.00000000000E+00 0. -1.
        -14    1    3    3    0    0 -0.26145782988E+02  0.10066801381E+02 -0.84173193203E+02  0.88713408863E+02  0.00000000000E+00 0.  1.
          5    1    4    4  501    0  0.54206519479E+02 -0.56337936790E+01 -0.56883288138E+02  0.78887687598E+02  0.41800000000E+01 0.  1.
         -5    1    4    4    0  501 -0.66416923268E+02 -0.20141076697E+02 -0.27951718334E+02  0.74937584861E+02  0.41800000000E+01 0.  1.
</event>
<event>
11    1  0.8041700E-009  0.1385046E+03  0.7561462E-02  0.1109240E+00
         22   -1    0    0    0    0  0.00000000000E+00  0.00000000000E+00  0.63733559232E+03  0.63733559232E+03  0.00000000000E+00 0. -1.
         22   -1    0    0    0    0 -0.00000000000E+00 -0.00000000000E+00 -0.17219895714E+03  0.17219895714E+03  0.00000000000E+00 0.  1.
         24    2    1    2    0    0 -0.73897631010E+01  0.28557471402E+02 -0.75702974816E+02  0.11548005898E+03  0.82064400653E+02 0.  0.
         25    2    1    2    0    0  0.33270561830E+02 -0.80098721560E+02  0.87659954681E+01  0.15246951145E+03  0.12508946305E+03 0.  0.
        -24    2    1    2    0    0 -0.25880798729E+02  0.51541250158E+02  0.53207361452E+03  0.54158497903E+03  0.82979768786E+02 0.  0.
        -13    1    3    3    0    0  0.26488971321E+02 -0.14990756951E+02 -0.16772666963E+02  0.34752133066E+02  0.00000000000E+00 0.  1.
         14    1    3    3    0    0 -0.33878734422E+02  0.43548228354E+02 -0.58930307853E+02  0.80727925914E+02  0.00000000000E+00 0. -1.
         11    1    5    5    0    0 -0.19201438256E+02  0.34354519959E+02  0.51485313196E+03  0.51635518373E+03  0.00000000000E+00 0. -1.
        -12    1    5    5    0    0 -0.66793604732E+01  0.17186730199E+02  0.17220482561E+02  0.25229795300E+02  0.00000000000E+00 0.  1.
          5    1    4    4  501    0 -0.16685641452E+02 -0.22622126796E+02 -0.49102329859E+02  0.56733433256E+02  0.41800000000E+01 0. -1.
         -5    1    4    4    0  501  0.49956203282E+02 -0.57476594764E+02  0.57868325327E+02  0.95736078195E+02  0.41800000000E+01 0. -1.
</event>
<event>
11    1  0.8041700E-009  0.1591924E+03  0.7561462E-02  0.1087839E+00
         22   -1    0    0    0    0  0.00000000000E+00  0.00000000000E+00  0.65770331790E+03  0.65770331790E+03  0.00000000000E+00 0.  1.
         22   -1    0    0    0    0 -0.00000000000E+00 -0.00000000000E+00 -0.26253942999E+03  0.26253942999E+03  0.00000000000E+00 0.  1.
         24    2    1    2    0    0 -0.39772934151E+02  0.93745786326E+02 -0.17519204547E+03  0.21761597722E+03  0.79336637185E+02 0.  0.
         25    2    1    2    0    0  0.62459085392E+01 -0.87335553888E+02  0.30009400268E+02  0.15562301012E+03  0.12510574259E+03 0.  0.
        -24    2    1    2    0    0  0.33527025611E+02 -0.64102324387E+01  0.54034653311E+03  0.54700376055E+03  0.77933212960E+02 0.  0.
        -13    1    3    3    0    0 -0.57144667823E+01  0.89917548918E+02 -0.15037639093E+03  0.17530225236E+03  0.00000000000E+00 0.  1.
         14    1    3    3    0    0 -0.34058467368E+02  0.38282374082E+01 -0.24815654547E+02  0.42313724862E+02  0.00000000000E+00 0. -1.
         13    1    5    5    0    0  0.35070682129E+02 -0.36910985786E+02  0.25542668283E+03  0.26045184568E+03  0.00000000000E+00 0. -1.
        -14    1    5    5    0    0 -0.15436565176E+01  0.30500753348E+02  0.28491985028E+03  0.28655191487E+03  0.00000000000E+00 0.  1.
          5    1    4    4  501    0 -0.21347436247E+01 -0.11452503443E+03  0.78691480013E+00  0.11462387306E+03  0.41800000000E+01 0.  1.
         -5    1    4    4    0  501  0.83806521639E+01  0.27189480539E+02  0.29222485468E+02  0.40999137060E+02  0.41800000000E+01 0.  1.
</event>
<event>
11    1  0.8041700E-009  0.1557861E+03  0.7561462E-02  0.1091109E+00
         22   -1    0    0    0    0  0.00000000000E+00  0.00000000000E+00  0.96395787899E+03  0.96395787899E+03  0.00000000000E+00 0.  1.
         22   -1    0    0    0    0 -0.00000000000E+00 -0.00000000000E+00 -0.88752512736E+02  0.88752512736E+02  0.00000000000E+00 0.  1.
         24    2    1    2    0    0 -0.40489799165E+02 -0.22062889661E+02 -0.21921525802E+02  0.97705982147E+02  0.83304926128E+02 0.  0.
         25    2    1    2    0    0  0.12446710127E+03  0.68545279156E+01  0.31537388272E+03  0.36145209008E+03  0.12509150120E+03 0.  0.
        -24    2    1    2    0    0 -0.83977302103E+02  0.15208361746E+02  0.58175300933E+03  0.59355231949E+03  0.81143764850E+02 0.  0.
        -11    1    3    3    0    0 -0.62483500462E+02 -0.94910810702E+01  0.14809738470E+01  0.63217574561E+02  0.00000000000E+00 0.  1.
         12    1    3    3    0    0  0.21993701297E+02 -0.12571808591E+02 -0.23402499649E+02  0.34488407586E+02  0.00000000000E+00 0. -1.
         13    1    5    5    0    0  0.11358852595E+02 -0.30285668362E+01  0.17963058749E+02  0.21467818449E+02  0.00000000000E+00 0. -1.
        -14    1    5    5    0    0 -0.95336154698E+02  0.18236928582E+02  0.56378995058E+03  0.57208450104E+03  0.00000000000E+00 0.  1.
          5    1    4    4  501    0  0.16199791665E+02  0.55313924124E+02  0.10955131580E+03  0.12385889813E+03  0.41800000000E+01 0. -1.
         -5    1    4    4    0  501  0.10826730960E+03 -0.48459396209E+02  0.20582256692E+03  0.23759319195E+03  0.41800000000E+01 0. -1.
</event>
<event>
11    1  0.8041700E-009  0.2579207E+03  0.7561462E-02  0.1019762E+00
         22   -1    0    0    0    0  0.00000000000E+00  0.00000000000E+00  0.29939129019E+03  0.29939129019E+03  0.00000000000E+00 0. -1.
         22   -1    0    0    0    0 -0.00000000000E+00 -0.00000000000E+00 -0.37298655690E+03  0.37298655690E+03  0.00000000000E+00 0.  1.
         24    2    1    2    0    0  0.43345625612E+02 -0.23168673078E+03 -0.13772539956E+03  0.28415882254E+03  0.78869298620E+02 0.  0.
         25    2    1    2    0    0 -0.10474897675E+03  0.18942594459E+03 -0.18430310644E+02  0.25068467478E+03  0.12509433720E+03 0.  0.
        -24    2    1    2    0    0  0.61403351141E+02  0.42260786187E+02  0.82560443500E+02  0.13753434977E+03  0.80889584957E+02 0.  0.
        -13    1    3    3    0    0  0.37389039126E+02 -0.22984803337E+03 -0.11333492620E+03  0.25898429332E+03  0.00000000000E+00 0.  1.
         14    1    3    3    0    0  0.59565864862E+01 -0.18386974164E+01 -0.24390473368E+02  0.25174529228E+02  0.00000000000E+00 0. -1.
         11    1    5    5    0    0 -0.64617196072E+01  0.15640339621E+02  0.58296491304E+02  0.60703006038E+02  0.00000000000E+00 0. -1.
        -12    1    5    5    0    0  0.67865070748E+02  0.26620446566E+02  0.24263952196E+02  0.76831343729E+02  0.00000000000E+00 0.  1.
          5    1    4    4  501    0 -0.21760744230E+02 -0.76248192020E+01  0.23021815294E+02  0.32850330847E+02  0.41800000000E+01 0. -1.
         -5    1    4    4    0  501 -0.82988232523E+02  0.19705076380E+03 -0.41452125938E+02  0.21783434393E+03  0.41800000000E+01 0. -1.
</event>
<event>
11    1  0.8041700E-009  0.1385352E+03  0.7561462E-02  0.1109205E+00
         22   -1    0    0    0    0  0.00000000000E+00  0.00000000000E+00  0.71440628851E+03  0.71440628851E+03  0.00000000000E+00 0.  1.
         22   -1    0    0    0    0 -0.00000000000E+00 -0.00000000000E+00 -0.50206826488E+03  0.50206826488E+03  0.00000000000E+00 0. -1.
         24    2    1    2    0    0 -0.92938847547E+01  0.62593213430E+02 -0.42301422603E+03  0.43516363985E+03  0.80137827247E+02 0.  0.
         25    2    1    2    0    0 -0.49543344025E+01 -0.24559157050E+02 -0.11592909026E+02  0.12810051310E+03  0.12509056036E+03 0.  0.
        -24    2    1    2    0    0  0.14248219157E+02 -0.38034056379E+02  0.64694515869E+03  0.65321040046E+03  0.80598931244E+02 0.  0.
        -13    1    3    3    0    0 -0.23980287132E+02 -0.10612535031E+02 -0.82830445548E+02  0.86882465321E+02  0.00000000000E+00 0.  1.
         14    1    3    3    0    0  0.14686402377E+02  0.73205748461E+02 -0.34018378049E+03  0.34828117452E+03  0.00000000000E+00 0. -1.
         11    1    5    5    0    0 -0.25081914231E+02  0.82602595205E+01  0.28313074194E+03  0.28435954589E+03  0.00000000000E+00 0. -1.
        -12    1    5    5    0    0  0.39330133388E+02 -0.46294315900E+02  0.36381441675E+03  0.36885085456E+03  0.00000000000E+00 0.  1.
          5    1    4    4  501    0 -0.55444288697E+02  0.20713441343E+02 -0.97630592755E+01  0.60132399984E+02  0.41800000000E+01 0.  1.
         -5    1    4    4    0  501  0.50489954294E+02 -0.45272598393E+02 -0.18298497504E+01  0.67968113112E+02  0.41800000000E+01 0.  1.
</event>
<event>
11    1  0.8041700E-009  0.1515834E+03  0.7561462E-02  0.1095272E+00
         22   -1    0    0    0    0  0.00000000000E+00  0.00000000000E+00  0.29498302700E+03  0.29498302700E+03  0.00000000000E+00 0.  1.
         22   -1    0    0    0    0 -0.00000000000E+00 -0.00000000000E+00 -0.11427731499E+04  0.11427731499E+04  0.00000000000E+00 0. -1.
         24    2    1    2    0    0 -0.14496465525E+02 -0.38766106818E+02 -0.26581204614E+03  0.28127297947E+03  0.82130911085E+02 0.  0.
         25    2    1    2    0    0  0.23755595673E+02  0.12333240026E+03 -0.84833587233E+03  0.86665844402E+03  0.12509155463E+03 0.  0.
        -24    2    1    2    0    0 -0.92591301483E+01 -0.84566293438E+02  0.26635779555E+03  0.28982475343E+03  0.76254330838E+02 0.  0.
        -13    1    3    3    0    0 -0.25338272162E+02  0.18651607246E+02 -0.66414470328E+02  0.73490083399E+02  0.00000000000E+00 0.  1.
         14    1    3    3    0    0  0.10841806638E+02 -0.57417714064E+02 -0.19939757581E+03  0.20778289607E+03  0.00000000000E+00 0. -1.
         13    1    5    5    0    0  0.21347456126E+02  0.34391865245E+00  0.79394383784E+02  0.82214964207E+02  0.00000000000E+00 0. -1.
        -14    1    5    5    0    0 -0.30606586274E+02 -0.84910212090E+02  0.18696341177E+03  0.20760978922E+03  0.00000000000E+00 0.  1.
          5    1    4    4  501    0  0.60527088314E+02  0.11652380572E+03 -0.74900517412E+03  0.76043905014E+03  0.41800000000E+01 0.  1.
         -5    1    4    4    0  501 -0.36771492641E+02  0.68085945383E+01 -0.99330698209E+02  0.10621939389E+03  0.41800000000E+01 0.  1.
</event>
<event>
11    1  0.8041700E-009  0.1435955E+03  0.7561462E-02  0.1103609E+00
         22   -1    0    0    0    0  0.00000000000E+00  0.00000000000E+00  0.66999170402E+02  0.66999170402E+02  0.00000000000E+00 0.  1.
         22   -1    0    0    0    0 -0.00000000000E+00 -0.00000000000E+00 -0.26403542781E+04  0.26403542781E+04  0.00000000000E+00 0.  1.
        -24    2    1    2    0    0 -0.65391447513E+02  0.25282248552E+02 -0.17681489061E+04  0.17713871214E+04  0.80910730460E+02 0.  0.
         25    2    1    2    0    0  0.83860462381E+02  0.28149411634E+02 -0.82188842795E+03  0.83604577847E+03  0.12508792579E+03 0.  0.
         24    2    1    2    0    0 -0.18469014868E+02 -0.53431660186E+02  0.16682226298E+02  0.99920548658E+02  0.80683161499E+02 0.  0.
        -13    1    5    5    0    0  0.13988374906E+02 -0.16664343859E+02  0.40062050738E+02  0.45588846203E+02  0.00000000000E+00 0.  1.
         14    1    5    5    0    0 -0.32457389774E+02 -0.36767316327E+02 -0.23379824440E+02  0.54331702456E+02  0.00000000000E+00 0. -1.
         11    1    3    3    0    0 -0.23084060197E+02 -0.50457051576E+01 -0.11418343839E+03  0.11660270399E+03  0.00000000000E+00 0. -1.
        -12    1    3    3    0    0 -0.42307387316E+02  0.30327953710E+02 -0.16539654677E+04  0.16547844174E+04  0.00000000000E+00 0.  1.
          5    1    4    4  501    0  0.10423096454E+03  0.53466739766E+02 -0.56154051115E+03  0.57364449295E+03  0.41800000000E+01 0. -1.
         -5    1    4    4    0  501 -0.20370502157E+02 -0.25317328133E+02 -0.26034791679E+03  0.26240128552E+03  0.41800000000E+01 0. -1.
</event>
<event>
11    1  0.8041700E-009  0.1511474E+03  0.7561462E-02  0.1095712E+00
         22   -1    0    0    0    0  0.00000000000E+00  0.00000000000E+00  0.78441122695E+03  0.78441122695E+03  0.00000000000E+00 0. -1.
         22   -1    0    0    0    0 -0.00000000000E+00 -0.00000000000E+00 -0.14570419643E+03  0.14570419643E+03  0.00000000000E+00 0.  1.
         24    2    1    2    0    0  0.75673685976E+02 -0.11296735662E+01 -0.48417333591E+02  0.12196971550E+03  0.82489941171E+02 0.  0.
         25    2    1    2    0    0 -0.11674059967E+03  0.48440868910E+02  0.85832187502E+02  0.19745866031E+03  0.12509145745E+03 0.  0.
        -24    2    1    2    0    0  0.41066913692E+02 -0.47311195344E+02  0.60129217662E+03  0.61068704757E+03  0.86380251271E+02 0.  0.
        -13    1    3    3    0    0  0.25092668457E+02 -0.25881811121E+02  0.13298662385E+02  0.38423489930E+02  0.00000000000E+00 0.  1.
         14    1    3    3    0    0  0.50581017519E+02  0.24752137555E+02 -0.61715995977E+02  0.83546225565E+02  0.00000000000E+00 0. -1.
         13    1    5    5    0    0  0.58205908304E+02 -0.31594162916E+02  0.55443802226E+03  0.55837947618E+03  0.00000000000E+00 0. -1.
        -14    1    5    5    0    0 -0.17138994612E+02 -0.15717032428E+02  0.46854154355E+02  0.52307571392E+02  0.00000000000E+00 0.  1.
          5    1    4    4  501    0 -0.98240928249E+02  0.76688367766E+02  0.24151702110E+02  0.12701638811E+03  0.41800000000E+01 0.  1.
         -5    1    4    4    0  501 -0.18499671418E+02 -0.28247498856E+02  0.61680485392E+02  0.70442272198E+02  0.41800000000E+01 0.  1.
</event>
<event>
11    1  0.8041700E-009  0.1643392E+03  0.7561462E-02  0.1083066E+00
         22   -1    0    0    0    0  0.00000000000E+00  0.00000000000E+00  0.15807072613E+03  0.15807072613E+03  0.00000000000E+00 0.  1.
         22   -1    0    0    0    0 -0.00000000000E+00 -0.00000000000E+00 -0.14236363043E+04  0.14236363043E+04  0.00000000000E+00 0.  1.
         24    2    1    2    0    0  0.84369182390E+02  0.36748498569E+01 -0.11270441294E+04  0.11330705549E+04  0.80552774365E+02 0.  0.
         25    2    1    2    0    0  0.31998358548E+02  0.14910384403E+02 -0.23753739299E+03  0.27077178835E+03  0.12508850381E+03 0.  0.
        -24    2    1    2    0    0 -0.11636754094E+03 -0.18585234259E+02  0.99015944216E+02  0.17786468712E+03  0.89134023794E+02 0.  0.
        -11    1    3    3    0    0 -0.11652997618E+02  0.15477208158E+02 -0.23434229420E+03  0.23514175975E+03  0.00000000000E+00 0.  1.
         12    1    3    3    0    0  0.96022180008E+02 -0.11802358301E+02 -0.89270183516E+03  0.89792879518E+03  0.00000000000E+00 0. -1.
         11    1    5    5    0    0 -0.41324125054E+02  0.66294875446E+01 -0.10101231222E+02  0.43054248208E+02  0.00000000000E+00 0. -1.
        -12    1    5    5    0    0 -0.75043415885E+02 -0.25214721804E+02  0.10911717544E+03  0.13481043891E+03  0.00000000000E+00 0.  1.
          5    1    4    4  501    0  0.57456523046E+02 -0.22145962718E+02 -0.54791729663E+02  0.82530610956E+02  0.41800000000E+01 0. -1.
         -5    1    4    4    0  501 -0.25458164498E+02  0.37056347120E+02 -0.18274566333E+03  0.18824117740E+03  0.41800000000E+01 0. -1.
</event>
<event>
11    1  0.8041700E-009  0.2463696E+03  0.7561462E-02  0.1025851E+00
         22   -1    0    0    0    0  0.00000000000E+00  0.00000000000E+00  0.61564776559E+03  0.61564776559E+03  0.00000000000E+00 0.  1.
         22   -1    0    0    0    0 -0.00000000000E+00 -0.00000000000E+00 -0.40397597765E+03  0.40397597765E+03  0.00000000000E+00 0. -1.
         24    2    1    2    0    0 -0.42526610838E+02 -0.12498611941E+03 -0.24101433216E+03  0.28703711022E+03  0.82899648121E+02 0.  0.
         25    2    1    2    0    0  0.64720350961E+02  0.30767896934E+03  0.15199842247E+03  0.37095290668E+03  0.12508983387E+03 0.  0.
        -24    2    1    2    0    0 -0.22193740122E+02 -0.18269284993E+03  0.30068769764E+03  0.36163372633E+03  0.80601619064E+02 0.  0.
        -13    1    3    3    0    0 -0.44995923698E+02 -0.36295777272E+02 -0.50042240301E+02  0.76460724634E+02  0.00000000000E+00 0.  1.
         14    1    3    3    0    0  0.24693128599E+01 -0.88690342141E+02 -0.19097209186E+03  0.21057638558E+03  0.00000000000E+00 0. -1.
         13    1    5    5    0    0 -0.93544335215E+01 -0.61545049512E+01 -0.16246740566E+01  0.11314721538E+02  0.00000000000E+00 0. -1.
        -14    1    5    5    0    0 -0.12839306601E+02 -0.17653834498E+03  0.30231237169E+03  0.35031900480E+03  0.00000000000E+00 0.  1.
          5    1    4    4  501    0  0.21999715069E+02  0.17628417996E+03  0.15025974946E+03  0.23271348108E+03  0.41800000000E+01 0. -1.
         -5    1    4    4    0  501  0.42720635892E+02  0.13139478939E+03  0.17386730155E+01  0.13823942561E+03  0.41800000000E+01 0. -1.
</event>
<event>
11    1  0.8041700E-009  0.1509338E+03  0.7561462E-02  0.1095928E+00
         22   -1    0    0    0    0  0.00000000000E+00  0.00000000000E+00  0.19684724245E+04  0.19684724245E+04  0.00000000000E+00 0. -1.
         22   -1    0    0    0    0 -0.00000000000E+00 -0.00000000000E+00 -0.30048119473E+03  0.30048119473E+03  0.00000000000E+00 0. -1.
         24    2    1    2    0    0  0.18403819918E+02  0.78339229935E+02 -0.20606827345E+03  0.23534744139E+03  0.80302859914E+02 0.  0.
         25    2    1    2    0    0 -0.56846076715E+02 -0.97682569880E+02  0.11591865853E+02  0.16898731806E+03  0.12509588888E+03 0.  0.
        -24    2    1    2    0    0  0.38442256797E+02  0.19343339945E+02  0.18624676374E+04  0.18646188598E+04  0.78522736238E+02 0.  0.
        -13    1    3    3    0    0 -0.77777014904E+00  0.90413618012E+02 -0.17382886942E+03  0.19593800829E+03  0.00000000000E+00 0.  1.
         14    1    3    3    0    0  0.19181590067E+02 -0.12074388077E+02 -0.32239404032E+02  0.39409433100E+02  0.00000000000E+00 0. -1.
         11    1    5    5    0    0  0.20295530254E+02  0.44675317822E+02  0.15037292138E+04  0.15045296079E+04  0.00000000000E+00 0. -1.
        -12    1    5    5    0    0  0.18146726543E+02 -0.25331977877E+02  0.35873842361E+03  0.36008925194E+03  0.00000000000E+00 0.  1.
          5    1    4    4  501    0 -0.10611025797E+02 -0.48107545337E+02  0.65648287968E+02  0.82183331035E+02  0.41800000000E+01 0. -1.
         -5    1    4    4    0  501 -0.46235050919E+02 -0.49575024543E+02 -0.54056422116E+02  0.86803987027E+02  0.41800000000E+01 0. -1.
</event>
<event>
11    1  0.8041700E-009  0.1350721E+03  0.7561462E-02  0.1113189E+00
         22   -1    0    0    0    0  0.00000000000E+00  0.00000000000E+00  0.90133766516E+03  0.90133766516E+03  0.00000000000E+00 0. -1.
         22   -1    0    0    0    0 -0.00000000000E+00 -0.00000000000E+00 -0.32688858332E+03  0.32688858332E+03  0.00000000000E+00 0.  1.
         24    2    1    2    0    0  0.46628636683E+02 -0.11153417257E+02 -0.24789268959E+03  0.26515949104E+03  0.80994701450E+02 0.  0.
         25    2    1    2    0    0 -0.83058330600E+02 -0.44558799469E+01  0.15226671288E+02  0.15098131386E+03  0.12507983238E+03 0.  0.
        -24    2    1    2    0    0  0.36429693918E+02  0.15609297204E+02  0.80711510014E+03  0.81208544357E+03  0.80481116004E+02 0.  0.
        -11    1    3    3    0    0  0.46061013199E+02 -0.29789125626E+01 -0.25186058191E+03  0.25605515730E+03  0.00000000000E+00 0.  1.
         12    1    3    3    0    0  0.56762348390E+00 -0.81745046943E+01  0.39678923255E+01  0.91043337441E+01  0.00000000000E+00 0. -1.
         13    1    5    5    0    0 -0.17442291065E+02  0.29314713170E+02  0.31317180246E+03  0.31502406858E+03  0.00000000000E+00 0. -1.
        -14    1    5    5    0    0  0.53871984983E+02 -0.13705415966E+02  0.49394329768E+03  0.49706137500E+03  0.00000000000E+00 0.  1.
          5    1    4    4  501    0 -0.60803651200E+02 -0.57513640381E+02 -0.16106588133E+02  0.85333448368E+02  0.41800000000E+01 0. -1.
         -5    1    4    4    0  501 -0.22254679401E+02  0.53057760434E+02  0.31333259421E+02  0.65647865490E+02  0.41800000000E+01 0. -1.
</event>
<event>
11    1  0.8041700E-009  0.1488139E+03  0.7561462E-02  0.1098097E+00
         22   -1    0    0    0    0  0.00000000000E+00  0.00000000000E+00  0.13417767956E+04  0.13417767956E+04  0.00000000000E+00 0.  1.
         22   -1    0    0    0    0 -0.00000000000E+00 -0.00000000000E+00 -0.53651674089E+03  0.53651674089E+03  0.00000000000E+00 0. -1.
        -24    2    1    2    0    0  0.12798741251E+02 -0.78531909487E+01 -0.50926960196E+03  0.51579447241E+03  0.80392349738E+02 0.  0.
         25    2    1    2    0    0  0.20491637152E+02  0.81002129994E+02  0.24896384894E+03  0.29087754050E+03  0.12508194607E+03 0.  0.
         24    2    1    2    0    0 -0.33290378403E+02 -0.73148939045E+02  0.10655658077E+04  0.10716215236E+04  0.80518212925E+02 0.  0.
        -13    1    5    5    0    0 -0.57161345001E+02 -0.55898960244E+02  0.89188819837E+03  0.89546450041E+03  0.00000000000E+00 0.  1.
         14    1    5    5    0    0  0.23870966598E+02 -0.17249978801E+02  0.17367760937E+03  0.17615702317E+03  0.00000000000E+00 0. -1.
         11    1    3    3    0    0  0.46266768073E+02 -0.10835725607E+02 -0.26531541550E+03  0.26953718942E+03  0.00000000000E+00 0. -1.
        -12    1    3    3    0    0 -0.33468026822E+02  0.29825346581E+01 -0.24395418646E+03  0.24625728299E+03  0.00000000000E+00 0.  1.
          5    1    4    4  501    0 -0.29486400954E+02  0.69332705377E+02  0.64203242659E+02  0.99075731862E+02  0.41800000000E+01 0. -1.
         -5    1    4    4    0  501  0.49978038106E+02  0.11669424617E+02  0.18476060628E+03  0.19180180864E+03  0.41800000000E+01 0. -1.
</event>
<event>
11    1  0.8041700E-009  0.1350879E+03  0.7561462E-02  0.1113171E+00
         22   -1    0    0    0    0  0.00000000000E+00  0.00000000000E+00  0.18572416365E+04  0.18572416365E+04  0.00000000000E+00 0. -1.
         22   -1    0    0    0    0 -0.00000000000E+00 -0.00000000000E+00 -0.89891428094E+02  0.89891428094E+02  0.00000000000E+00 0. -1.
         24    2    1    2    0    0 -0.32930120114E+02 -0.56673247812E+02  0.97981232368E+01  0.12834876017E+03  0.10991429020E+03 0.  0.
         25    2    1    2    0    0  0.26282248922E+02  0.75115008211E+01  0.11460550537E+03  0.17184016787E+03  0.12508973650E+03 0.  0.
        -24    2    1    2    0    0  0.66478711919E+01  0.49161746991E+02  0.16429465798E+04  0.16469441366E+04  0.10339464835E+03 0.  0.
        -13    1    3    3    0    0  0.36670624642E+02 -0.42379252218E+02  0.11783408629E+02  0.57267656222E+02  0.00000000000E+00 0.  1.
         14    1    3    3    0    0 -0.69600744755E+02 -0.14293995594E+02 -0.19852853920E+01  0.71081103949E+02  0.00000000000E+00 0. -1.
         13    1    5    5    0    0  0.33484283268E+02  0.49463322774E+02  0.15167317348E+04  0.15179074322E+04  0.00000000000E+00 0. -1.
        -14    1    5    5    0    0 -0.26836412076E+02 -0.30157578300E+00  0.12621484507E+03  0.12903670438E+03  0.00000000000E+00 0.  1.
          5    1    4    4  501    0  0.52619942524E+02  0.34273224387E+02  0.11817768505E+03  0.13389156025E+03  0.41800000000E+01 0.  1.
         -5    1    4    4    0  501 -0.26337693603E+02 -0.26761723566E+02 -0.35721796816E+01  0.37948607619E+02  0.41800000000E+01 0.  1.
</event>
<event>
11    1  0.8041700E-009  0.1370600E+03  0.7561462E-02  0.1110887E+00
         22   -1    0    0    0    0  0.00000000000E+00  0.00000000000E+00  0.16333834760E+04  0.16333834760E+04  0.00000000000E+00 0.  1.
         22   -1    0    0    0    0 -0.00000000000E+00 -0.00000000000E+00 -0.25394070506E+03  0.25394070506E+03  0.00000000000E+00 0. -1.
         24    2    1    2    0    0 -0.21142643641E+02  0.12913570353E+02 -0.22870358712E+03  0.24351605251E+03  0.79880945071E+02 0.  0.
         25    2    1    2    0    0  0.43534289885E+02  0.38762342861E+02  0.28109010316E+03  0.31313902089E+03  0.12508655678E+03 0.  0.
        -24    2    1    2    0    0 -0.22391646244E+02 -0.51675913214E+02  0.13270562549E+04  0.13306691077E+04  0.80188431718E+02 0.  0.
        -13    1    3    3    0    0  0.50844459514E+00  0.15084634800E+02 -0.13830385230E+01  0.15156434888E+02  0.00000000000E+00 0.  1.
         14    1    3    3    0    0 -0.21651088236E+02 -0.21710644470E+01 -0.22732054860E+03  0.22835961762E+03  0.00000000000E+00 0. -1.
         11    1    5    5    0    0  0.13851343172E+02  0.14879831952E+02  0.18837260664E+03  0.18946637707E+03  0.00000000000E+00 0. -1.
        -12    1    5    5    0    0 -0.36242989416E+02 -0.66555745166E+02  0.11386836483E+04  0.11412027306E+04  0.00000000000E+00 0.  1.
          5    1    4    4  501    0  0.41475234779E+02  0.78166216732E+02  0.24085784264E+03  0.25663227641E+03  0.41800000000E+01 0. -1.
         -5    1    4    4    0  501  0.20590551063E+01 -0.39403873870E+02  0.40232260527E+02  0.56506744474E+02  0.41800000000E+01 0. -1.
</event>
<event>
11    1  0.8041700E-009  0.1556341E+03  0.7561462E-02  0.1091257E+00
         22   -1    0    0    0    0  0.00000000000E+00  0.00000000000E+00  0.23379300128E+03  0.23379300128E+03  0.00000000000E+00 0. -1.
         22   -1    0    0    0    0 -0.00000000000E+00 -0.00000000000E+00 -0.92522254271E+03  0.92522254271E+03  0.00000000000E+00 0.  1.
        -24    2    1    2    0    0  0.86833171587E+02  0.15004086422E+02 -0.46706220846E+03  0.48194473934E+03  0.79740221452E+02 0.  0.
         25    2    1    2    0    0 -0.80438598490E+02 -0.87510939654E+02 -0.41795798039E+03  0.45217767768E+03  0.12508895289E+03 0.  0.
         24    2    1    2    0    0 -0.63945730971E+01  0.72506853232E+02  0.19359064742E+03  0.22489312696E+03  0.88325791549E+02 0.  0.
        -13    1    5    5    0    0 -0.18299085776E+02  0.66397573994E+01  0.13359606203E+03  0.13500685430E+03  0.00000000000E+00 0.  1.
         14    1    5    5    0    0  0.11904512679E+02  0.65867095833E+02  0.59994585391E+02  0.89886272655E+02  0.00000000000E+00 0. -1.
         11    1    3    3    0    0  0.78562930075E+02  0.28437613691E+02 -0.23615939579E+03  0.25050367676E+03  0.00000000000E+00 0. -1.
        -12    1    3    3    0    0  0.82702415120E+01 -0.13433527269E+02 -0.23090281267E+03  0.23144106258E+03  0.00000000000E+00 0.  1.
          5    1    4    4  501    0 -0.49359085292E+02 -0.89025292574E+01 -0.31455322028E+03  0.31855419494E+03  0.41800000000E+01 0.  1.
         -5    1    4    4    0  501 -0.31079513198E+02 -0.78608410396E+02 -0.10340476011E+03  0.13362348274E+03  0.41800000000E+01 0.  1.
</event>
<event>
11    1  0.8041700E-009  0.1276147E+03  0.7561462E-02  0.1122235E+00
         22   -1    0    0    0    0  0.00000000000E+00  0.00000000000E+00  0.13113565783E+03  0.13113565783E+03  0.00000000000E+00 0. -1.
         22   -1    0    0    0    0 -0.00000000000E+00 -0.00000000000E+00 -0.63076465988E+03  0.63076465988E+03  0.00000000000E+00 0.  1.
         24    2    1    2    0    0 -0.18917451699E+00 -0.12481823753E+02 -0.18489650488E+03  0.20178042066E+03  0.79829749675E+02 0.  0.
         25    2    1    2    0    0  0.18299730155E+02  0.29618771830E+02 -0.41232988906E+03  0.43229242507E+03  0.12509457059E+03 0.  0.
        -24    2    1    2    0    0 -0.18110555638E+02 -0.17136948078E+02  0.97597391889E+02  0.12782747198E+03  0.78695263351E+02 0.  0.
        -13    1    3    3    0    0  0.34230915779E+02 -0.66091891484E+00 -0.13927359806E+03  0.14342010851E+03  0.00000000000E+00 0.  1.
         14    1    3    3    0    0 -0.34420090296E+02 -0.11820904838E+02 -0.45622906818E+02  0.58360312145E+02  0.00000000000E+00 0. -1.
         13    1    5    5    0    0 -0.22194882781E+02 -0.46130440019E+02  0.75167339303E+02  0.90943714549E+02  0.00000000000E+00 0. -1.
        -14    1    5    5    0    0  0.40843271438E+01  0.28993491941E+02  0.22430052586E+02  0.36883757430E+02  0.00000000000E+00 0.  1.
          5    1    4    4  501    0 -0.72138458534E+01  0.67239398596E+02 -0.34056926199E+03  0.34724353257E+03  0.41800000000E+01 0. -1.
         -5    1    4    4    0  501  0.25513576008E+02 -0.37620626765E+02 -0.71760627073E+02  0.85048892508E+02  0.41800000000E+01 0. -1.
</event>
<event>
11    1  0.8041700E-009  0.1673268E+03  0.7561462E-02  0.1080382E+00
         22   -1    0    0    0    0  0.00000000000E+00  0.00000000000E+00  0.23589906496E+04  0.23589906496E+04  0.00000000000E+00 0.  1.
         22   -1    0    0    0    0 -0.00000000000E+00 -0.00000000000E+00 -0.13456957772E+03  0.13456957772E+03  0.00000000000E+00 0. -1.
        -24    2    1    2    0    0 -0.13294745154E+01 -0.10966893856E+03 -0.78556387630E+02  0.15703887836E+03  0.80380717161E+02 0.  0.
         25    2    1    2    0    0  0.48325047804E+02  0.13101959381E+03  0.55430655776E+03  0.58515429281E+03  0.12509333402E+03 0.  0.
         24    2    1    2    0    0 -0.46995573289E+02 -0.21350655241E+02  0.17486709018E+04  0.17513670562E+04  0.82293428376E+02 0.  0.
        -13    1    5    5    0    0 -0.38983073027E+02  0.23257539286E+02  0.11881526081E+04  0.11890194335E+04  0.00000000000E+00 0.  1.
         14    1    5    5    0    0 -0.80125002611E+01 -0.44608194527E+02  0.56051829368E+03  0.56234762268E+03  0.00000000000E+00 0. -1.
         11    1    3    3    0    0 -0.86853399670E+01 -0.12137327951E+03 -0.74301550311E+02  0.14257499250E+03  0.00000000000E+00 0. -1.
        -12    1    3    3    0    0  0.73558654516E+01  0.11704340944E+02 -0.42548373193E+01  0.14463885857E+02  0.00000000000E+00 0.  1.
          5    1    4    4  501    0  0.52543179295E+02  0.60476794239E+02  0.11521734883E+03  0.14039493653E+03  0.41800000000E+01 0.  1.
         -5    1    4    4    0  501 -0.42181314908E+01  0.70542799566E+02  0.43908920892E+03  0.44475935628E+03  0.41800000000E+01 0.  1.
</event>
<event>
11    1  0.8041700E-009  0.1766220E+03  0.7561462E-02  0.1072409E+00
         22   -1    0    0    0    0  0.00000000000E+00  0.00000000000E+00  0.22665078526E+04  0.22665078526E+04  0.00000000000E+00 0. -1.
         22   -1    0    0    0    0 -0.00000000000E+00 -0.00000000000E+00 -0.99789214023E+03  0.99789214023E+03  0.00000000000E+00 0.  1.
        -24    2    1    2    0    0 -0.99033581062E+02 -0.24600740137E+02 -0.97377060522E+03  0.98214490738E+03  0.77243646422E+02 0.  0.
         25    2    1    2    0    0  0.20301425197E+03  0.52235873251E+02  0.88144069845E+03  0.91461502769E+03  0.12505827054E+03 0.  0.
         24    2    1    2    0    0 -0.10398067091E+03 -0.27635133114E+02  0.13609456192E+04  0.13676400578E+04  0.81796508798E+02 0.  0.
        -11    1    5    5    0    0 -0.16912522695E+01  0.20082710206E+02  0.13307529493E+03  0.13459275502E+03  0.00000000000E+00 0.  1.
         12    1    5    5    0    0 -0.10228941864E+03 -0.47717843321E+02  0.12278703243E+04  0.12330473028E+04  0.00000000000E+00 0. -1.
         11    1    3    3    0    0 -0.28020340099E+01  0.29952299268E+01 -0.98043113348E+00  0.42171130070E+01  0.00000000000E+00 0. -1.
        -12    1    3    3    0    0 -0.96231547052E+02 -0.27595970064E+02 -0.97279017408E+03  0.97792779437E+03  0.00000000000E+00 0.  1.
          5    1    4    4  501    0  0.16946974351E+03  0.74209272110E+02  0.82344235096E+03  0.84397973186E+03  0.41800000000E+01 0.  1.
         -5    1    4    4    0  501  0.33544508460E+02 -0.21973398859E+02  0.57998347487E+02  0.70635295826E+02  0.41800000000E+01 0.  1.
</event>
<event>
11    1  0.8041700E-009  0.2293234E+03  0.7561462E-02  0.1035529E+00
         22   -1    0    0    0    0  0.00000000000E+00  0.00000000000E+00  0.51187498735E+03  0.51187498735E+03  0.00000000000E+00 0.  1.
         22   -1    0    0    0    0 -0.00000000000E+00 -0.00000000000E+00 -0.19719961682E+04  0.19719961682E+04  0.00000000000E+00 0. -1.
         24    2    1    2    0    0 -0.13551924047E+02 -0.61730231346E+01 -0.17758542891E+04  0.17777944710E+04  0.81688212880E+02 0.  0.
         25    2    1    2    0    0 -0.40282700135E+02 -0.17962439107E+03 -0.97524122715E+02  0.24299058602E+03  0.12508338253E+03 0.  0.
        -24    2    1    2    0    0  0.53834624182E+02  0.18579741420E+03  0.41325723093E+03  0.46308609857E+03  0.79046504597E+02 0.  0.
        -13    1    3    3    0    0 -0.23607346316E+02  0.23033570469E+01 -0.14812811423E+03  0.15001516750E+03  0.00000000000E+00 0.  1.
         14    1    3    3    0    0  0.10055422269E+02 -0.84763801815E+01 -0.16277261749E+04  0.16277793035E+04  0.00000000000E+00 0. -1.
         13    1    5    5    0    0 -0.48288260617E+01  0.49754868344E+02  0.49652641021E+02  0.70457428603E+02  0.00000000000E+00 0. -1.
        -14    1    5    5    0    0  0.58663450243E+02  0.13604254586E+03  0.36360458991E+03  0.39262866997E+03  0.00000000000E+00 0.  1.
          5    1    4    4  501    0 -0.73628183981E+02 -0.82773654692E+02 -0.15996152768E+02  0.11200864561E+03  0.41800000000E+01 0.  1.
         -5    1    4    4    0  501  0.33345483846E+02 -0.96850736378E+02 -0.81527969947E+02  0.13098194041E+03  0.41800000000E+01 0.  1.
</event>
<event>
11    1  0.8041700E-009  0.1363692E+03  0.7561462E-02  0.1111682E+00
         22   -1    0    0    0    0  0.00000000000E+00  0.00000000000E+00  0.22445622232E+03  0.22445622232E+03  0.00000000000E+00 0. -1.
         22   -1    0    0    0    0 -0.00000000000E+00 -0.00000000000E+00 -0.32508098375E+03  0.32508098375E+03  0.00000000000E+00 0.  1.
        -24    2    1    2    0    0 -0.23857515922E+01  0.31568186874E+02 -0.23712323412E+03  0.25150996244E+03  0.77637560583E+02 0.  0.
         25    2    1    2    0    0 -0.32675569131E+01 -0.79144712775E+02  0.21259933387E+02  0.14957670334E+03  0.12508654175E+03 0.  0.
         24    2    1    2    0    0  0.56533085053E+01  0.47576525901E+02  0.11523853931E+03  0.14845054029E+03  0.80387537935E+02 0.  0.
        -13    1    5    5    0    0  0.46731521774E+01 -0.18305984932E+02  0.42312022022E+01  0.19361056471E+02  0.00000000000E+00 0.  1.
         14    1    5    5    0    0  0.98015632792E+00  0.65882510832E+02  0.11100733711E+03  0.12908948382E+03  0.00000000000E+00 0. -1.
         13    1    3    3    0    0  0.14400623085E+02  0.78920490351E+01 -0.44227840004E+01  0.17006569364E+02  0.00000000000E+00 0. -1.
        -14    1    3    3    0    0 -0.16786374677E+02  0.23676137839E+02 -0.23270045012E+03  0.23450339308E+03  0.00000000000E+00 0.  1.
          5    1    4    4  501    0 -0.48748305742E+02 -0.12252519509E+02  0.42371274599E+02  0.65873506497E+02  0.41800000000E+01 0.  1.
         -5    1    4    4    0  501  0.45480748829E+02 -0.66892193267E+02 -0.21111341212E+02  0.83703196844E+02  0.41800000000E+01 0.  1.
</event>
<event>
11    1  0.8041700E-009  0.1416750E+03  0.7561462E-02  0.1105702E+00
         22   -1    0    0    0    0  0.00000000000E+00  0.00000000000E+00  0.12603591176E+03  0.12603591176E+03  0.00000000000E+00 0. -1.
         22   -1    0    0    0    0 -0.00000000000E+00 -0.00000000000E+00 -0.72911912500E+03  0.72911912500E+03  0.00000000000E+00 0.  1.
        -24    2    1    2    0    0  0.30453206411E+01 -0.42561067628E+02 -0.56373233212E+03  0.57111895242E+03  0.81006154648E+02 0.  0.
         25    2    1    2    0    0 -0.27076283931E+02 -0.34449135846E+02 -0.60468399104E+02  0.14568500625E+03  0.12509126926E+03 0.  0.
         24    2    1    2    0    0  0.24030963290E+02  0.77010203474E+02  0.21117517976E+02  0.13835107808E+03  0.11039480334E+03 0.  0.
        -13    1    5    5    0    0  0.20680993447E+02 -0.26110971712E+02  0.16121589906E+01  0.33347944319E+02  0.00000000000E+00 0.  1.
         14    1    5    5    0    0  0.33499698422E+01  0.10312117519E+03  0.19505358986E+02  0.10500313376E+03  0.00000000000E+00 0. -1.
         11    1    3    3    0    0  0.10260524860E+02 -0.12284821842E+02 -0.16449142174E+02  0.22951459569E+02  0.00000000000E+00 0. -1.
        -12    1    3    3    0    0 -0.72152042188E+01 -0.30276245786E+02 -0.54728318994E+03  0.54816749286E+03  0.00000000000E+00 0.  1.
          5    1    4    4  501    0  0.41877716092E+02 -0.11555309672E+02  0.95717874347E+01  0.44680642356E+02  0.41800000000E+01 0.  1.
         -5    1    4    4    0  501 -0.68954000022E+02 -0.22893826174E+02 -0.70040186539E+02  0.10100436390E+03  0.41800000000E+01 0.  1.
</event>
<event>
11    1  0.8041700E-009  0.1353708E+03  0.7561462E-02  0.1112841E+00
         22   -1    0    0    0    0  0.00000000000E+00  0.00000000000E+00  0.56943059898E+03  0.56943059898E+03  0.00000000000E+00 0. -1.
         22   -1    0    0    0    0 -0.00000000000E+00 -0.00000000000E+00 -0.35347170616E+03  0.35347170616E+03  0.00000000000E+00 0.  1.
        -24    2    1    2    0    0  0.32772445289E+02 -0.41033559655E+02 -0.31301759417E+03  0.32746637604E+03  0.80600415587E+02 0.  0.
         25    2    1    2    0    0  0.75878255862E+01  0.49442602426E+02  0.13316408192E+03  0.18942804012E+03  0.12509262023E+03 0.  0.
         24    2    1    2    0    0 -0.40360270875E+02 -0.84090427711E+01  0.39581240507E+03  0.40600788898E+03  0.80469139699E+02 0.  0.
        -11    1    5    5    0    0  0.15638998914E+02  0.15557706363E+02  0.47030701233E+02  0.51947159429E+02  0.00000000000E+00 0.  1.
         12    1    5    5    0    0 -0.55999269789E+02 -0.23966749134E+02  0.34878170384E+03  0.35406072955E+03  0.00000000000E+00 0. -1.
         13    1    3    3    0    0  0.18940458359E+02 -0.42880073836E+02 -0.71197153920E+02  0.85243629799E+02  0.00000000000E+00 0. -1.
        -14    1    3    3    0    0  0.13831986930E+02  0.18465141810E+01 -0.24182044025E+03  0.24222274624E+03  0.00000000000E+00 0.  1.
          5    1    4    4  501    0 -0.38201507397E+02 -0.70584713268E+01  0.16743845912E+01  0.39108223542E+02  0.41800000000E+01 0. -1.
         -5    1    4    4    0  501  0.45789332983E+02  0.56501073753E+02  0.13148969733E+03  0.15031981657E+03  0.41800000000E+01 0. -1.
</event>
<event>
11    1  0.8041700E-009  0.2033931E+03  0.7561462E-02  0.1052150E+00
         22   -1    0    0    0    0  0.00000000000E+00  0.00000000000E+00  0.26805297722E+03  0.26805297722E+03  0.00000000000E+00 0. -1.
         22   -1    0    0    0    0 -0.00000000000E+00 -0.00000000000E+00 -0.48985773865E+03  0.48985773865E+03  0.00000000000E+00 0.  1.
        -24    2    1    2    0    0 -0.82323276126E+01  0.54803728474E+02 -0.22067129985E+03  0.24133790587E+03  0.80479453029E+02 0.  0.
         25    2    1    2    0    0  0.94556330314E+02 -0.18079907638E+03 -0.15409926488E+03  0.28464596193E+03  0.12509010587E+03 0.  0.
         24    2    1    2    0    0 -0.86324002701E+02  0.12599534791E+03  0.15296580330E+03  0.23192684807E+03  0.84052749737E+02 0.  0.
        -13    1    5    5    0    0 -0.11757000221E+02  0.19120319309E+02 -0.88787752990E+01  0.24138067767E+02  0.00000000000E+00 0.  1.
         14    1    5    5    0    0 -0.74567002480E+02  0.10687502860E+03  0.16184457860E+03  0.20778878030E+03  0.00000000000E+00 0. -1.
         13    1    3    3    0    0  0.11139287552E+02 -0.13790931673E+02 -0.96914263103E+02  0.98522321920E+02  0.00000000000E+00 0. -1.
        -14    1    3    3    0    0 -0.19371615165E+02  0.68594660147E+02 -0.12375703674E+03  0.14281558395E+03  0.00000000000E+00 0.  1.
          5    1    4    4  501    0  0.65589590371E+02 -0.77068164541E+02 -0.59798009315E+01  0.10146293298E+03  0.41800000000E+01 0.  1.
         -5    1    4    4    0  501  0.28966739943E+02 -0.10373091184E+03 -0.14811946395E+03  0.18318302895E+03  0.41800000000E+01 0.  1.
</event>
<event>
11    1  0.8041700E-009  0.1324301E+03  0.7561462E-02  0.1116319E+00
         22   -1    0    0    0    0  0.00000000000E+00  0.00000000000E+00  0.23113725623E+03  0.23113725623E+03  0.00000000000E+00 0.  1.
         22   -1    0    0    0    0 -0.00000000000E+00 -0.00000000000E+00 -0.52259964719E+03  0.52259964719E+03  0.00000000000E+00 0. -1.
         24    2    1    2    0    0 -0.64994685894E+01  0.18269695036E+02 -0.41505874216E+03  0.42307968262E+03  0.79665761491E+02 0.  0.
         25    2    1    2    0    0  0.14374980124E+02  0.26390078248E+02 -0.46962612504E+02  0.13695271827E+03  0.12508990280E+03 0.  0.
        -24    2    1    2    0    0 -0.78755115343E+01 -0.44659773284E+02  0.17055896370E+03  0.19370450254E+03  0.79840811458E+02 0.  0.
        -13    1    3    3    0    0 -0.23151347976E+02  0.44515360781E+02 -0.22796505915E+03  0.23342165806E+03  0.00000000000E+00 0.  1.
         14    1    3    3    0    0  0.16651879386E+02 -0.26245665745E+02 -0.18709368301E+03  0.18965802456E+03  0.00000000000E+00 0. -1.
         11    1    5    5    0    0 -0.39668237371E+02 -0.10993970033E+02  0.51312080928E+02  0.65782718722E+02  0.00000000000E+00 0. -1.
        -12    1    5    5    0    0  0.31792725837E+02 -0.33665803251E+02  0.11924688277E+03  0.12792178382E+03  0.00000000000E+00 0.  1.
          5    1    4    4  501    0  0.59240460158E+01 -0.20961058317E+02 -0.76973260904E+02  0.80105028439E+02  0.41800000000E+01 0. -1.
         -5    1    4    4    0  501  0.84509341079E+01  0.47351136565E+02  0.30010648400E+02  0.56847689827E+02  0.41800000000E+01 0. -1.
</event>
<event>
11    1  0.8041700E-009  0.1426727E+03  0.7561462E-02  0.1104610E+00
         22   -1    0    0    0    0  0.00000000000E+00  0.00000000000E+00  0.17169938672E+04  0.17169938672E+04  0.00000000000E+00 0.  1.
         22   -1    0    0    0    0 -0.00000000000E+00 -0.00000000000E+00 -0.18591117067E+03  0.18591117067E+03  0.00000000000E+00 0. -1.
         24    2    1    2    0    0  0.11682160812E+02 -0.84243800445E+01 -0.15481099137E+03  0.17490667964E+03  0.80115294877E+02 0.  0.
         25    2    1    2    0    0 -0.45941037347E+02  0.66498239086E+02  0.27045760400E+03  0.30874970983E+03  0.12508586269E+03 0.  0.
        -24    2    1    2    0    0  0.34258876534E+02 -0.58073859042E+02  0.14154360839E+04  0.14192486484E+04  0.79127584675E+02 0.  0.
        -13    1    3    3    0    0 -0.25035004609E+02 -0.23227383710E+02 -0.35766609364E+02  0.49452129936E+02  0.00000000000E+00 0.  1.
         14    1    3    3    0    0  0.36717165422E+02  0.14803003666E+02 -0.11904438201E+03  0.12545454971E+03  0.00000000000E+00 0. -1.
         13    1    5    5    0    0 -0.33109015640E+01  0.16838209834E+02  0.39682751407E+03  0.39719839287E+03  0.00000000000E+00 0. -1.
        -14    1    5    5    0    0  0.37569778098E+02 -0.74912068876E+02  0.10186085699E+04  0.10220502556E+04  0.00000000000E+00 0.  1.
          5    1    4    4  501    0 -0.53804324736E+02  0.84499051966E+02  0.27069376252E+03  0.28866517041E+03  0.41800000000E+01 0.  1.
         -5    1    4    4    0  501  0.78632873895E+01 -0.18000812879E+02 -0.23615851408E+00  0.20084539420E+02  0.41800000000E+01 0.  1.
</event>
<event>
11    1  0.8041700E-009  0.1434257E+03  0.7561462E-02  0.1103792E+00
         22   -1    0    0    0    0  0.00000000000E+00  0.00000000000E+00  0.12693674271E+03  0.12693674271E+03  0.00000000000E+00 0. -1.
         22   -1    0    0    0    0 -0.00000000000E+00 -0.00000000000E+00 -0.57825994809E+03  0.57825994809E+03  0.00000000000E+00 0. -1.
         24    2    1    2    0    0 -0.68766739722E+02 -0.21459055583E+02 -0.39192214731E+03  0.40507565074E+03  0.72759588500E+02 0.  0.
         25    2    1    2    0    0 -0.15398973964E+02  0.12531035156E+02 -0.11471499888E+03  0.17088187080E+03  0.12508767948E+03 0.  0.
        -24    2    1    2    0    0  0.84165713686E+02  0.89280204270E+01  0.55313940813E+02  0.12923916926E+03  0.80495676362E+02 0.  0.
        -13    1    3    3    0    0 -0.83418402982E+02 -0.25428669395E+02 -0.33401088598E+03  0.34520793608E+03  0.00000000000E+00 0.  1.
         14    1    3    3    0    0  0.14651663260E+02  0.39696138126E+01 -0.57911261327E+02  0.59867714660E+02  0.00000000000E+00 0. -1.
         13    1    5    5    0    0  0.51432746175E+01 -0.21360298251E+02  0.36410025006E+02  0.42525351688E+02  0.00000000000E+00 0. -1.
        -14    1    5    5    0    0  0.79022439069E+02  0.30288318678E+02  0.18903915807E+02  0.86713817570E+02  0.00000000000E+00 0.  1.
          5    1    4    4  501    0 -0.56336880669E+02 -0.88361857827E+01 -0.12338630596E+02  0.58494756240E+02  0.41800000000E+01 0.  1.
         -5    1    4    4    0  501  0.40937906704E+02  0.21367220938E+02 -0.10237636828E+03  0.11238711456E+03  0.41800000000E+01 0.  1.
</event>
<event>
11    1  0.8041700E-009  0.1480950E+03  0.7561462E-02  0.1098841E+00
         22   -1    0    0    0    0  0.00000000000E+00  0.00000000000E+00  0.25623563600E+03  0.25623563600E+03  0.00000000000E+00 0. -1.
         22   -1    0    0    0    0 -0.00000000000E+00 -0.00000000000E+00 -0.26536284509E+03  0.26536284509E+03  0.00000000000E+00 0.  1.
         24    2    1    2    0    0 -0.16975964753E+02  0.15281830308E+02 -0.17365420739E+03  0.19226339335E+03  0.79295087868E+02 0.  0.
         25    2    1    2    0    0 -0.38228461406E+02  0.49126528532E+02  0.16224721627E+02  0.14065691787E+03  0.12508515453E+03 0.  0.
        -24    2    1    2    0    0  0.55204426159E+02 -0.64408358840E+02  0.14830227668E+03  0.18867816987E+03  0.80061983253E+02 0.  0.
        -13    1    3    3    0    0  0.15640206629E+02  0.39063804157E+02 -0.92724671675E+02  0.10182564312E+03  0.00000000000E+00 0.  1.
         14    1    3    3    0    0 -0.32616171382E+02 -0.23781973849E+02 -0.80929535716E+02  0.90437750232E+02  0.00000000000E+00 0. -1.
         11    1    5    5    0    0  0.13597465162E+02 -0.64698349478E+02  0.12391962897E+03  0.14045227634E+03  0.00000000000E+00 0. -1.
        -12    1    5    5    0    0  0.41606960997E+02  0.28999063807E+00  0.24382647706E+02  0.48225893534E+02  0.00000000000E+00 0.  1.
          5    1    4    4  501    0 -0.64710059175E+02 -0.18113404180E+02  0.73407213847E+01  0.67726256059E+02  0.41800000000E+01 0.  1.
         -5    1    4    4    0  501  0.26481597769E+02  0.67239932712E+02  0.88840002428E+01  0.72930661808E+02  0.41800000000E+01 0.  1.
</event>
<event>
11    1  0.8041700E-009  0.1563888E+03  0.7561462E-02  0.1090524E+00
         22   -1    0    0    0    0  0.00000000000E+00  0.00000000000E+00  0.21135264941E+04  0.21135264941E+04  0.00000000000E+00 0.  1.
         22   -1    0    0    0    0 -0.00000000000E+00 -0.00000000000E+00 -0.22785253309E+02  0.22785253309E+02  0.00000000000E+00 0.  1.
         24    2    1    2    0    0  0.52879320944E+02  0.70438785497E+01  0.19878907483E+03  0.22275974260E+03  0.85199576533E+02 0.  0.
         25    2    1    2    0    0 -0.56079937650E+02 -0.94936769114E+02  0.10589420805E+04  0.10719927586E+04  0.12510873337E+03 0.  0.
        -24    2    1    2    0    0  0.32006167061E+01  0.87892890565E+02  0.83301008547E+03  0.84155924619E+03  0.81121872478E+02 0.  0.
        -13    1    3    3    0    0  0.59554413207E+02 -0.24181739003E+02  0.99438727170E+02  0.11840415996E+03  0.00000000000E+00 0.  1.
         14    1    3    3    0    0 -0.66750922625E+01  0.31225617552E+02  0.99350347659E+02  0.10435558264E+03  0.00000000000E+00 0. -1.
         13    1    5    5    0    0 -0.38934694135E+02  0.39086864432E+02  0.38680827908E+03  0.39072284058E+03  0.00000000000E+00 0. -1.
        -14    1    5    5    0    0  0.42135310841E+02  0.48806026132E+02  0.44620180638E+03  0.45083640561E+03  0.00000000000E+00 0.  1.
          5    1    4    4  501    0 -0.13011858809E+02  0.26884652326E+02  0.35495997651E+03  0.35623889502E+03  0.41800000000E+01 0. -1.
         -5    1    4    4    0  501 -0.43068078841E+02 -0.12182142144E+03  0.70398210398E+03  0.71575386360E+03  0.41800000000E+01 0. -1.
</event>
<event>
11    1  0.8041700E-009  0.1490761E+03  0.7561462E-02  0.1097827E+00
         22   -1    0    0    0    0  0.00000000000E+00  0.00000000000E+00  0.95360545222E+03  0.95360545222E+03  0.00000000000E+00 0. -1.
         22   -1    0    0    0    0 -0.00000000000E+00 -0.00000000000E+00 -0.56215145759E+03  0.56215145759E+03  0.00000000000E+00 0. -1.
        -24    2    1    2    0    0  0.37444161705E+02  0.50891917924E+02 -0.51976068031E+03  0.52956001523E+03  0.79313254736E+02 0.  0.
         25    2    1    2    0    0  0.34926037789E+02 -0.10231770356E+01  0.93816274725E+02  0.16021949577E+03  0.12509164007E+03 0.  0.
         24    2    1    2    0    0 -0.72370199495E+02 -0.49868740888E+02  0.81739840022E+03  0.82597739881E+03  0.79838471749E+02 0.  0.
        -11    1    5    5    0    0  0.40088694800E+01 -0.35493998391E+02  0.15648574123E+03  0.16051069175E+03  0.00000000000E+00 0.  1.
         12    1    5    5    0    0 -0.76379068975E+02 -0.14374742498E+02  0.66091265899E+03  0.66546670706E+03  0.00000000000E+00 0. -1.
         11    1    3    3    0    0  0.12374498154E+02  0.15183788752E+02 -0.42259123755E+03  0.42304494998E+03  0.00000000000E+00 0. -1.
        -12    1    3    3    0    0  0.25069663551E+02  0.35708129172E+02 -0.97169442755E+02  0.10651506525E+03  0.00000000000E+00 0.  1.
          5    1    4    4  501    0  0.85241708218E+01  0.32606577669E+02 -0.19411000440E+02  0.39116617102E+02  0.41800000000E+01 0.  1.
         -5    1    4    4    0  501  0.26401866967E+02 -0.33629754704E+02  0.11322727516E+03  0.12110287867E+03  0.41800000000E+01 0.  1.
</event>
<event>
11    1  0.8041700E-009  0.1380640E+03  0.7561462E-02  0.1109740E+00
         22   -1    0    0    0    0  0.00000000000E+00  0.00000000000E+00  0.96846589163E+03  0.96846589163E+03  0.00000000000E+00 0.  1.
         22   -1    0    0    0    0 -0.00000000000E+00 -0.00000000000E+00 -0.22054893586E+03  0.22054893586E+03  0.00000000000E+00 0. -1.
        -24    2    1    2    0    0 -0.22595898023E+02 -0.54592845301E+02 -0.18529887274E+03  0.21142898849E+03  0.82919186988E+02 0.  0.
         25    2    1    2    0    0  0.29403778613E+02  0.38696653833E+02  0.20665838718E+03  0.24640898483E+03  0.12509070949E+03 0.  0.
         24    2    1    2    0    0 -0.68078805904E+01  0.15896191468E+02  0.72655744133E+03  0.73117685416E+03  0.80217456791E+02 0.  0.
        -11    1    5    5    0    0 -0.21169556652E+02  0.25957683674E+02  0.68804906632E+03  0.68886389740E+03  0.00000000000E+00 0.  1.
         12    1    5    5    0    0  0.14361676062E+02 -0.10061492206E+02  0.38508375007E+02  0.42312956768E+02  0.00000000000E+00 0. -1.
         11    1    3    3    0    0 -0.11038986761E+02  0.80672872187E+01 -0.11786017275E+03  0.11865058227E+03  0.00000000000E+00 0. -1.
        -12    1    3    3    0    0 -0.11556911262E+02 -0.62660132519E+02 -0.67438699989E+02  0.92778406224E+02  0.00000000000E+00 0.  1.
          5    1    4    4  501    0 -0.41996277644E+02  0.14895367208E+02  0.28758701512E+02  0.53198633562E+02  0.41800000000E+01 0.  1.
         -5    1    4    4    0  501  0.71400056257E+02  0.23801286625E+02  0.17789968567E+03  0.19321035127E+03  0.41800000000E+01 0.  1.
</event>
<event>
11    1  0.8041700E-009  0.1352648E+03  0.7561462E-02  0.1112964E+00
         22   -1    0    0    0    0  0.00000000000E+00  0.00000000000E+00  0.64092099833E+03  0.64092099833E+03  0.00000000000E+00 0. -1.
         22   -1    0    0    0    0 -0.00000000000E+00 -0.00000000000E+00 -0.67145462633E+03  0.67145462633E+03  0.00000000000E+00 0.  1.
        -24    2    1    2    0    0  0.47130547041E+02 -0.24636561720E+02 -0.58210166894E+03  0.59015714834E+03  0.81331778001E+02 0.  0.
         25    2    1    2    0    0 -0.18575582083E+02  0.28192642795E+02 -0.31545796073E+02  0.13335436918E+03  0.12509345775E+03 0.  0.
         24    2    1    2    0    0 -0.28554964958E+02 -0.35560810758E+01  0.58311383701E+03  0.58886410714E+03  0.76884055764E+02 0.  0.
        -13    1    5    5    0    0  0.31234570455E+01  0.16952501021E+01 -0.11371694601E+01  0.37313551432E+01  0.00000000000E+00 0.  1.
         14    1    5    5    0    0 -0.31678422004E+02 -0.52513311779E+01  0.58425100647E+03  0.58513275200E+03  0.00000000000E+00 0. -1.
         13    1    3    3    0    0  0.14434539571E+02  0.12042985360E+01 -0.12793358784E+02  0.19325534833E+02  0.00000000000E+00 0. -1.
        -14    1    3    3    0    0  0.32696007469E+02 -0.25840860256E+02 -0.56930831016E+03  0.57083161351E+03  0.00000000000E+00 0.  1.
          5    1    4    4  501    0  0.35860210267E+02  0.36337644998E+02 -0.53390245261E+02  0.73988984406E+02  0.41800000000E+01 0. -1.
         -5    1    4    4    0  501 -0.54435792349E+02 -0.81450022026E+01  0.21844449188E+02  0.59365384778E+02  0.41800000000E+01 0. -1.
</event>
<event>
11    1  0.1013726E-008  0.2115866E+03  0.7561462E-02  0.1046620E+00
         22   -1    0    0    0    0  0.00000000000E+00  0.00000000000E+00  0.14534013256E+04  0.14534013256E+04  0.00000000000E+00 0. -1.
         22   -1    0    0    0    0 -0.00000000000E+00 -0.00000000000E+00 -0.28683895970E+03  0.28683895970E+03  0.00000000000E+00 0.  1.
         24    2    1    2    0    0  0.57702993770E+01 -0.20793162815E+02 -0.14416785783E+03  0.16679734643E+03  0.81063750033E+02 0.  0.
         25    2    1    2    0    0 -0.33267716686E+02  0.18812832732E+03 -0.20319337350E+02  0.22925662676E+03  0.12508683755E+03 0.  0.
        -24    2    1    2    0    0  0.27497417309E+02 -0.16733516451E+03  0.13310495610E+04  0.13441863121E+04  0.79917096729E+02 0.  0.
        -13    1    3    3    0    0  0.14351818015E+02 -0.46599711779E+02 -0.12307018058E+03  0.13237740429E+03  0.00000000000E+00 0.  1.
         14    1    3    3    0    0 -0.85815186381E+01  0.25806548965E+02 -0.21097677254E+02  0.34419942143E+02  0.00000000000E+00 0. -1.
         11    1    5    5    0    0  0.32979875326E+02 -0.59576778184E+02  0.75910898568E+03  0.76215714706E+03  0.00000000000E+00 0. -1.
        -12    1    5    5    0    0 -0.54824580161E+01 -0.10775838632E+03  0.57194057536E+03  0.58202916500E+03  0.00000000000E+00 0.  1.
          5    1    4    4  501    0  0.31121064886E+02  0.14966381228E+03 -0.19254766504E+02  0.15412980185E+03  0.41800000000E+01 0. -1.
         -5    1    4    4    0  501 -0.64388781572E+02  0.38464515042E+02 -0.10645708461E+01  0.75126824909E+02  0.41800000000E+01 0. -1.
</event>
<event>
11    1  0.8041700E-009  0.1302618E+03  0.7561462E-02  0.1118948E+00
         22   -1    0    0    0    0  0.00000000000E+00  0.00000000000E+00  0.87593160755E+03  0.87593160755E+03  0.00000000000E+00 0. -1.
         22   -1    0    0    0    0 -0.00000000000E+00 -0.00000000000E+00 -0.15017664964E+03  0.15017664964E+03  0.00000000000E+00 0. -1.
        -24    2    1    2    0    0 -0.21120972229E+02 -0.13457190037E+02 -0.86236891024E+02  0.12032201805E+03  0.80083676375E+02 0.  0.
         25    2    1    2    0    0  0.56216441554E+02  0.11341841824E+02  0.62857562746E+02  0.15128919722E+03  0.12509365422E+03 0.  0.
         24    2    1    2    0    0 -0.35095469325E+02  0.21153482139E+01  0.74913428618E+03  0.75449704192E+03  0.82628329638E+02 0.  0.
        -13    1    5    5    0    0  0.22930382965E+02  0.14014422137E+02  0.14528933422E+03  0.14775383964E+03  0.00000000000E+00 0.  1.
         14    1    5    5    0    0 -0.58025852289E+02 -0.11899073923E+02  0.60384495197E+03  0.60674320228E+03  0.00000000000E+00 0. -1.
         13    1    3    3    0    0 -0.72049982818E+01 -0.17241674539E+02 -0.99191604359E+02  0.10093642413E+03  0.00000000000E+00 0. -1.
        -14    1    3    3    0    0 -0.13915973947E+02  0.37844845018E+01  0.12954713335E+02  0.19385593915E+02  0.00000000000E+00 0.  1.
          5    1    4    4  501    0 -0.21980536389E+02  0.44026896516E+02  0.39604388269E+02  0.63304751535E+02  0.41800000000E+01 0.  1.
         -5    1    4    4    0  501  0.78196977943E+02 -0.32685054693E+02  0.23253174477E+02  0.87984445687E+02  0.41800000000E+01 0.  1.
</event>
<event>
11    1  0.8041700E-009  0.1563657E+03  0.7561462E-02  0.1090546E+00
         22   -1    0    0    0    0  0.00000000000E+00  0.00000000000E+00  0.17563113989E+03  0.17563113989E+03  0.00000000000E+00 0. -1.
         22   -1    0    0    0    0 -0.00000000000E+00 -0.00000000000E+00 -0.36962307578E+04  0.36962307578E+04  0.00000000000E+00 0. -1.
         24    2    1    2    0    0 -0.24071703525E+01 -0.95860183870E+02 -0.34573790767E+04  0.34596566073E+04  0.80986360024E+02 0.  0.
         25    2    1    2    0    0  0.31079429707E+02  0.53272815459E+02 -0.20108683452E+03  0.24471787925E+03  0.12508797539E+03 0.  0.
        -24    2    1    2    0    0 -0.28672259355E+02  0.42587368411E+02  0.13786629334E+03  0.16748741120E+03  0.80057077544E+02 0.  0.
        -13    1    3    3    0    0 -0.96328961943E+01 -0.64042024313E+02 -0.10172738355E+04  0.10193332281E+04  0.00000000000E+00 0.  1.
         14    1    3    3    0    0  0.72257258418E+01 -0.31818159557E+02 -0.24401052412E+04  0.24403233791E+04  0.00000000000E+00 0. -1.
         13    1    5    5    0    0 -0.25837368620E+02  0.43060755463E+02  0.14834886632E+03  0.15661795688E+03  0.00000000000E+00 0. -1.
        -14    1    5    5    0    0 -0.28348907346E+01 -0.47338705111E+00 -0.10482572982E+02  0.10869454315E+02  0.00000000000E+00 0.  1.
          5    1    4    4  501    0  0.42651126369E+02  0.89815945090E+02 -0.15955753841E+03  0.18804814021E+03  0.41800000000E+01 0. -1.
         -5    1    4    4    0  501 -0.11571696662E+02 -0.36543129632E+02 -0.41529296113E+02  0.56669739037E+02  0.41800000000E+01 0. -1.
</event>
<event>
11    1  0.8041700E-009  0.1449195E+03  0.7561462E-02  0.1102186E+00
         22   -1    0    0    0    0  0.00000000000E+00  0.00000000000E+00  0.75342093130E+03  0.75342093130E+03  0.00000000000E+00 0.  1.
         22   -1    0    0    0    0 -0.00000000000E+00 -0.00000000000E+00 -0.43148904359E+03  0.43148904359E+03  0.00000000000E+00 0.  1.
         24    2    1    2    0    0  0.69672095775E+02 -0.14700290374E+02 -0.37311197646E+03  0.38827195220E+03  0.80450372403E+02 0.  0.
         25    2    1    2    0    0 -0.11785219985E+03 -0.72477563665E+01  0.11036031841E+03  0.20437132001E+03  0.12508623257E+03 0.  0.
        -24    2    1    2    0    0  0.48180104078E+02  0.21948046741E+02  0.58468354575E+03  0.59226670268E+03  0.78242950121E+02 0.  0.
        -13    1    3    3    0    0  0.12920493174E+02 -0.25664911886E+02 -0.25666761489E+03  0.25827096503E+03  0.00000000000E+00 0.  1.
         14    1    3    3    0    0  0.56751602600E+02  0.10964621512E+02 -0.11644436157E+03  0.13000098717E+03  0.00000000000E+00 0. -1.
         13    1    5    5    0    0 -0.17363936530E+02  0.23123865555E+02  0.17947806490E+03  0.18179272601E+03  0.00000000000E+00 0. -1.
        -14    1    5    5    0    0  0.65544040608E+02 -0.11758188143E+01  0.40520548086E+03  0.41047397667E+03  0.00000000000E+00 0.  1.
          5    1    4    4  501    0 -0.33373731702E+02 -0.57881612055E+02  0.18087621862E+02  0.69344945356E+02  0.41800000000E+01 0.  1.
         -5    1    4    4    0  501 -0.84478468151E+02  0.50633855688E+02  0.92272696550E+02  0.13502637465E+03  0.41800000000E+01 0.  1.
</event>
<event>
11    1  0.8041700E-009  0.1408746E+03  0.7561462E-02  0.1106586E+00
         22   -1    0    0    0    0  0.00000000000E+00  0.00000000000E+00  0.37174888068E+02  0.37174888068E+02  0.00000000000E+00 0. -1.
         22   -1    0    0    0    0 -0.00000000000E+00 -0.00000000000E+00 -0.11041229752E+04  0.11041229752E+04  0.00000000000E+00 0. -1.
         24    2    1    2    0    0 -0.34835831366E+02  0.40631401817E+02 -0.49070332642E+03  0.50020994562E+03  0.80967828074E+02 0.  0.
         25    2    1    2    0    0  0.68926184388E+02 -0.63274841149E+02 -0.49756177680E+03  0.52150773280E+03  0.12509224283E+03 0.  0.
        -24    2    1    2    0    0 -0.34090353022E+02  0.22643439332E+02 -0.78682983914E+02  0.11958018485E+03  0.80209295826E+02 0.  0.
        -13    1    3    3    0    0 -0.24995326146E+02 -0.10900532187E+02 -0.55304786102E+02  0.61662040972E+02  0.00000000000E+00 0.  1.
         14    1    3    3    0    0 -0.98405052201E+01  0.51531934004E+02 -0.43539854032E+03  0.43854790465E+03  0.00000000000E+00 0. -1.
         13    1    5    5    0    0  0.21039709540E+02  0.15398448979E+02 -0.51419425612E+02  0.57651877148E+02  0.00000000000E+00 0. -1.
        -14    1    5    5    0    0 -0.55130062562E+02  0.72449903534E+01 -0.27263558302E+02  0.61928307701E+02  0.00000000000E+00 0.  1.
          5    1    4    4  501    0  0.10526778744E+03 -0.52982900811E+02 -0.36222237536E+03  0.38093439915E+03  0.41800000000E+01 0.  1.
         -5    1    4    4    0  501 -0.36341603048E+02 -0.10291940338E+02 -0.13533940144E+03  0.14057333364E+03  0.41800000000E+01 0.  1.
</event>
<event>
11    1  0.8895138E-009  0.1639422E+03  0.7561462E-02  0.1083427E+00
         22   -1    0    0    0    0  0.00000000000E+00  0.00000000000E+00  0.65728425130E+03  0.65728425130E+03  0.00000000000E+00 0.  1.
         22   -1    0    0    0    0 -0.00000000000E+00 -0.00000000000E+00 -0.42289811904E+03  0.42289811904E+03  0.00000000000E+00 0. -1.
        -24    2    1    2    0    0 -0.94275702620E+02  0.13741118103E+02 -0.29510825281E+03  0.32018046192E+03  0.79686390842E+02 0.  0.
         25    2    1    2    0    0  0.76626902231E+02  0.92601149815E+02 -0.37083770532E+02  0.17739630805E+03  0.12509032329E+03 0.  0.
         24    2    1    2    0    0  0.17648800389E+02 -0.10634226792E+03  0.56657815559E+03  0.58260560037E+03  0.82451932005E+02 0.  0.
        -13    1    5    5    0    0  0.41430736835E+02 -0.10260042526E+03  0.43563219474E+03  0.44946497340E+03  0.00000000000E+00 0.  1.
         14    1    5    5    0    0 -0.23781936446E+02 -0.37418426543E+01  0.13094596085E+03  0.13314062697E+03  0.00000000000E+00 0. -1.
         13    1    3    3    0    0 -0.77749160077E+02 -0.25242962761E+02 -0.18772460945E+03  0.20475025776E+03  0.00000000000E+00 0. -1.
        -14    1    3    3    0    0 -0.16526542543E+02  0.38984080864E+02 -0.10738364336E+03  0.11543020415E+03  0.00000000000E+00 0.  1.
          5    1    4    4  501    0  0.99394233247E+02  0.86371448573E+02 -0.59517334589E+02  0.14456495512E+03  0.41800000000E+01 0.  1.
         -5    1    4    4    0  501 -0.22767331015E+02  0.62297012422E+01  0.22433564057E+02  0.32831352933E+02  0.41800000000E+01 0.  1.
</event>
<event>
11    1  0.8041700E-009  0.1290042E+03  0.7561462E-02  0.1120499E+00
         22   -1    0    0    0    0  0.00000000000E+00  0.00000000000E+00  0.64156840316E+03  0.64156840316E+03  0.00000000000E+00 0. -1.
         22   -1    0    0    0    0 -0.00000000000E+00 -0.00000000000E+00 -0.34537542088E+03  0.34537542088E+03  0.00000000000E+00 0.  1.
         24    2    1    2    0    0 -0.31214345780E+02 -0.48808813327E+01 -0.31102731160E+03  0.32252423750E+03  0.79282638908E+02 0.  0.
         25    2    1    2    0    0  0.28077476186E+02  0.99893842481E+01  0.13442070636E+03  0.18602684158E+03  0.12509567148E+03 0.  0.
        -24    2    1    2    0    0  0.31368695938E+01 -0.51085029154E+01  0.47279958752E+03  0.47839274496E+03  0.72692721270E+02 0.  0.
        -13    1    3    3    0    0 -0.16788885757E+02  0.27664511887E+02 -0.24829522265E+03  0.25039510677E+03  0.00000000000E+00 0.  1.
         14    1    3    3    0    0 -0.14425460023E+02 -0.32545393220E+02 -0.62732088945E+02  0.72129130731E+02  0.00000000000E+00 0. -1.
         13    1    5    5    0    0 -0.29674631294E+02 -0.20636311087E+02  0.20809293659E+03  0.21120869143E+03  0.00000000000E+00 0. -1.
        -14    1    5    5    0    0  0.32811500888E+02  0.15527808172E+02  0.26470665093E+03  0.26718405354E+03  0.00000000000E+00 0.  1.
          5    1    4    4  501    0  0.21710763562E+02  0.49775742741E+02  0.10257548170E+02  0.55422662461E+02  0.41800000000E+01 0. -1.
         -5    1    4    4    0  501  0.63667126238E+01 -0.39786358493E+02  0.12416315819E+03  0.13060417912E+03  0.41800000000E+01 0. -1.
</event>
<event>
11    1  0.8041700E-009  0.2156963E+03  0.7561462E-02  0.1043947E+00
         22   -1    0    0    0    0  0.00000000000E+00  0.00000000000E+00  0.29446647892E+04  0.29446647892E+04  0.00000000000E+00 0.  1.
         22   -1    0    0    0    0 -0.00000000000E+00 -0.00000000000E+00 -0.90448376007E+02  0.90448376007E+02  0.00000000000E+00 0. -1.
         24    2    1    2    0    0  0.12755150833E+03  0.81907192949E+02  0.32957191606E+03  0.37213171940E+03  0.82983089773E+02 0.  0.
         25    2    1    2    0    0 -0.16033927770E+03 -0.99329375586E+02  0.11892090255E+03  0.25566382602E+03  0.12508717777E+03 0.  0.
        -24    2    1    2    0    0  0.32787769361E+02  0.17422182637E+02  0.24057235946E+04  0.24073176198E+04  0.79331827198E+02 0.  0.
        -11    1    3    3    0    0 -0.11538453952E+02  0.13105918408E+02  0.38666757688E+02  0.42426632756E+02  0.00000000000E+00 0.  1.
         12    1    3    3    0    0  0.13908996229E+03  0.68801274541E+02  0.29090515838E+03  0.32970508664E+03  0.00000000000E+00 0. -1.
         13    1    5    5    0    0 -0.15011428931E+01  0.41296301007E+02  0.81665929504E+03  0.81770412870E+03  0.00000000000E+00 0. -1.
        -14    1    5    5    0    0  0.34288912254E+02 -0.23874118370E+02  0.15890642995E+04  0.15896134911E+04  0.00000000000E+00 0.  1.
          5    1    4    4  501    0 -0.12026467573E+03 -0.10329505340E+03  0.13862517288E+03  0.21063682309E+03  0.41800000000E+01 0.  1.
         -5    1    4    4    0  501 -0.40074601970E+02  0.39656778096E+01 -0.19704270330E+02  0.45027002929E+02  0.41800000000E+01 0.  1.
</event>
<event>
11    1  0.8041700E-009  0.1397593E+03  0.7561462E-02  0.1107827E+00
         22   -1    0    0    0    0  0.00000000000E+00  0.00000000000E+00  0.22023666181E+03  0.22023666181E+03  0.00000000000E+00 0. -1.
         22   -1    0    0    0    0 -0.00000000000E+00 -0.00000000000E+00 -0.27552982182E+03  0.27552982182E+03  0.00000000000E+00 0. -1.
        -24    2    1    2    0    0  0.20518508724E+02 -0.51026551854E+02 -0.15951846005E+03  0.18580684812E+03  0.77803133077E+02 0.  0.
         25    2    1    2    0    0 -0.69732541694E+02  0.84988743433E+02 -0.99413868475E+01  0.16682805426E+03  0.12508818743E+03 0.  0.
         24    2    1    2    0    0  0.49214032970E+02 -0.33962191579E+02  0.11416668689E+03  0.14313158125E+03  0.62266890556E+02 0.  0.
        -11    1    5    5    0    0  0.36180203345E+02 -0.40305387349E+02  0.39410400100E+02  0.66982915728E+02  0.00000000000E+00 0.  1.
         12    1    5    5    0    0  0.13033829626E+02  0.63431957696E+01  0.74756286786E+02  0.76148665525E+02  0.00000000000E+00 0. -1.
         13    1    3    3    0    0  0.17523847405E+02 -0.53504718233E+02 -0.16761906034E+03  0.17682191462E+03  0.00000000000E+00 0. -1.
        -14    1    3    3    0    0  0.29946613190E+01  0.24781663789E+01  0.81006002862E+01  0.89849335008E+01  0.00000000000E+00 0.  1.
          5    1    4    4  501    0 -0.87358500955E+02  0.29325778185E+02 -0.40559833506E+02  0.10076746225E+03  0.41800000000E+01 0. -1.
         -5    1    4    4    0  501  0.17625959261E+02  0.55662965247E+02  0.30618446659E+02  0.66060592003E+02  0.41800000000E+01 0. -1.
</event>
<event>
11    1  0.8041700E-009  0.1271470E+03  0.7561462E-02  0.1122825E+00
         22   -1    0    0    0    0  0.00000000000E+00  0.00000000000E+00  0.28735419089E+03  0.28735419089E+03  0.00000000000E+00 0.  1.
         22   -1    0    0    0    0 -0.00000000000E+00 -0.00000000000E+00 -0.22415737535E+04  0.22415737535E+04  0.00000000000E+00 0.  1.
        -24    2    1    2    0    0  0.86550576468E+01 -0.20377642054E+02 -0.18546909414E+04  0.18565275530E+04  0.79535581209E+02 0.  0.
         25    2    1    2    0    0  0.66958028510E+01  0.34808972713E+02 -0.36919999464E+03  0.39142577996E+03  0.12509599041E+03 0.  0.
         24    2    1    2    0    0 -0.15350860498E+02 -0.14431330659E+02  0.26967137348E+03  0.28097461136E+03  0.76027431434E+02 0.  0.
        -13    1    5    5    0    0 -0.24337895241E+02 -0.26224696289E+02  0.26171154208E+03  0.26414579137E+03  0.00000000000E+00 0.  1.
         14    1    5    5    0    0  0.89870347428E+01  0.11793365630E+02  0.79598314042E+01  0.16828819992E+02  0.00000000000E+00 0. -1.
         11    1    3    3    0    0 -0.41248442708E+01  0.27487572037E+02 -0.38510171534E+03  0.38610349922E+03  0.00000000000E+00 0. -1.
        -12    1    3    3    0    0  0.12779901918E+02 -0.47865214090E+02 -0.14695892261E+04  0.14704240538E+04  0.00000000000E+00 0.  1.
          5    1    4    4  501    0  0.18235070589E+02 -0.45108321261E+02 -0.15282342765E+03  0.16043612712E+03  0.41800000000E+01 0. -1.
         -5    1    4    4    0  501 -0.11539267738E+02  0.79917293974E+02 -0.21637656699E+03  0.23098965284E+03  0.41800000000E+01 0. -1.
</event>
<event>
11    1  0.8041700E-009  0.1310056E+03  0.7561462E-02  0.1118040E+00
         22   -1    0    0    0    0  0.00000000000E+00  0.00000000000E+00  0.87719297880E+03  0.87719297880E+03  0.00000000000E+00 0. -1.
         22   -1    0    0    0    0 -0.00000000000E+00 -0.00000000000E+00 -0.58294421441E+03  0.58294421441E+03  0.00000000000E+00 0.  1.
         24    2    1    2    0    0  0.61593843859E+01  0.10334452531E+02 -0.52460146029E+03  0.53161036841E+03  0.85194792918E+02 0.  0.
         25    2    1    2    0    0  0.32929411926E+02 -0.13434556253E+02  0.29606571175E+02  0.13337310924E+03  0.12508798400E+03 0.  0.
        -24    2    1    2    0    0 -0.39088796312E+02  0.31001037217E+01  0.78924365351E+03  0.79515371555E+03  0.88466615781E+02 0.  0.
        -13    1    3    3    0    0  0.40225440466E+02  0.25372385315E+02 -0.33801621718E+03  0.34134558306E+03  0.00000000000E+00 0.  1.
         14    1    3    3    0    0 -0.34066056080E+02 -0.15037932783E+02 -0.18658524311E+03  0.19026478535E+03  0.00000000000E+00 0. -1.
         11    1    5    5    0    0 -0.11104239889E+02 -0.17766110602E+02  0.68302265177E+03  0.68334389707E+03  0.00000000000E+00 0. -1.
        -12    1    5    5    0    0 -0.27984556423E+02  0.20866214324E+02  0.10622100174E+03  0.11180981848E+03  0.00000000000E+00 0.  1.
          5    1    4    4  501    0 -0.43082837860E+02 -0.69412608685E+01 -0.13216447207E+02  0.45787104050E+02  0.41800000000E+01 0.  1.
         -5    1    4    4    0  501  0.76012249786E+02 -0.64932953846E+01  0.42823018382E+02  0.87586005194E+02  0.41800000000E+01 0.  1.
</event>
<event>
11    1  0.8041700E-009  0.1445598E+03  0.7561462E-02  0.1102571E+00
         22   -1    0    0    0    0  0.00000000000E+00  0.00000000000E+00  0.34496562699E+03  0.34496562699E+03  0.00000000000E+00 0.  1.
         22   -1    0    0    0    0 -0.00000000000E+00 -0.00000000000E+00 -0.41666524958E+03  0.41666524958E+03  0.00000000000E+00 0.  1.
         24    2    1    2    0    0  0.12221233483E+02  0.68732192392E+02 -0.34101740592E+03  0.35734012529E+03  0.80781317061E+02 0.  0.
         25    2    1    2    0    0 -0.41831710142E+02 -0.10770846435E+03  0.69529720847E+02  0.18393676698E+03  0.12508935566E+03 0.  0.
        -24    2    1    2    0    0  0.29610476659E+02  0.38976271955E+02  0.19978806249E+03  0.22035398430E+03  0.79023277458E+02 0.  0.
        -11    1    3    3    0    0  0.31279944786E+02  0.76176208004E+02 -0.30495212661E+03  0.31587505305E+03  0.00000000000E+00 0.  1.
         12    1    3    3    0    0 -0.19058711303E+02 -0.74440156128E+01 -0.36065279308E+02  0.41465072248E+02  0.00000000000E+00 0. -1.
         13    1    5    5    0    0  0.15973215618E+02  0.40722164850E+02  0.37884520847E+02  0.57867739260E+02  0.00000000000E+00 0. -1.
        -14    1    5    5    0    0  0.13637261041E+02 -0.17458928952E+01  0.16190354164E+03  0.16248624504E+03  0.00000000000E+00 0.  1.
          5    1    4    4  501    0 -0.20380652644E+02 -0.10371639866E+03  0.10044050671E+03  0.14587059382E+03  0.41800000000E+01 0. -1.
         -5    1    4    4    0  501 -0.21451057498E+02 -0.39920656869E+01 -0.30910785861E+02  0.38066173157E+02  0.41800000000E+01 0. -1.
</event>
<event>
11    1  0.8041700E-009  0.1533122E+03  0.7561462E-02  0.1093542E+00
         22   -1    0    0    0    0  0.00000000000E+00  0.00000000000E+00  0.50190188687E+03  0.50190188687E+03  0.00000000000E+00 0.  1.
         22   -1    0    0    0    0 -0.00000000000E+00 -0.00000000000E+00 -0.22551887591E+03  0.22551887591E+03  0.00000000000E+00 0. -1.
        -24    2    1    2    0    0  0.85790769225E+02 -0.13523890281E+02 -0.16921906694E+03  0.20602588941E+03  0.79174634812E+02 0.  0.
         25    2    1    2    0    0 -0.12408103514E+03  0.33399680937E+01  0.33291793987E+03  0.37668168180E+03  0.12508987190E+03 0.  0.
         24    2    1    2    0    0  0.38290265915E+02  0.10183922187E+02  0.11268413803E+03  0.14471319158E+03  0.81696610199E+02 0.  0.
        -13    1    5    5    0    0  0.49300597198E+02  0.31445078109E+02  0.10387143585E+03  0.11919990356E+03  0.00000000000E+00 0.  1.
         14    1    5    5    0    0 -0.11010331282E+02 -0.21261155921E+02  0.88127021761E+01  0.25513288022E+02  0.00000000000E+00 0. -1.
         13    1    3    3    0    0  0.68633803622E+02  0.25871222661E+02 -0.12047403414E+03  0.14104578002E+03  0.00000000000E+00 0. -1.
        -14    1    3    3    0    0  0.17156965603E+02 -0.39395112942E+02 -0.48745032802E+02  0.64980109382E+02  0.00000000000E+00 0.  1.
          5    1    4    4  501    0 -0.84831755369E+02 -0.32566756567E+02  0.30113394622E+03  0.31457295866E+03  0.41800000000E+01 0. -1.
         -5    1    4    4    0  501 -0.39249279771E+02  0.35906724661E+02  0.31783993641E+02  0.62108723141E+02  0.41800000000E+01 0. -1.
</event>
<event>
11    1  0.8041700E-009  0.1356685E+03  0.7561462E-02  0.1112494E+00
         22   -1    0    0    0    0  0.00000000000E+00  0.00000000000E+00  0.83517133284E+03  0.83517133284E+03  0.00000000000E+00 0.  1.
         22   -1    0    0    0    0 -0.00000000000E+00 -0.00000000000E+00 -0.25385169236E+03  0.25385169236E+03  0.00000000000E+00 0.  1.
        -24    2    1    2    0    0 -0.94221695924E+01 -0.92087331280E+01 -0.21019326164E+03  0.22470684702E+03  0.78347825828E+02 0.  0.
         25    2    1    2    0    0 -0.17130093212E+02 -0.37476824345E+02  0.98276025215E+02  0.16432353391E+03  0.12508434838E+03 0.  0.
         24    2    1    2    0    0  0.26552262805E+02  0.46685557473E+02  0.69323687691E+03  0.69999264426E+03  0.80794619744E+02 0.  0.
        -13    1    5    5    0    0 -0.18329506334E+01  0.46334093982E+02  0.61533585256E+03  0.61708056153E+03  0.00000000000E+00 0.  1.
         14    1    5    5    0    0  0.28385213438E+02  0.35146349101E+00  0.77901024355E+02  0.82912082739E+02  0.00000000000E+00 0. -1.
         13    1    3    3    0    0 -0.23519490182E+02  0.86574954137E+01 -0.17247620853E+02  0.30423659713E+02  0.00000000000E+00 0. -1.
        -14    1    3    3    0    0  0.14097320590E+02 -0.17866228542E+02 -0.19294564079E+03  0.19428318731E+03  0.00000000000E+00 0.  1.
          5    1    4    4  501    0  0.49825415552E+02 -0.65107412627E+01  0.14178701020E+02  0.52378141904E+02  0.41800000000E+01 0. -1.
         -5    1    4    4    0  501 -0.66955508765E+02 -0.30966083082E+02  0.84097324195E+02  0.11194539201E+03  0.41800000000E+01 0. -1.
</event>
<event>
11    1  0.8041700E-009  0.1869855E+03  0.7561462E-02  0.1064128E+00
         22   -1    0    0    0    0  0.00000000000E+00  0.00000000000E+00  0.33812250615E+04  0.33812250615E+04  0.00000000000E+00 0.  1.
         22   -1    0    0    0    0 -0.00000000000E+00 -0.00000000000E+00 -0.17552244916E+03  0.17552244916E+03  0.00000000000E+00 0. -1.
         24    2    1    2    0    0  0.65061000024E+02 -0.49592993820E+02 -0.43774745127E+02  0.12588556223E+03  0.85079655074E+02 0.  0.
         25    2    1    2    0    0  0.27554259444E+02 -0.56487732268E+02 -0.33317607469E+02  0.14390211550E+03  0.12509058625E+03 0.  0.
        -24    2    1    2    0    0 -0.92615259468E+02  0.10608072609E+03  0.32827949649E+04  0.32869598329E+04  0.86783954260E+02 0.  0.
        -13    1    3    3    0    0 -0.10837392125E+02 -0.35479680383E+02  0.82692332187E-01  0.37098027255E+02  0.00000000000E+00 0.  1.
         14    1    3    3    0    0  0.75898392149E+02 -0.14113313437E+02 -0.43857437459E+02  0.88787534978E+02  0.00000000000E+00 0. -1.
         13    1    5    5    0    0 -0.29075658968E+02  0.42401587944E+02  0.48467983526E+03  0.48739904730E+03  0.00000000000E+00 0. -1.
        -14    1    5    5    0    0 -0.63539600499E+02  0.63679138145E+02  0.27981151297E+04  0.27995607856E+04  0.00000000000E+00 0.  1.
          5    1    4    4  501    0 -0.21027845421E+02 -0.68214378200E+02 -0.54049936309E+02  0.89633920428E+02  0.41800000000E+01 0.  1.
         -5    1    4    4    0  501  0.48582104864E+02  0.11726645931E+02  0.20732328840E+02  0.54268195077E+02  0.41800000000E+01 0.  1.
</event>
<event>
11    1  0.8041700E-009  0.1377829E+03  0.7561462E-02  0.1110060E+00
         22   -1    0    0    0    0  0.00000000000E+00  0.00000000000E+00  0.80937295456E+03  0.80937295456E+03  0.00000000000E+00 0.  1.
         22   -1    0    0    0    0 -0.00000000000E+00 -0.00000000000E+00 -0.68833214886E+03  0.68833214886E+03  0.00000000000E+00 0. -1.
        -24    2    1    2    0    0 -0.41128373286E+02  0.26853455388E+02 -0.66477435543E+03  0.67153361037E+03  0.81362123012E+02 0.  0.
         25    2    1    2    0    0  0.24256965900E+02 -0.69223889811E+02  0.58382566866E+03  0.60156608325E+03  0.12509593846E+03 0.  0.
         24    2    1    2    0    0  0.16871407386E+02  0.42370434423E+02  0.20198949247E+03  0.22460540981E+03  0.86993890277E+02 0.  0.
        -13    1    5    5    0    0 -0.97048599518E+01 -0.91391304296E+01  0.13650340361E+03  0.13715278783E+03  0.00000000000E+00 0.  1.
         14    1    5    5    0    0  0.26576267338E+02  0.51509564853E+02  0.65486088864E+02  0.87452621983E+02  0.00000000000E+00 0. -1.
         13    1    3    3    0    0 -0.10959772268E+02  0.71706765740E+01 -0.56990964522E+03  0.57006011870E+03  0.00000000000E+00 0. -1.
        -14    1    3    3    0    0 -0.30168601018E+02  0.19682778814E+02 -0.94864710207E+02  0.10147349167E+03  0.00000000000E+00 0.  1.
          5    1    4    4  501    0 -0.41656394942E+02  0.84730712974E+01  0.19128076985E+03  0.19599197302E+03  0.41800000000E+01 0. -1.
         -5    1    4    4    0  501  0.65913360842E+02 -0.77696961108E+02  0.39254489881E+03  0.40557411022E+03  0.41800000000E+01 0. -1.
</event>
<event>
11    1  0.1542037E-008  0.1664839E+03  0.7561462E-02  0.1081133E+00
         22   -1    0    0    0    0  0.00000000000E+00  0.00000000000E+00  0.94366456633E+03  0.94366456633E+03  0.00000000000E+00 0. -1.
         22   -1    0    0    0    0 -0.00000000000E+00 -0.00000000000E+00 -0.20542904104E+03  0.20542904104E+03  0.00000000000E+00 0.  1.
         24    2    1    2    0    0 -0.68576014869E+02  0.37993322670E+02 -0.96007975302E+02  0.15469506863E+03  0.92557390598E+02 0.  0.
         25    2    1    2    0    0  0.83646349665E+02  0.72669837405E+02  0.18937606578E+02  0.16817665263E+03  0.12508851453E+03 0.  0.
        -24    2    1    2    0    0 -0.15070334796E+02 -0.11066316007E+03  0.81530589402E+03  0.82622188611E+03  0.73793321403E+02 0.  0.
        -11    1    3    3    0    0 -0.11009573893E+02  0.72504123223E+01 -0.87956744816E+02  0.88939126119E+02  0.00000000000E+00 0.  1.
         12    1    3    3    0    0 -0.57566440976E+02  0.30742910347E+02 -0.80512304861E+01  0.65755942512E+02  0.00000000000E+00 0. -1.
         11    1    5    5    0    0  0.80676646941E+01 -0.77664925162E+02  0.69439103780E+03  0.69876737273E+03  0.00000000000E+00 0. -1.
        -12    1    5    5    0    0 -0.23137999490E+02 -0.32998234912E+02  0.12091485622E+03  0.12745451338E+03  0.00000000000E+00 0.  1.
          5    1    4    4  501    0  0.62567940583E+02  0.28077596042E+02 -0.48804847218E+02  0.84276236866E+02  0.41800000000E+01 0.  1.
         -5    1    4    4    0  501  0.21078409082E+02  0.44592241363E+02  0.67742453797E+02  0.83900415765E+02  0.41800000000E+01 0.  1.
</event>
<event>
11    1  0.8041700E-009  0.1490136E+03  0.7561462E-02  0.1097891E+00
         22   -1    0    0    0    0  0.00000000000E+00  0.00000000000E+00  0.22896129239E+03  0.22896129239E+03  0.00000000000E+00 0.  1.
         22   -1    0    0    0    0 -0.00000000000E+00 -0.00000000000E+00 -0.93134451342E+03  0.93134451342E+03  0.00000000000E+00 0. -1.
         24    2    1    2    0    0 -0.14593699784E+02  0.36599570235E+02 -0.82814218139E+03  0.83364546817E+03  0.87136613386E+02 0.  0.
         25    2    1    2    0    0 -0.31250174671E+02 -0.98432464476E+02 -0.21945253701E+01  0.16223602000E+03  0.12510070649E+03 0.  0.
        -24    2    1    2    0    0  0.45843874455E+02  0.61832894240E+02  0.12795348572E+03  0.16442431764E+03  0.68835267764E+02 0.  0.
        -11    1    3    3    0    0  0.11361036652E+02 -0.17291430650E+02 -0.47674181143E+03  0.47719055051E+03  0.00000000000E+00 0.  1.
         12    1    3    3    0    0 -0.25954736435E+02  0.53891000885E+02 -0.35140036995E+03  0.35645491766E+03  0.00000000000E+00 0. -1.
         13    1    5    5    0    0  0.69640287305E+01  0.37893416217E+01 -0.81921543912E+01  0.11400359628E+02  0.00000000000E+00 0. -1.
        -14    1    5    5    0    0  0.38879845724E+02  0.58043552619E+02  0.13614564011E+03  0.15302395801E+03  0.00000000000E+00 0.  1.
          5    1    4    4  501    0  0.42705268043E+02 -0.71216728051E+02 -0.47435958680E+01  0.83279867763E+02  0.41800000000E+01 0.  1.
         -5    1    4    4    0  501 -0.73955442713E+02 -0.27215736425E+02  0.25490704979E+01  0.78956152240E+02  0.41800000000E+01 0.  1.
</event>
<event>
11    1  0.8041700E-009  0.3601838E+03  0.7561462E-02  0.9775142E-01
         22   -1    0    0    0    0  0.00000000000E+00  0.00000000000E+00  0.85347873557E+03  0.85347873557E+03  0.00000000000E+00 0. -1.
         22   -1    0    0    0    0 -0.00000000000E+00 -0.00000000000E+00 -0.15957653651E+04  0.15957653651E+04  0.00000000000E+00 0. -1.
        -24    2    1    2    0    0 -0.24810653264E+03  0.23525984554E+03 -0.14723184371E+04  0.15136838202E+04  0.81320851011E+02 0.  0.
         25    2    1    2    0    0  0.19536607074E+03 -0.21177617155E+03  0.15195622767E+03  0.34893547333E+03  0.12509284947E+03 0.  0.
         24    2    1    2    0    0  0.52740461897E+02 -0.23483673996E+02  0.57807557983E+03  0.58662480722E+03  0.81389490673E+02 0.  0.
        -13    1    5    5    0    0  0.64060046213E+02 -0.13360993147E+02  0.25733570986E+03  0.26552565456E+03  0.00000000000E+00 0.  1.
         14    1    5    5    0    0 -0.11319584316E+02 -0.10122680849E+02  0.32073986997E+03  0.32109915267E+03  0.00000000000E+00 0. -1.
         13    1    3    3    0    0 -0.23245664827E+03  0.20238280445E+03 -0.13885282929E+04  0.14223240534E+04  0.00000000000E+00 0. -1.
        -14    1    3    3    0    0 -0.15649884368E+02  0.32877041087E+02 -0.83790144180E+02  0.91359766708E+02  0.00000000000E+00 0.  1.
          5    1    4    4  501    0  0.83128849112E+02 -0.92023838115E+02  0.13581715085E+03  0.18396348334E+03  0.41800000000E+01 0. -1.
         -5    1    4    4    0  501  0.11223722163E+03 -0.11975233343E+03  0.16139076816E+02  0.16497198999E+03  0.41800000000E+01 0. -1.
</event>
<event>
11    1  0.8041700E-009  0.1383441E+03  0.7561462E-02  0.1109422E+00
         22   -1    0    0    0    0  0.00000000000E+00  0.00000000000E+00  0.16918655777E+03  0.16918655777E+03  0.00000000000E+00 0. -1.
         22   -1    0    0    0    0 -0.00000000000E+00 -0.00000000000E+00 -0.68393899222E+03  0.68393899222E+03  0.00000000000E+00 0. -1.
         24    2    1    2    0    0  0.14310732037E+02 -0.56834867479E+02 -0.54623860872E+03  0.55517298166E+03  0.80033884688E+02 0.  0.
         25    2    1    2    0    0 -0.48185209154E+02  0.52955098929E+02 -0.73097039595E+02  0.16160161421E+03  0.12508336274E+03 0.  0.
        -24    2    1    2    0    0  0.33874477117E+02  0.38797685497E+01  0.10458321385E+03  0.13635095412E+03  0.80569232741E+02 0.  0.
        -11    1    3    3    0    0 -0.18046097050E+00 -0.12881841401E+02 -0.84731503118E+01  0.15419749682E+02  0.00000000000E+00 0.  1.
         12    1    3    3    0    0  0.14491193008E+02 -0.43953026078E+02 -0.53776545841E+03  0.53975323198E+03  0.00000000000E+00 0. -1.
         11    1    5    5    0    0  0.11116336172E+02 -0.88927477328E+01  0.10896272361E+03  0.10988871201E+03  0.00000000000E+00 0. -1.
        -12    1    5    5    0    0  0.22758140944E+02  0.12772516283E+02 -0.43795097529E+01  0.26462242103E+02  0.00000000000E+00 0.  1.
          5    1    4    4  501    0 -0.82035100955E+02  0.57064887251E+02 -0.78082834647E+02  0.12688798451E+03  0.41800000000E+01 0. -1.
         -5    1    4    4    0  501  0.33849891801E+02 -0.41097883217E+01  0.49857950524E+01  0.34713629705E+02  0.41800000000E+01 0. -1.
</event>
<event>
11    1  0.8041700E-009  0.1259087E+03  0.7561462E-02  0.1124401E+00
         22   -1    0    0    0    0  0.00000000000E+00  0.00000000000E+00  0.14624169094E+03  0.14624169094E+03  0.00000000000E+00 0. -1.
         22   -1    0    0    0    0 -0.00000000000E+00 -0.00000000000E+00 -0.56128598679E+03  0.56128598679E+03  0.00000000000E+00 0.  1.
        -24    2    1    2    0    0 -0.38412870841E+01 -0.11701651947E+02 -0.45093863592E+03  0.45905841415E+03  0.85072263895E+02 0.  0.
         25    2    1    2    0    0  0.41309757711E+00  0.40525980242E+02 -0.37613559468E+02  0.13676526665E+03  0.12508969814E+03 0.  0.
         24    2    1    2    0    0  0.34281895070E+01 -0.28824328295E+02  0.73507899543E+02  0.11170399694E+03  0.78941606594E+02 0.  0.
        -11    1    5    5    0    0 -0.28418610304E+02 -0.42632814698E+01  0.95809821189E+00  0.28752581322E+02  0.00000000000E+00 0.  1.
         12    1    5    5    0    0  0.31846799811E+02 -0.24561046825E+02  0.72549801331E+02  0.82951415615E+02  0.00000000000E+00 0. -1.
         11    1    3    3    0    0  0.17834125998E+02 -0.79639933106E+01 -0.21462099678E+02  0.29019010358E+02  0.00000000000E+00 0. -1.
        -12    1    3    3    0    0 -0.21675413082E+02 -0.37376586367E+01 -0.42947653625E+03  0.43003940379E+03  0.00000000000E+00 0.  1.
          5    1    4    4  501    0  0.16398586347E+02  0.83631631607E+02 -0.24628041911E+02  0.88809775857E+02  0.41800000000E+01 0.  1.
         -5    1    4    4    0  501 -0.15985488770E+02 -0.43105651365E+02 -0.12985517558E+02  0.47955490791E+02  0.41800000000E+01 0.  1.
</event>
<event>
11    1  0.8041700E-009  0.1386691E+03  0.7561462E-02  0.1109054E+00
         22   -1    0    0    0    0  0.00000000000E+00  0.00000000000E+00  0.10182599493E+03  0.10182599493E+03  0.00000000000E+00 0. -1.
         22   -1    0    0    0    0 -0.00000000000E+00 -0.00000000000E+00 -0.15295037212E+04  0.15295037212E+04  0.00000000000E+00 0.  1.
         24    2    1    2    0    0 -0.36667559103E+00  0.11274112505E+02 -0.13881503171E+04  0.13904338083E+04  0.78851965380E+02 0.  0.
         25    2    1    2    0    0  0.57362103228E+02  0.10612070986E+02 -0.36870516879E+02  0.14286311624E+03  0.12508960000E+03 0.  0.
        -24    2    1    2    0    0 -0.56995427637E+02 -0.21886183490E+02 -0.26568922856E+01  0.98032791552E+02  0.76654323710E+02 0.  0.
        -13    1    3    3    0    0 -0.22292089973E+02  0.28119350689E+02 -0.11683978950E+04  0.11689487911E+04  0.00000000000E+00 0.  1.
         14    1    3    3    0    0  0.21925414382E+02 -0.16845238185E+02 -0.21975242203E+03  0.22148501718E+03  0.00000000000E+00 0. -1.
         13    1    5    5    0    0 -0.71867603090E+02 -0.20424527085E+02  0.13610671514E+02  0.75943163350E+02  0.00000000000E+00 0. -1.
        -14    1    5    5    0    0  0.14872175452E+02 -0.14616564057E+01 -0.16267563799E+02  0.22089628202E+02  0.00000000000E+00 0.  1.
          5    1    4    4  501    0  0.96579592485E+02  0.96885312092E+01 -0.35342747067E+02  0.10338311028E+03  0.41800000000E+01 0.  1.
         -5    1    4    4    0  501 -0.39217489257E+02  0.92353977648E+00 -0.15277698113E+01  0.39480005952E+02  0.41800000000E+01 0.  1.
</event>
<event>
11    1  0.8041700E-009  0.1815472E+03  0.7561462E-02  0.1068398E+00
         22   -1    0    0    0    0  0.00000000000E+00  0.00000000000E+00  0.61966814523E+03  0.61966814523E+03  0.00000000000E+00 0.  1.
         22   -1    0    0    0    0 -0.00000000000E+00 -0.00000000000E+00 -0.18731800568E+03  0.18731800568E+03  0.00000000000E+00 0.  1.
        -24    2    1    2    0    0 -0.76608909984E+02 -0.10905455514E+03 -0.11637896866E+03  0.19842603216E+03  0.89816506305E+02 0.  0.
         25    2    1    2    0    0  0.60650287572E+02  0.10182986672E+03  0.29973714379E+03  0.34574161514E+03  0.12508848843E+03 0.  0.
         24    2    1    2    0    0  0.15958622412E+02  0.72246884205E+01  0.24899196442E+03  0.26281850361E+03  0.82278148619E+02 0.  0.
        -11    1    5    5    0    0 -0.31783771603E+02  0.69177796369E+01  0.14166552095E+03  0.14535193029E+03  0.00000000000E+00 0.  1.
         12    1    5    5    0    0  0.47742394015E+02  0.30690878361E+00  0.10732644347E+03  0.11746657332E+03  0.00000000000E+00 0. -1.
         11    1    3    3    0    0  0.84768037598E+01 -0.61980171861E+02 -0.35372185632E+02  0.71865077905E+02  0.00000000000E+00 0. -1.
        -12    1    3    3    0    0 -0.85085713744E+02 -0.47074383281E+02 -0.81006783025E+02  0.12656095425E+03  0.00000000000E+00 0.  1.
          5    1    4    4  501    0 -0.24556578434E+02 -0.15112354422E+00  0.97930760655E+01  0.26766118910E+02  0.41800000000E+01 0. -1.
         -5    1    4    4    0  501  0.85206866005E+02  0.10198099027E+03  0.28994406772E+03  0.31897549623E+03  0.41800000000E+01 0. -1.
</event>
<event>
11    1  0.8041700E-009  0.1509795E+03  0.7561462E-02  0.1095882E+00
         22   -1    0    0    0    0  0.00000000000E+00  0.00000000000E+00  0.74538236063E+03  0.74538236063E+03  0.00000000000E+00 0.  1.
         22   -1    0    0    0    0 -0.00000000000E+00 -0.00000000000E+00 -0.16817410323E+03  0.16817410323E+03  0.00000000000E+00 0. -1.
        -24    2    1    2    0    0  0.75453673158E+02 -0.41793994142E+02 -0.11828978321E+03  0.16700330111E+03  0.80359411577E+02 0.  0.
         25    2    1    2    0    0 -0.45829099259E+02  0.55907246633E+02  0.21952253443E+03  0.26279976476E+03  0.12509055388E+03 0.  0.
         24    2    1    2    0    0 -0.29624573899E+02 -0.14113252492E+02  0.47597550619E+03  0.48375339799E+03  0.79924140919E+02 0.  0.
        -13    1    5    5    0    0 -0.38037346304E+02  0.25563739743E+02  0.25612481480E+03  0.26019274637E+03  0.00000000000E+00 0.  1.
         14    1    5    5    0    0  0.84127724053E+01 -0.39676992235E+02  0.21985069139E+03  0.22356065163E+03  0.00000000000E+00 0. -1.
         13    1    3    3    0    0  0.65160165552E+02 -0.12858582794E+02 -0.28803614397E+02  0.72393635967E+02  0.00000000000E+00 0. -1.
        -14    1    3    3    0    0  0.10293507606E+02 -0.28935411348E+02 -0.89486168815E+02  0.94609665140E+02  0.00000000000E+00 0.  1.
          5    1    4    4  501    0 -0.13256183866E+02 -0.35050205885E+02  0.24073178565E+02  0.44735150268E+02  0.41800000000E+01 0. -1.
         -5    1    4    4    0  501 -0.32572915394E+02  0.90957452518E+02  0.19544935586E+03  0.21806461449E+03  0.41800000000E+01 0. -1.
</event>
<event>
11    1  0.8041700E-009  0.1660787E+03  0.7561462E-02  0.1081495E+00
         22   -1    0    0    0    0  0.00000000000E+00  0.00000000000E+00  0.22385530070E+04  0.22385530070E+04  0.00000000000E+00 0. -1.
         22   -1    0    0    0    0 -0.00000000000E+00 -0.00000000000E+00 -0.17913976815E+03  0.17913976815E+03  0.00000000000E+00 0.  1.
        -24    2    1    2    0    0 -0.21999643545E+02 -0.16898479745E+02 -0.13234642152E+03  0.15757071583E+03  0.80891360877E+02 0.  0.
         25    2    1    2    0    0 -0.42893181413E+02  0.10473347609E+03  0.19115565529E+03  0.25494005345E+03  0.12508005549E+03 0.  0.
         24    2    1    2    0    0  0.64892824958E+02 -0.87834996342E+02  0.20006040051E+04  0.20051820059E+04  0.80077625560E+02 0.  0.
        -11    1    5    5    0    0  0.65225075353E+02 -0.29885281021E+02  0.81100148955E+03  0.81416881329E+03  0.00000000000E+00 0.  1.
         12    1    5    5    0    0 -0.33225039493E+00 -0.57949715321E+02  0.11896025155E+04  0.11910131926E+04  0.00000000000E+00 0. -1.
         13    1    3    3    0    0 -0.32500577135E+02  0.25218081527E+02 -0.52590160951E+02  0.66767987680E+02  0.00000000000E+00 0. -1.
        -14    1    3    3    0    0  0.10500933590E+02 -0.42116561272E+02 -0.79756260572E+02  0.90802728153E+02  0.00000000000E+00 0.  1.
          5    1    4    4  501    0  0.40440977001E+02  0.24330115745E+02  0.28702598344E+02  0.55396197565E+02  0.41800000000E+01 0. -1.
         -5    1    4    4    0  501 -0.83334158414E+02  0.80403360341E+02  0.16245305694E+03  0.19954385589E+03  0.41800000000E+01 0. -1.
</event>
<event>
11    1  0.8041700E-009  0.1340006E+03  0.7561462E-02  0.1114449E+00
         22   -1    0    0    0    0  0.00000000000E+00  0.00000000000E+00  0.21717283480E+03  0.21717283480E+03  0.00000000000E+00 0. -1.
         22   -1    0    0    0    0 -0.00000000000E+00 -0.00000000000E+00 -0.14794383821E+04  0.14794383821E+04  0.00000000000E+00 0.  1.
        -24    2    1    2    0    0 -0.35908714201E+02 -0.26710194681E+00 -0.10651897608E+04  0.10689984078E+04  0.82697414495E+02 0.  0.
         25    2    1    2    0    0 -0.55969631961E+01 -0.25397323117E+02 -0.39210346855E+03  0.41239399670E+03  0.12508928189E+03 0.  0.
         24    2    1    2    0    0  0.41505677397E+02  0.25664425064E+02  0.19502768202E+03  0.21521881238E+03  0.76824192001E+02 0.  0.
        -11    1    5    5    0    0  0.57965556798E+02  0.33368936003E+02  0.11394863353E+03  0.13212790299E+03  0.00000000000E+00 0.  1.
         12    1    5    5    0    0 -0.16459879401E+02 -0.77045109393E+01  0.81079048494E+02  0.83090909391E+02  0.00000000000E+00 0. -1.
         13    1    3    3    0    0  0.43537790190E+01 -0.14801581287E+02 -0.39359366516E+02  0.42275311151E+02  0.00000000000E+00 0. -1.
        -14    1    3    3    0    0 -0.40262493220E+02  0.14534479340E+02 -0.10258303943E+04  0.10267230967E+04  0.00000000000E+00 0.  1.
          5    1    4    4  501    0  0.14748576127E+02 -0.19436147714E+02 -0.57193000266E+01  0.25406045117E+02  0.41800000000E+01 0.  1.
         -5    1    4    4    0  501 -0.20345539323E+02 -0.59611754035E+01 -0.38638416853E+03  0.38698795158E+03  0.41800000000E+01 0.  1.
</event>
<event>
11    1  0.8041700E-009  0.1715190E+03  0.7561462E-02  0.1076717E+00
         22   -1    0    0    0    0  0.00000000000E+00  0.00000000000E+00  0.11592418901E+03  0.11592418901E+03  0.00000000000E+00 0. -1.
         22   -1    0    0    0    0 -0.00000000000E+00 -0.00000000000E+00 -0.11820985406E+04  0.11820985406E+04  0.00000000000E+00 0. -1.
        -24    2    1    2    0    0 -0.10286282312E+02  0.30065357049E+02 -0.63057321198E+03  0.63744653705E+03  0.87782564485E+02 0.  0.
         25    2    1    2    0    0 -0.10794963589E+03 -0.32156490094E+02 -0.48123995748E+03  0.50982901875E+03  0.12508624201E+03 0.  0.
         24    2    1    2    0    0  0.11823591820E+03  0.20911330453E+01  0.45638817861E+02  0.15074717383E+03  0.81594751857E+02 0.  0.
        -11    1    5    5    0    0  0.51246490816E+02 -0.38562857882E+02  0.10996345568E+02  0.65070857109E+02  0.00000000000E+00 0.  1.
         12    1    5    5    0    0  0.66989427385E+02  0.40653990928E+02  0.34642472293E+02  0.85676316717E+02  0.00000000000E+00 0. -1.
         13    1    3    3    0    0 -0.39900510976E+02  0.13687172889E+02 -0.52247000199E+03  0.52417009878E+03  0.00000000000E+00 0. -1.
        -14    1    3    3    0    0  0.29614228664E+02  0.16378184160E+02 -0.10810320999E+03  0.11327643827E+03  0.00000000000E+00 0.  1.
          5    1    4    4  501    0 -0.11253177079E+03 -0.15238268446E+02 -0.47824798113E+03  0.49156302558E+03  0.41800000000E+01 0.  1.
         -5    1    4    4    0  501  0.45821348984E+01 -0.16918221648E+02 -0.29919763472E+01  0.18265993168E+02  0.41800000000E+01 0.  1.
</event>
<event>
11    1  0.8041700E-009  0.1369990E+03  0.7561462E-02  0.1110957E+00
         22   -1    0    0    0    0  0.00000000000E+00  0.00000000000E+00  0.70028414700E+03  0.70028414700E+03  0.00000000000E+00 0.  1.
         22   -1    0    0    0    0 -0.00000000000E+00 -0.00000000000E+00 -0.73751327817E+03  0.73751327817E+03  0.00000000000E+00 0. -1.
         24    2    1    2    0    0  0.28645498213E+02 -0.24986669192E+02 -0.50363342469E+03  0.51125225776E+03  0.79292789044E+02 0.  0.
         25    2    1    2    0    0 -0.43676087915E+01  0.75070499802E+02 -0.20161865921E+03  0.24890111530E+03  0.12508807101E+03 0.  0.
        -24    2    1    2    0    0 -0.24277889421E+02 -0.50083830611E+02  0.66802295272E+03  0.67764405213E+03  0.99242077850E+02 0.  0.
        -13    1    3    3    0    0  0.14963936241E+02  0.11550863914E+02 -0.26637511221E+02  0.32663417596E+02  0.00000000000E+00 0.  1.
         14    1    3    3    0    0  0.13681561972E+02 -0.36537533106E+02 -0.47699591346E+03  0.47858884016E+03  0.00000000000E+00 0. -1.
         13    1    5    5    0    0 -0.39637056621E+02  0.18053989452E+02  0.23011786098E+03  0.23420348575E+03  0.00000000000E+00 0. -1.
        -14    1    5    5    0    0  0.15359167200E+02 -0.68137820063E+02  0.43790509174E+03  0.44344056638E+03  0.00000000000E+00 0.  1.
          5    1    4    4  501    0 -0.31316931245E+02  0.45778196549E+02 -0.20133582170E+03  0.20887790443E+03  0.41800000000E+01 0. -1.
         -5    1    4    4    0  501  0.26949322454E+02  0.29292303253E+02 -0.28283750746E+00  0.40023210861E+02  0.41800000000E+01 0. -1.
</event>
<event>
11    1  0.8041700E-009  0.1970178E+03  0.7561462E-02  0.1056653E+00
         22   -1    0    0    0    0  0.00000000000E+00  0.00000000000E+00  0.56866889009E+03  0.56866889009E+03  0.00000000000E+00 0.  1.
         22   -1    0    0    0    0 -0.00000000000E+00 -0.00000000000E+00 -0.15171264848E+04  0.15171264848E+04  0.00000000000E+00 0. -1.
         24    2    1    2    0    0  0.11414000296E+02 -0.15108364268E+03 -0.13988704048E+04  0.14100172342E+04  0.91398276455E+02 0.  0.
         25    2    1    2    0    0  0.34341887983E+02  0.16797164575E+03 -0.33362706523E+01  0.21225638071E+03  0.12509117238E+03 0.  0.
        -24    2    1    2    0    0 -0.45755888278E+02 -0.16888003068E+02  0.45374908079E+03  0.46352175990E+03  0.81150401265E+02 0.  0.
        -11    1    3    3    0    0 -0.97707552152E+01 -0.49433095292E+02 -0.18582114287E+03  0.19253206410E+03  0.00000000000E+00 0.  1.
         12    1    3    3    0    0  0.21184755511E+02 -0.10165054739E+03 -0.12130492619E+04  0.12174851701E+04  0.00000000000E+00 0. -1.
         11    1    5    5    0    0  0.72606515805E+01  0.20969812246E+02  0.52179853368E+02  0.56702620615E+02  0.00000000000E+00 0. -1.
        -12    1    5    5    0    0 -0.53016539859E+02 -0.37857815314E+02  0.40156922742E+03  0.40681913928E+03  0.00000000000E+00 0.  1.
          5    1    4    4  501    0  0.50281726285E+01  0.16351334625E+03 -0.36405377896E+02  0.16764462670E+03  0.41800000000E+01 0. -1.
         -5    1    4    4    0  501  0.29313715354E+02  0.44582994993E+01  0.33069107244E+02  0.44611754014E+02  0.41800000000E+01 0. -1.
</event>
<event>
11    1  0.8041700E-009  0.1664823E+03  0.7561462E-02  0.1081134E+00
         22   -1    0    0    0    0  0.00000000000E+00  0.00000000000E+00  0.17802746112E+03  0.17802746112E+03  0.00000000000E+00 0.  1.
         22   -1    0    0    0    0 -0.00000000000E+00 -0.00000000000E+00 -0.61408232185E+03  0.61408232185E+03  0.00000000000E+00 0.  1.
         24    2    1    2    0    0 -0.35760533057E+02  0.23609147074E+02 -0.44844809084E+03  0.45689940021E+03  0.76257223809E+02 0.  0.
         25    2    1    2    0    0 -0.81766988788E+02 -0.28935873205E+02 -0.77865213740E+02  0.17097809301E+03  0.12508953419E+03 0.  0.
        -24    2    1    2    0    0  0.11752752184E+03  0.53267261312E+01  0.90258443848E+02  0.16423228975E+03  0.70601458271E+02 0.  0.
        -11    1    3    3    0    0 -0.28906415045E+02  0.46489700859E+02 -0.38898897651E+03  0.39282222056E+03  0.00000000000E+00 0.  1.
         12    1    3    3    0    0 -0.68541180117E+01 -0.22880553785E+02 -0.59459114325E+02  0.64077179647E+02  0.00000000000E+00 0. -1.
         11    1    5    5    0    0 -0.57567187656E+01 -0.74391726636E+01 -0.21290596597E+01  0.96443763873E+01  0.00000000000E+00 0. -1.
        -12    1    5    5    0    0  0.12328424061E+03  0.12765898795E+02  0.92387503507E+02  0.15458791337E+03  0.00000000000E+00 0.  1.
          5    1    4    4  501    0 -0.66547028246E+02 -0.43988627437E+02 -0.10765688375E+03  0.13405589629E+03  0.41800000000E+01 0.  1.
         -5    1    4    4    0  501 -0.15219960542E+02  0.15052754231E+02  0.29791670005E+02  0.36922196718E+02  0.41800000000E+01 0.  1.
</event>
<event>
11    1  0.8041700E-009  0.2050973E+03  0.7561462E-02  0.1050977E+00
         22   -1    0    0    0    0  0.00000000000E+00  0.00000000000E+00  0.35267964096E+04  0.35267964096E+04  0.00000000000E+00 0. -1.
         22   -1    0    0    0    0 -0.00000000000E+00 -0.00000000000E+00 -0.65971295569E+03  0.65971295569E+03  0.00000000000E+00 0.  1.
         24    2    1    2    0    0  0.15012609123E+03 -0.63609744814E+02 -0.61842624902E+03  0.64532671801E+03  0.86090095837E+02 0.  0.
         25    2    1    2    0    0 -0.18534024416E+03 -0.82548561895E+02  0.54110390436E+03  0.59128124362E+03  0.12511915349E+03 0.  0.
        -24    2    1    2    0    0  0.35214152932E+02  0.14615830671E+03  0.29444057986E+04  0.29499014037E+04  0.98946942219E+02 0.  0.
        -11    1    3    3    0    0  0.71778994923E+02 -0.57645174112E+02 -0.20823082237E+03  0.22767359442E+03  0.00000000000E+00 0.  1.
         12    1    3    3    0    0  0.78347096306E+02 -0.59645707016E+01 -0.41019542665E+03  0.41765312360E+03  0.00000000000E+00 0. -1.
         13    1    5    5    0    0 -0.21162095745E+01  0.12001975522E+03  0.25584538667E+04  0.25612683202E+04  0.00000000000E+00 0. -1.
        -14    1    5    5    0    0  0.37330362506E+02  0.26138551484E+02  0.38595193193E+03  0.38863308351E+03  0.00000000000E+00 0.  1.
          5    1    4    4  501    0 -0.20106425435E+03 -0.70350635551E+02  0.52009457360E+03  0.56204259998E+03  0.41800000000E+01 0. -1.
         -5    1    4    4    0  501  0.15724010184E+02 -0.12197926344E+02  0.21009330753E+02  0.29238643642E+02  0.41800000000E+01 0. -1.
</event>
<event>
11    1  0.8041700E-009  0.2717333E+03  0.7561462E-02  0.1012919E+00
         22   -1    0    0    0    0  0.00000000000E+00  0.00000000000E+00  0.97730980752E+03  0.97730980752E+03  0.00000000000E+00 0.  1.
         22   -1    0    0    0    0 -0.00000000000E+00 -0.00000000000E+00 -0.15439333109E+04  0.15439333109E+04  0.00000000000E+00 0.  1.
         24    2    1    2    0    0  0.22291240237E+03  0.30571484657E+02 -0.75556699085E+03  0.79235782806E+03  0.79529209860E+02 0.  0.
         25    2    1    2    0    0 -0.27265968481E+03  0.14101411994E+03 -0.72324667243E+03  0.79558853627E+03  0.12508830527E+03 0.  0.
        -24    2    1    2    0    0  0.49747282447E+02 -0.17158560459E+03  0.91219015994E+03  0.93329675405E+03  0.83878074619E+02 0.  0.
        -13    1    3    3    0    0  0.10262988333E+03 -0.13137168946E+02 -0.43619543491E+03  0.44829893553E+03  0.00000000000E+00 0.  1.
         14    1    3    3    0    0  0.12028251903E+03  0.43708653603E+02 -0.31937155594E+03  0.34405889253E+03  0.00000000000E+00 0. -1.
         11    1    5    5    0    0  0.40657980217E+02 -0.10258810524E+03  0.35442741206E+03  0.37120908005E+03  0.00000000000E+00 0. -1.
        -12    1    5    5    0    0  0.90893022305E+01 -0.68997499353E+02  0.55776274789E+03  0.56208767400E+03  0.00000000000E+00 0.  1.
          5    1    4    4  501    0 -0.84316322900E+02  0.20807963815E+00 -0.29692861040E+03  0.30869622233E+03  0.41800000000E+01 0. -1.
         -5    1    4    4    0  501 -0.18834336191E+03  0.14080604030E+03 -0.42631806203E+03  0.48689231394E+03  0.41800000000E+01 0. -1.
</event>
<event>
11    1  0.8041700E-009  0.1839950E+03  0.7561462E-02  0.1066456E+00
         22   -1    0    0    0    0  0.00000000000E+00  0.00000000000E+00  0.38543029738E+03  0.38543029738E+03  0.00000000000E+00 0. -1.
         22   -1    0    0    0    0 -0.00000000000E+00 -0.00000000000E+00 -0.16809720237E+04  0.16809720237E+04  0.00000000000E+00 0.  1.
        -24    2    1    2    0    0  0.12136364904E+03 -0.37393834402E+02 -0.12582419742E+04  0.12671970463E+04  0.80548459739E+02 0.  0.
         25    2    1    2    0    0 -0.17531840640E+03  0.84973736217E+02 -0.37684700513E+03  0.44228693391E+03  0.12508791774E+03 0.  0.
         24    2    1    2    0    0  0.53954757354E+02 -0.47579901814E+02  0.33954725303E+03  0.35691834085E+03  0.83206983486E+02 0.  0.
        -11    1    5    5    0    0  0.40781796146E+02 -0.59363595838E+02  0.14838006221E+03  0.16493584895E+03  0.00000000000E+00 0.  1.
         12    1    5    5    0    0  0.13172961208E+02  0.11783694024E+02  0.19116719082E+03  0.19198249190E+03  0.00000000000E+00 0. -1.
         13    1    3    3    0    0  0.65812074788E+02 -0.28580201150E+02 -0.35348232890E+03  0.36069074555E+03  0.00000000000E+00 0. -1.
        -14    1    3    3    0    0  0.55551574255E+02 -0.88136332528E+01 -0.90475964535E+03  0.90650630079E+03  0.00000000000E+00 0.  1.
          5    1    4    4  501    0 -0.35166751390E+00 -0.23713748443E+02 -0.26118756256E+02  0.35526431901E+02  0.41800000000E+01 0.  1.
         -5    1    4    4    0  501 -0.17496673888E+03  0.10868748466E+03 -0.35072824887E+03  0.40676050201E+03  0.41800000000E+01 0.  1.
</event>
<event>
11    1  0.8041700E-009  0.1387387E+03  0.7561462E-02  0.1108975E+00
         22   -1    0    0    0    0  0.00000000000E+00  0.00000000000E+00  0.12235862391E+03  0.12235862391E+03  0.00000000000E+00 0. -1.
         22   -1    0    0    0    0 -0.00000000000E+00 -0.00000000000E+00 -0.22097117229E+04  0.22097117229E+04  0.00000000000E+00 0. -1.
         24    2    1    2    0    0  0.46929648214E+02 -0.38538671405E+00 -0.20273284225E+04  0.20294824776E+04  0.80845862776E+02 0.  0.
         25    2    1    2    0    0 -0.50386119429E+02  0.58729488947E+02 -0.10363448758E+03  0.17993133916E+03  0.12508903187E+03 0.  0.
        -24    2    1    2    0    0  0.34564712151E+01 -0.58344102233E+02  0.43609811129E+02  0.12265653008E+03  0.98624678892E+02 0.  0.
        -11    1    3    3    0    0  0.31028976798E+02  0.12836255434E+02 -0.27644508471E+03  0.27847702188E+03  0.00000000000E+00 0.  1.
         12    1    3    3    0    0  0.15900671415E+02 -0.13221642148E+02 -0.17508833378E+04  0.17510054557E+04  0.00000000000E+00 0. -1.
         11    1    5    5    0    0  0.22035275593E+02 -0.46710383365E+02  0.70859659068E+02  0.87684118105E+02  0.00000000000E+00 0. -1.
        -12    1    5    5    0    0 -0.18578804378E+02 -0.11633718867E+02 -0.27249847939E+02  0.34972411977E+02  0.00000000000E+00 0.  1.
          5    1    4    4  501    0  0.15209050823E+02  0.31129673451E+02  0.17756966624E+02  0.39155511231E+02  0.41800000000E+01 0. -1.
         -5    1    4    4    0  501 -0.65595170252E+02  0.27599815496E+02 -0.12139145420E+03  0.14077582793E+03  0.41800000000E+01 0. -1.
</event>
<event>
11    1  0.8041700E-009  0.2863634E+03  0.7561462E-02  0.1006134E+00
         22   -1    0    0    0    0  0.00000000000E+00  0.00000000000E+00  0.15535398593E+04  0.15535398593E+04  0.00000000000E+00 0.  1.
         22   -1    0    0    0    0 -0.00000000000E+00 -0.00000000000E+00 -0.61109983231E+03  0.61109983231E+03  0.00000000000E+00 0. -1.
        -24    2    1    2    0    0 -0.20884728721E+03  0.15775269168E+03 -0.53953574886E+03  0.60333254102E+03  0.66394500078E+02 0.  0.
         25    2    1    2    0    0  0.21237336668E+03 -0.48934822125E+02  0.40930053082E+03  0.48028186325E+03  0.12508668972E+03 0.  0.
         24    2    1    2    0    0 -0.35260794626E+01 -0.10881786955E+03  0.10726752450E+04  0.10810252874E+04  0.78292583410E+02 0.  0.
        -13    1    5    5    0    0 -0.93101807453E+01 -0.17622388994E+02  0.55425721373E+03  0.55461544067E+03  0.00000000000E+00 0.  1.
         14    1    5    5    0    0  0.57841012827E+01 -0.91195480560E+02  0.51841803131E+03  0.52640984669E+03  0.00000000000E+00 0. -1.
         13    1    3    3    0    0 -0.18461802612E+03  0.11334740660E+03 -0.39978207596E+03  0.45470557332E+03  0.00000000000E+00 0. -1.
        -14    1    3    3    0    0 -0.24229261091E+02  0.44405285082E+02 -0.13975367290E+03  0.14862696770E+03  0.00000000000E+00 0.  1.
          5    1    4    4  501    0  0.20616242961E+02 -0.49839959319E+02  0.13625167851E+03  0.14659823776E+03  0.41800000000E+01 0.  1.
         -5    1    4    4    0  501  0.19175712372E+03  0.90513719346E+00  0.27304885231E+03  0.33368362549E+03  0.41800000000E+01 0.  1.
</event>
<event>
11    1  0.8041700E-009  0.1296909E+03  0.7561462E-02  0.1119649E+00
         22   -1    0    0    0    0  0.00000000000E+00  0.00000000000E+00  0.19018454020E+04  0.19018454020E+04  0.00000000000E+00 0. -1.
         22   -1    0    0    0    0 -0.00000000000E+00 -0.00000000000E+00 -0.10588983501E+03  0.10588983501E+03  0.00000000000E+00 0.  1.
        -24    2    1    2    0    0 -0.28692865759E+02  0.17862946456E+02 -0.79077144211E+02  0.11750977256E+03  0.80081124555E+02 0.  0.
         25    2    1    2    0    0  0.45558670380E+02 -0.27292742186E+02  0.77012382312E+03  0.78202097071E+03  0.12508241075E+03 0.  0.
         24    2    1    2    0    0 -0.16865804620E+02  0.94297957297E+01  0.11049088881E+04  0.11082044937E+04  0.83187574577E+02 0.  0.
        -11    1    5    5    0    0 -0.60955824374E+01 -0.78462581916E+01  0.14341040317E+02  0.17446642377E+02  0.00000000000E+00 0.  1.
         12    1    5    5    0    0 -0.10770222183E+02  0.17276053921E+02  0.10905678478E+04  0.10907578514E+04  0.00000000000E+00 0. -1.
         11    1    3    3    0    0  0.20295980373E+02  0.28101303815E+02 -0.45676036642E+02  0.57340303615E+02  0.00000000000E+00 0. -1.
        -12    1    3    3    0    0 -0.48988846132E+02 -0.10238357358E+02 -0.33401107569E+02  0.60169468949E+02  0.00000000000E+00 0.  1.
          5    1    4    4  501    0  0.71317746577E+02 -0.38844411233E+02  0.71804916324E+03  0.72263904025E+03  0.41800000000E+01 0. -1.
         -5    1    4    4    0  501 -0.25759076197E+02  0.11551669047E+02  0.52074659874E+02  0.59381930461E+02  0.41800000000E+01 0. -1.
</event>
<event>
11    1  0.8041700E-009  0.1381745E+03  0.7561462E-02  0.1109614E+00
         22   -1    0    0    0    0  0.00000000000E+00  0.00000000000E+00  0.21466642948E+03  0.21466642948E+03  0.00000000000E+00 0.  1.
         22   -1    0    0    0    0 -0.00000000000E+00 -0.00000000000E+00 -0.54293644628E+03  0.54293644628E+03  0.00000000000E+00 0.  1.
         24    2    1    2    0    0 -0.47878699482E+02 -0.31694812320E+02 -0.45305697599E+03  0.46438015425E+03  0.84210291410E+02 0.  0.
         25    2    1    2    0    0  0.62165550930E+02  0.42416981355E+02  0.19706177988E+01  0.14599902220E+03  0.12509226642E+03 0.  0.
        -24    2    1    2    0    0 -0.14286851448E+02 -0.10722169035E+02  0.12281634139E+03  0.14722369930E+03  0.79195232759E+02 0.  0.
        -13    1    3    3    0    0 -0.66946422761E+02 -0.35271002080E+02 -0.27338795667E+03  0.28366677980E+03  0.00000000000E+00 0.  1.
         14    1    3    3    0    0  0.19067723278E+02  0.35761897596E+01 -0.17966901931E+03  0.18071337445E+03  0.00000000000E+00 0. -1.
         13    1    5    5    0    0 -0.88068060829E+01 -0.29021162634E+02  0.87444109285E+01  0.31563466801E+02  0.00000000000E+00 0. -1.
        -14    1    5    5    0    0 -0.54800453650E+01  0.18298993599E+02  0.11407193046E+03  0.11566023250E+03  0.00000000000E+00 0.  1.
          5    1    4    4  501    0 -0.36400747223E+02  0.25184816400E+02  0.98572956485E+01  0.45540400229E+02  0.41800000000E+01 0. -1.
         -5    1    4    4    0  501  0.98566298154E+02  0.17232164955E+02 -0.78866778498E+01  0.10045862197E+03  0.41800000000E+01 0. -1.
</event>
<event>
11    1  0.8041700E-009  0.1467260E+03  0.7561462E-02  0.1100272E+00
         22   -1    0    0    0    0  0.00000000000E+00  0.00000000000E+00  0.24242390364E+03  0.24242390364E+03  0.00000000000E+00 0. -1.
         22   -1    0    0    0    0 -0.00000000000E+00 -0.00000000000E+00 -0.11366242753E+04  0.11366242753E+04  0.00000000000E+00 0.  1.
         24    2    1    2    0    0  0.24949365433E+02 -0.75202354927E+02 -0.95006302818E+03  0.95682903590E+03  0.81389074242E+02 0.  0.
         25    2    1    2    0    0  0.40177639190E+01  0.59542938320E+02 -0.14484413863E+03  0.20047778489E+03  0.12510001522E+03 0.  0.
        -24    2    1    2    0    0 -0.28967129352E+02  0.15659416606E+02  0.20070679510E+03  0.22174135821E+03  0.88327234918E+02 0.  0.
        -13    1    3    3    0    0  0.46241000917E+02 -0.68607179571E+02 -0.55449005809E+03  0.56062857560E+03  0.00000000000E+00 0.  1.
         14    1    3    3    0    0 -0.21291635484E+02 -0.65951753554E+01 -0.39557297008E+03  0.39620046030E+03  0.00000000000E+00 0. -1.
         11    1    5    5    0    0 -0.65937465732E+01  0.51107058789E+02  0.12498929853E+03  0.13519516892E+03  0.00000000000E+00 0. -1.
        -12    1    5    5    0    0 -0.22373382779E+02 -0.35447642183E+02  0.75717496567E+02  0.86546189284E+02  0.00000000000E+00 0.  1.
          5    1    4    4  501    0 -0.26744002428E+02 -0.66763634464E+01  0.96862894069E+01  0.29514608200E+02  0.41800000000E+01 0. -1.
         -5    1    4    4    0  501  0.30761766347E+02  0.66219301767E+02 -0.15453042803E+03  0.17096317669E+03  0.41800000000E+01 0. -1.
</event>
<event>
11    1  0.8041700E-009  0.1434869E+03  0.7561462E-02  0.1103726E+00
         22   -1    0    0    0    0  0.00000000000E+00  0.00000000000E+00  0.15942507988E+03  0.15942507988E+03  0.00000000000E+00 0. -1.
         22   -1    0    0    0    0 -0.00000000000E+00 -0.00000000000E+00 -0.36766396403E+03  0.36766396403E+03  0.00000000000E+00 0. -1.
         24    2    1    2    0    0  0.30827515020E+01 -0.31779369016E+02 -0.24625379806E+03  0.26110461483E+03  0.80717130613E+02 0.  0.
         25    2    1    2    0    0 -0.54748093762E+02 -0.24260324135E+02 -0.20428219593E+02  0.14018293090E+03  0.12509206555E+03 0.  0.
        -24    2    1    2    0    0  0.51665342260E+02  0.56039693151E+02  0.58443133507E+02  0.12580149817E+03  0.81244460050E+02 0.  0.
        -11    1    3    3    0    0  0.82517389106E+00 -0.47268449148E+02 -0.71902246772E+02  0.86051846509E+02  0.00000000000E+00 0.  1.
         12    1    3    3    0    0  0.22575776109E+01  0.15489080132E+02 -0.17435155129E+03  0.17505276832E+03  0.00000000000E+00 0. -1.
         13    1    5    5    0    0  0.10306936272E+02  0.66726093745E+02  0.44515016409E+02  0.80871448656E+02  0.00000000000E+00 0. -1.
        -14    1    5    5    0    0  0.41358405988E+02 -0.10686400595E+02  0.13928117098E+02  0.44930049516E+02  0.00000000000E+00 0.  1.
          5    1    4    4  501    0  0.23487509878E+02 -0.79578064418E+01 -0.49108515424E+02  0.55173440085E+02  0.41800000000E+01 0.  1.
         -5    1    4    4    0  501 -0.78235603641E+02 -0.16302517693E+02  0.28680295831E+02  0.85009490818E+02  0.41800000000E+01 0.  1.
</event>
<event>
11    1  0.8041700E-009  0.2136432E+03  0.7561462E-02  0.1045274E+00
         22   -1    0    0    0    0  0.00000000000E+00  0.00000000000E+00  0.20318912524E+04  0.20318912524E+04  0.00000000000E+00 0. -1.
         22   -1    0    0    0    0 -0.00000000000E+00 -0.00000000000E+00 -0.10218709372E+04  0.10218709372E+04  0.00000000000E+00 0. -1.
        -24    2    1    2    0    0 -0.16751428344E+03  0.38025876177E+02 -0.97413045343E+03  0.99247196701E+03  0.81015199796E+02 0.  0.
         25    2    1    2    0    0  0.29219047188E+03 -0.13578801606E+02  0.70808332047E+03  0.77626574949E+03  0.12508744700E+03 0.  0.
         24    2    1    2    0    0 -0.12467618844E+03 -0.24447074571E+02  0.12760674482E+04  0.12850244731E+04  0.82449698244E+02 0.  0.
        -11    1    5    5    0    0  0.10624441610E+02  0.55561908894E+01  0.14583961241E+03  0.14633161847E+03  0.00000000000E+00 0.  1.
         12    1    5    5    0    0 -0.13530063005E+03 -0.30003265460E+02  0.11302278358E+04  0.11386928547E+04  0.00000000000E+00 0. -1.
         13    1    3    3    0    0 -0.98495645667E+02  0.62486959093E+02 -0.60972703486E+03  0.62078423733E+03  0.00000000000E+00 0. -1.
        -14    1    3    3    0    0 -0.69018637772E+02 -0.24461082917E+02 -0.36440341857E+03  0.37168772969E+03  0.00000000000E+00 0.  1.
          5    1    4    4  501    0 -0.99737080976E+01  0.41092027135E+01  0.58224744474E+02  0.59362898086E+02  0.41800000000E+01 0.  1.
         -5    1    4    4    0  501  0.30216417997E+03 -0.17688004319E+02  0.64985857599E+03  0.71690285140E+03  0.41800000000E+01 0.  1.
</event>
<event>
11    1  0.8041700E-009  0.1290324E+03  0.7561462E-02  0.1120464E+00
         22   -1    0    0    0    0  0.00000000000E+00  0.00000000000E+00  0.10069556349E+04  0.10069556349E+04  0.00000000000E+00 0. -1.
         22   -1    0    0    0    0 -0.00000000000E+00 -0.00000000000E+00 -0.95012146784E+02  0.95012146784E+02  0.00000000000E+00 0. -1.
         24    2    1    2    0    0 -0.28229188440E+02  0.98796227662E+01 -0.48834048482E+02  0.98084210651E+02  0.79631991448E+02 0.  0.
         25    2    1    2    0    0  0.51197867635E+02  0.50345294689E+01  0.21978715553E+03  0.25808457602E+03  0.12511868968E+03 0.  0.
        -24    2    1    2    0    0 -0.22968679196E+02 -0.14914152235E+02  0.74099038108E+03  0.74579899503E+03  0.79996274704E+02 0.  0.
        -11    1    3    3    0    0 -0.22463961175E+02  0.76644318890E+01  0.18731828690E+02  0.30236641247E+02  0.00000000000E+00 0.  1.
         12    1    3    3    0    0 -0.57652272646E+01  0.22151908773E+01 -0.67565877172E+02  0.67847569404E+02  0.00000000000E+00 0. -1.
         13    1    5    5    0    0 -0.48954131835E+02 -0.58158868173E+01  0.60761253165E+03  0.60960915362E+03  0.00000000000E+00 0. -1.
        -14    1    5    5    0    0  0.25985452640E+02 -0.90982654179E+01  0.13337784944E+03  0.13618984141E+03  0.00000000000E+00 0.  1.
          5    1    4    4  501    0 -0.32896912005E+01  0.12256919613E+02  0.19857056341E+03  0.19901958496E+03  0.41800000000E+01 0.  1.
         -5    1    4    4    0  501  0.54487558836E+02 -0.72223901440E+01  0.21216592121E+02  0.59064991056E+02  0.41800000000E+01 0.  1.
</event>
<event>
11    1  0.8041700E-009  0.1355128E+03  0.7561462E-02  0.1112675E+00
         22   -1    0    0    0    0  0.00000000000E+00  0.00000000000E+00  0.10840703312E+04  0.10840703312E+04  0.00000000000E+00 0.  1.
         22   -1    0    0    0    0 -0.00000000000E+00 -0.00000000000E+00 -0.40178265376E+03  0.40178265376E+03  0.00000000000E+00 0. -1.
         24    2    1    2    0    0  0.17949532178E+02 -0.29806544938E+02 -0.12045417872E+03  0.14917750196E+03  0.80833793013E+02 0.  0.
         25    2    1    2    0    0  0.27399248739E+02  0.38070689516E+01 -0.24948045426E+03  0.28046499652E+03  0.12511956126E+03 0.  0.
        -24    2    1    2    0    0 -0.45348780918E+02  0.25999475986E+02  0.10522223104E+04  0.10562104865E+04  0.75341333499E+02 0.  0.
        -11    1    3    3    0    0  0.36333898892E+02 -0.42001939484E+01 -0.15735254175E+02  0.39816982079E+02  0.00000000000E+00 0.  1.
         12    1    3    3    0    0 -0.18384366714E+02 -0.25606350990E+02 -0.10471892455E+03  0.10936051988E+03  0.00000000000E+00 0. -1.
         11    1    5    5    0    0 -0.28079600043E+02  0.26060535610E+02  0.19043212477E+03  0.19424728981E+03  0.00000000000E+00 0. -1.
        -12    1    5    5    0    0 -0.17269180875E+02 -0.61059624011E-01  0.86179018567E+03  0.86196319669E+03  0.00000000000E+00 0.  1.
          5    1    4    4  501    0  0.49082895165E+02  0.19982244770E+01 -0.25713527014E+02  0.55603789172E+02  0.41800000000E+01 0. -1.
         -5    1    4    4    0  501 -0.21683646426E+02  0.18088444746E+01 -0.22376692724E+03  0.22486120735E+03  0.41800000000E+01 0. -1.
</event>
<event>
11    1  0.8041700E-009  0.3539772E+03  0.7561462E-02  0.9796249E-01
         22   -1    0    0    0    0  0.00000000000E+00  0.00000000000E+00  0.31834117258E+03  0.31834117258E+03  0.00000000000E+00 0. -1.
         22   -1    0    0    0    0 -0.00000000000E+00 -0.00000000000E+00 -0.24328229316E+04  0.24328229316E+04  0.00000000000E+00 0.  1.
        -24    2    1    2    0    0 -0.12416443070E+02  0.62440647572E+02 -0.12828720874E+04  0.12869544457E+04  0.80236837872E+02 0.  0.
         25    2    1    2    0    0 -0.40892989818E+01 -0.38768523539E+03 -0.10065292478E+04  0.10858482083E+04  0.12509452682E+03 0.  0.
         24    2    1    2    0    0  0.16505742052E+02  0.32524458782E+03  0.17491957615E+03  0.37836145022E+03  0.80647674893E+02 0.  0.
        -13    1    5    5    0    0  0.49666553405E+01  0.15567340518E+01  0.17465000920E+02  0.18224086899E+02  0.00000000000E+00 0.  1.
         14    1    5    5    0    0  0.11539086711E+02  0.32368785377E+03  0.15745457523E+03  0.36013736332E+03  0.00000000000E+00 0. -1.
         13    1    3    3    0    0  0.15362207410E+02 -0.13550255010E+02 -0.34041143897E+03  0.34102720508E+03  0.00000000000E+00 0. -1.
        -14    1    3    3    0    0 -0.27778650480E+02  0.75990902582E+02 -0.94246064840E+03  0.94592724059E+03  0.00000000000E+00 0.  1.
          5    1    4    4  501    0 -0.46757771162E+02 -0.56605875926E+02 -0.17952089184E+03  0.19399932310E+03  0.41800000000E+01 0.  1.
         -5    1    4    4    0  501  0.42668472180E+02 -0.33107935947E+03 -0.82700835597E+03  0.89184888520E+03  0.41800000000E+01 0.  1.
</event>
<event>
11    1  0.8041700E-009  0.1407810E+03  0.7561462E-02  0.1106689E+00
         22   -1    0    0    0    0  0.00000000000E+00  0.00000000000E+00  0.11611671888E+04  0.11611671888E+04  0.00000000000E+00 0. -1.
         22   -1    0    0    0    0 -0.00000000000E+00 -0.00000000000E+00 -0.71319928465E+02  0.71319928465E+02  0.00000000000E+00 0.  1.
         24    2    1    2    0    0 -0.31720521613E+02  0.50710134376E+02  0.82325403056E+01  0.10102087701E+03  0.80992182666E+02 0.  0.
         25    2    1    2    0    0 -0.29460511804E+02 -0.14353542055E+02  0.17013253564E+03  0.21370519756E+03  0.12510350058E+03 0.  0.
        -24    2    1    2    0    0  0.61181033417E+02 -0.36356592321E+02  0.91148218436E+03  0.91776104266E+03  0.80128885896E+02 0.  0.
        -13    1    3    3    0    0  0.12772825255E+02  0.53454734221E+02  0.12099092153E+02  0.56275587127E+02  0.00000000000E+00 0.  1.
         14    1    3    3    0    0 -0.44493346868E+02 -0.27445998447E+01 -0.38665518478E+01  0.44745289886E+02  0.00000000000E+00 0. -1.
         13    1    5    5    0    0  0.29138765848E+02 -0.43128137809E+02  0.79669208915E+03  0.79839049898E+03  0.00000000000E+00 0. -1.
        -14    1    5    5    0    0  0.32042267569E+02  0.67715454877E+01  0.11479009521E+03  0.11937054368E+03  0.00000000000E+00 0.  1.
          5    1    4    4  501    0 -0.24984581405E+02 -0.60498183185E+02  0.43277216170E+02  0.78578936847E+02  0.41800000000E+01 0. -1.
         -5    1    4    4    0  501 -0.44759303984E+01  0.46144641130E+02  0.12685531947E+03  0.13512626072E+03  0.41800000000E+01 0. -1.
</event>
<event>
11    1  0.8041700E-009  0.1284473E+03  0.7561462E-02  0.1121192E+00
         22   -1    0    0    0    0  0.00000000000E+00  0.00000000000E+00  0.21620253783E+03  0.21620253783E+03  0.00000000000E+00 0.  1.
         22   -1    0    0    0    0 -0.00000000000E+00 -0.00000000000E+00 -0.11463868790E+04  0.11463868790E+04  0.00000000000E+00 0. -1.
        -24    2    1    2    0    0  0.23568097764E+02  0.26869812414E+02 -0.32429884703E+03  0.33462030751E+03  0.74320696700E+02 0.  0.
         25    2    1    2    0    0 -0.18657404241E+02 -0.55345071626E+02 -0.80095876998E+03  0.81276914953E+03  0.12509022155E+03 0.  0.
         24    2    1    2    0    0 -0.49106935236E+01  0.28475259212E+02  0.19507327589E+03  0.21519995975E+03  0.86153841553E+02 0.  0.
        -11    1    5    5    0    0 -0.25180989951E+02  0.21001101866E+02  0.19026153289E+03  0.19306625658E+03  0.00000000000E+00 0.  1.
         12    1    5    5    0    0  0.20270296428E+02  0.74741573469E+01  0.48117430000E+01  0.22133703170E+02  0.00000000000E+00 0. -1.
         13    1    3    3    0    0  0.42036503292E+02  0.21001773502E+01 -0.25879695020E+03  0.26219713916E+03  0.00000000000E+00 0. -1.
        -14    1    3    3    0    0 -0.18468405528E+02  0.24769635064E+02 -0.65501896837E+02  0.72423168345E+02  0.00000000000E+00 0.  1.
          5    1    4    4  501    0  0.49120294884E+02 -0.48526372919E+02 -0.44196772340E+03  0.44734835773E+03  0.41800000000E+01 0.  1.
         -5    1    4    4    0  501 -0.67777699125E+02 -0.68186987073E+01 -0.35899104658E+03  0.36542079180E+03  0.41800000000E+01 0.  1.
</event>
<event>
11    1  0.8041700E-009  0.1545730E+03  0.7561462E-02  0.1092296E+00
         22   -1    0    0    0    0  0.00000000000E+00  0.00000000000E+00  0.65305971360E+03  0.65305971360E+03  0.00000000000E+00 0. -1.
         22   -1    0    0    0    0 -0.00000000000E+00 -0.00000000000E+00 -0.39180392405E+03  0.39180392405E+03  0.00000000000E+00 0. -1.
        -24    2    1    2    0    0 -0.40618236325E+02 -0.86182717147E+02 -0.33229120063E+03  0.35613269461E+03  0.85649006399E+02 0.  0.
         25    2    1    2    0    0  0.78682730225E+02  0.47489312510E+01  0.95055989343E+02  0.17577614724E+03  0.12509231969E+03 0.  0.
         24    2    1    2    0    0 -0.38064493900E+02  0.81433785896E+02  0.49849100083E+03  0.51295479580E+03  0.80925752671E+02 0.  0.
        -11    1    5    5    0    0 -0.89410560405E+00 -0.14862800664E+02  0.33746457896E+02  0.36885304512E+02  0.00000000000E+00 0.  1.
         12    1    5    5    0    0 -0.37170388296E+02  0.96296586560E+02  0.46474454293E+03  0.47606949129E+03  0.00000000000E+00 0. -1.
         11    1    3    3    0    0 -0.54904889764E+02 -0.87485240110E+02 -0.22128492120E+03  0.24420325655E+03  0.00000000000E+00 0. -1.
        -12    1    3    3    0    0  0.14286653439E+02  0.13025229631E+01 -0.11100627943E+03  0.11192943806E+03  0.00000000000E+00 0.  1.
          5    1    4    4  501    0  0.63328802020E+02  0.56857681015E+02  0.85027885791E+02  0.12037668719E+03  0.41800000000E+01 0.  1.
         -5    1    4    4    0  501  0.15353928205E+02 -0.52108749764E+02  0.10028103553E+02  0.55399460053E+02  0.41800000000E+01 0.  1.
</event>
<event>
11    1  0.8041700E-009  0.1705735E+03  0.7561462E-02  0.1077534E+00
         22   -1    0    0    0    0  0.00000000000E+00  0.00000000000E+00  0.19482558637E+03  0.19482558637E+03  0.00000000000E+00 0.  1.
         22   -1    0    0    0    0 -0.00000000000E+00 -0.00000000000E+00 -0.49900232187E+03  0.49900232187E+03  0.00000000000E+00 0.  1.
         24    2    1    2    0    0  0.60150298521E+02  0.70751722978E+02 -0.31855726145E+03  0.34087347728E+03  0.78052123434E+02 0.  0.
         25    2    1    2    0    0  0.50129397861E+02  0.15225267449E+02 -0.87682502215E+02  0.16151580740E+03  0.12511742304E+03 0.  0.
        -24    2    1    2    0    0 -0.11027969638E+03 -0.85976990427E+02  0.10206302816E+03  0.19143862356E+03  0.81720441494E+02 0.  0.
        -13    1    3    3    0    0  0.39574394778E+01  0.49346834967E+02 -0.21933573228E+03  0.22485314074E+03  0.00000000000E+00 0.  1.
         14    1    3    3    0    0  0.56192859043E+02  0.21404888011E+02 -0.99221529170E+02  0.11602033653E+03  0.00000000000E+00 0. -1.
         13    1    5    5    0    0 -0.43158621266E+02 -0.72834314477E+02  0.87019710517E+02  0.12140812977E+03  0.00000000000E+00 0. -1.
        -14    1    5    5    0    0 -0.67121075116E+02 -0.13142675950E+02  0.15043317642E+02  0.70030493797E+02  0.00000000000E+00 0.  1.
          5    1    4    4  501    0 -0.89820737192E+01  0.61843518571E+01  0.28489131192E+02  0.30790044694E+02  0.41800000000E+01 0. -1.
         -5    1    4    4    0  501  0.59111471580E+02  0.90409155917E+01 -0.11617163341E+03  0.13072576271E+03  0.41800000000E+01 0. -1.
</event>
<event>
11    1  0.8041700E-009  0.1477251E+03  0.7561462E-02  0.1099226E+00
         22   -1    0    0    0    0  0.00000000000E+00  0.00000000000E+00  0.23806408418E+04  0.23806408418E+04  0.00000000000E+00 0.  1.
         22   -1    0    0    0    0 -0.00000000000E+00 -0.00000000000E+00 -0.29424882645E+03  0.29424882645E+03  0.00000000000E+00 0.  1.
        -24    2    1    2    0    0 -0.46967071939E+02 -0.62065301342E+02 -0.24965852643E+03  0.27402785799E+03  0.81877223085E+02 0.  0.
         25    2    1    2    0    0  0.88603531737E+01  0.10731444761E+03  0.18720086840E+03  0.24957228352E+03  0.12508902050E+03 0.  0.
         24    2    1    2    0    0  0.38106718765E+02 -0.45249146269E+02  0.21488496734E+04  0.21512895267E+04  0.83618788607E+02 0.  0.
        -13    1    5    5    0    0  0.54232170120E+02 -0.27892670855E+01  0.14098624749E+04  0.14109079014E+04  0.00000000000E+00 0.  1.
         14    1    5    5    0    0 -0.16125451355E+02 -0.42459879184E+02  0.73898719852E+03  0.74038162531E+03  0.00000000000E+00 0. -1.
         13    1    3    3    0    0 -0.30057061427E+01  0.36149602476E+01 -0.13320092978E+03  0.13328386962E+03  0.00000000000E+00 0. -1.
        -14    1    3    3    0    0 -0.43961365796E+02 -0.65680261590E+02 -0.11645759664E+03  0.14074398837E+03  0.00000000000E+00 0.  1.
          5    1    4    4  501    0  0.62300544064E+01  0.11897300738E+02  0.14405020943E+03  0.14473525686E+03  0.41800000000E+01 0. -1.
         -5    1    4    4    0  501  0.26302987673E+01  0.95417146873E+02  0.43150658969E+02  0.10483702666E+03  0.41800000000E+01 0. -1.
</event>
<event>
11    1  0.8041700E-009  0.3578736E+03  0.7561462E-02  0.9782945E-01
         22   -1    0    0    0    0  0.00000000000E+00  0.00000000000E+00  0.93776891200E+03  0.93776891200E+03  0.00000000000E+00 0. -1.
         22   -1    0    0    0    0 -0.00000000000E+00 -0.00000000000E+00 -0.27526511230E+04  0.27526511230E+04  0.00000000000E+00 0.  1.
         24    2    1    2    0    0  0.77494677794E+02 -0.71198690852E+02 -0.14564163013E+04  0.14625086928E+04  0.81905768784E+02 0.  0.
         25    2    1    2    0    0  0.25832310984E+03  0.38295868401E+02 -0.12437989932E+04  0.12770594061E+04  0.12508952207E+03 0.  0.
        -24    2    1    2    0    0 -0.33581778764E+03  0.32902822451E+02  0.88533308357E+03  0.95085193613E+03  0.80302885118E+02 0.  0.
        -11    1    3    3    0    0  0.33274294194E+02 -0.73947545395E+02 -0.11562768504E+04  0.11591167210E+04  0.00000000000E+00 0.  1.
         12    1    3    3    0    0  0.44220383600E+02  0.27488545433E+01 -0.30013945094E+03  0.30339197177E+03  0.00000000000E+00 0. -1.
         13    1    5    5    0    0 -0.25718662544E+03  0.49927971997E+02  0.73578915595E+03  0.78103997638E+03  0.00000000000E+00 0. -1.
        -14    1    5    5    0    0 -0.78631162193E+02 -0.17025149546E+02  0.14954392763E+03  0.16981195975E+03  0.00000000000E+00 0.  1.
          5    1    4    4  501    0  0.67819116144E+02 -0.42259209429E+02 -0.42963623023E+03  0.43702406802E+03  0.41800000000E+01 0. -1.
         -5    1    4    4    0  501  0.19050399370E+03  0.80555077830E+02 -0.81416276299E+03  0.84003533808E+03  0.41800000000E+01 0. -1.
</event>
<event>
11    1  0.8041700E-009  0.1686836E+03  0.7561462E-02  0.1079183E+00
         22   -1    0    0    0    0  0.00000000000E+00  0.00000000000E+00  0.14491425536E+04  0.14491425536E+04  0.00000000000E+00 0. -1.
         22   -1    0    0    0    0 -0.00000000000E+00 -0.00000000000E+00 -0.53015373698E+03  0.53015373698E+03  0.00000000000E+00 0. -1.
         24    2    1    2    0    0 -0.57422513668E+02 -0.21053727901E+02 -0.50520402925E+03  0.51512141857E+03  0.79864636475E+02 0.  0.
         25    2    1    2    0    0  0.11612570837E+03  0.66766905267E+02  0.12078960975E+04  0.12217215978E+04  0.12509068853E+03 0.  0.
        -24    2    1    2    0    0 -0.58703194704E+02 -0.45713177366E+02  0.21629674833E+03  0.24245327418E+03  0.80396188756E+02 0.  0.
        -11    1    3    3    0    0 -0.59963514182E+02 -0.27523677148E+01 -0.18736159907E+03  0.19674238833E+03  0.00000000000E+00 0.  1.
         12    1    3    3    0    0  0.25410005138E+01 -0.18301360186E+02 -0.31784243019E+03  0.31837903024E+03  0.00000000000E+00 0. -1.
         11    1    5    5    0    0 -0.56333986009E+02 -0.62642287571E+02  0.20584301099E+03  0.22241609507E+03  0.00000000000E+00 0. -1.
        -12    1    5    5    0    0 -0.23692086955E+01  0.16929110206E+02  0.10453737342E+02  0.20037179108E+02  0.00000000000E+00 0.  1.
          5    1    4    4  501    0  0.18841310034E+02  0.61790385112E+02  0.22875673005E+03  0.23773969083E+03  0.41800000000E+01 0. -1.
         -5    1    4    4    0  501  0.97284398338E+02  0.49765201550E+01  0.97913936748E+03  0.98398190697E+03  0.41800000000E+01 0. -1.
</event>
<event>
11    1  0.8041700E-009  0.2283450E+03  0.7561462E-02  0.1036112E+00
         22   -1    0    0    0    0  0.00000000000E+00  0.00000000000E+00  0.32420988122E+04  0.32420988122E+04  0.00000000000E+00 0.  1.
         22   -1    0    0    0    0 -0.00000000000E+00 -0.00000000000E+00 -0.12674216757E+04  0.12674216757E+04  0.00000000000E+00 0. -1.
        -24    2    1    2    0    0  0.52084162619E+02  0.70927794051E+02 -0.10865798903E+04  0.10930284932E+04  0.79447573032E+02 0.  0.
         25    2    1    2    0    0 -0.37457011891E+02 -0.26010988024E+03 -0.52621292042E+02  0.29576303182E+03  0.12508634247E+03 0.  0.
         24    2    1    2    0    0 -0.14627150729E+02  0.18918208619E+03  0.31138783189E+04  0.31207289629E+04  0.81897861824E+02 0.  0.
        -11    1    5    5    0    0 -0.79613773037E+01  0.12530581056E+03  0.25711602474E+04  0.25742241447E+04  0.00000000000E+00 0.  1.
         12    1    5    5    0    0 -0.66657734253E+01  0.63876275636E+02  0.54271807151E+03  0.54650481815E+03  0.00000000000E+00 0. -1.
         13    1    3    3    0    0  0.56120769894E+02  0.84206749646E+02 -0.84272639145E+03  0.84878035341E+03  0.00000000000E+00 0. -1.
        -14    1    3    3    0    0 -0.40366072748E+01 -0.13278955595E+02 -0.24385349889E+03  0.24424813977E+03  0.00000000000E+00 0.  1.
          5    1    4    4  501    0  0.13180908644E+02 -0.18225901018E+03  0.10998705940E+02  0.18311342680E+03  0.41800000000E+01 0. -1.
         -5    1    4    4    0  501 -0.50637920534E+02 -0.77850870065E+02 -0.63619997982E+02  0.11264960501E+03  0.41800000000E+01 0. -1.
</event>
<event>
11    1  0.8041700E-009  0.1304481E+03  0.7561462E-02  0.1118720E+00
         22   -1    0    0    0    0  0.00000000000E+00  0.00000000000E+00  0.87745645652E+03  0.87745645652E+03  0.00000000000E+00 0. -1.
         22   -1    0    0    0    0 -0.00000000000E+00 -0.00000000000E+00 -0.20242689470E+03  0.20242689470E+03  0.00000000000E+00 0.  1.
         24    2    1    2    0    0 -0.73230842007E+01 -0.39442356401E+01 -0.12408241470E+03  0.14766224237E+03  0.79614745025E+02 0.  0.
         25    2    1    2    0    0 -0.12856821494E+02 -0.27392288040E+02  0.40460559058E+00  0.12869674757E+03  0.12508818420E+03 0.  0.
        -24    2    1    2    0    0  0.20179905694E+02  0.31336523680E+02  0.79870737093E+03  0.80352436128E+03  0.79553305901E+02 0.  0.
        -13    1    3    3    0    0 -0.35847106637E+02  0.20290767943E+02 -0.78769921778E+02  0.88889993221E+02  0.00000000000E+00 0.  1.
         14    1    3    3    0    0  0.28524022436E+02 -0.24235003583E+02 -0.45312492924E+02  0.58772249145E+02  0.00000000000E+00 0. -1.
         13    1    5    5    0    0  0.26439381852E+02  0.47503746054E+02  0.74724844650E+03  0.74922352312E+03  0.00000000000E+00 0. -1.
        -14    1    5    5    0    0 -0.62594761579E+01 -0.16167222374E+02  0.51458924431E+02  0.54300838158E+02  0.00000000000E+00 0.  1.
          5    1    4    4  501    0  0.35215003033E+02 -0.39678954611E+02  0.38766985920E+02  0.65839710471E+02  0.41800000000E+01 0.  1.
         -5    1    4    4    0  501 -0.48071824527E+02  0.12286666570E+02 -0.38362380330E+02  0.62857037102E+02  0.41800000000E+01 0.  1.
</event>
<event>
11    1  0.8041700E-009  0.2075127E+03  0.7561462E-02  0.1049335E+00
         22   -1    0    0    0    0  0.00000000000E+00  0.00000000000E+00  0.18662061487E+04  0.18662061487E+04  0.00000000000E+00 0. -1.
         22   -1    0    0    0    0 -0.00000000000E+00 -0.00000000000E+00 -0.29562392584E+03  0.29562392584E+03  0.00000000000E+00 0. -1.
         24    2    1    2    0    0 -0.14165724569E+02  0.46828462858E+02 -0.20936385673E+03  0.23647832539E+03  0.98464212731E+02 0.  0.
         25    2    1    2    0    0  0.17856385029E+03 -0.35547996718E+02  0.11254753054E+03  0.24791779549E+03  0.12509027937E+03 0.  0.
        -24    2    1    2    0    0 -0.16439812572E+03 -0.11280466140E+02  0.16673985490E+04  0.16774339536E+04  0.80079678216E+02 0.  0.
        -13    1    3    3    0    0  0.26680757050E+02  0.40920535505E+02 -0.43025852405E+02  0.65096674247E+02  0.00000000000E+00 0.  1.
         14    1    3    3    0    0 -0.40846481619E+02  0.59079273530E+01 -0.16633800432E+03  0.17138165114E+03  0.00000000000E+00 0. -1.
         11    1    5    5    0    0 -0.14501272882E+03 -0.38005550696E+02  0.14008916980E+04  0.14088898690E+04  0.00000000000E+00 0. -1.
        -12    1    5    5    0    0 -0.19385396895E+02  0.26725084556E+02  0.26650685096E+03  0.26854408459E+03  0.00000000000E+00 0.  1.
          5    1    4    4  501    0  0.53824651369E+02  0.14045394290E+02  0.98087098737E+02  0.11284023012E+03  0.41800000000E+01 0.  1.
         -5    1    4    4    0  501  0.12473919892E+03 -0.49593391008E+02  0.14460431805E+02  0.13507756537E+03  0.41800000000E+01 0.  1.
</event>
<event>
11    1  0.8041700E-009  0.1484621E+03  0.7561462E-02  0.1098461E+00
         22   -1    0    0    0    0  0.00000000000E+00  0.00000000000E+00  0.17156976845E+03  0.17156976845E+03  0.00000000000E+00 0. -1.
         22   -1    0    0    0    0 -0.00000000000E+00 -0.00000000000E+00 -0.86853681028E+03  0.86853681028E+03  0.00000000000E+00 0. -1.
        -24    2    1    2    0    0  0.82003151218E+02 -0.33895622128E+01 -0.71185225601E+03  0.72089235785E+03  0.78842572741E+02 0.  0.
         25    2    1    2    0    0 -0.61209762701E+02  0.28923870504E+02 -0.10138018465E+03  0.17466696970E+03  0.12508950048E+03 0.  0.
         24    2    1    2    0    0 -0.20793388517E+02 -0.25534308291E+02  0.11626539883E+03  0.14454725119E+03  0.79321491131E+02 0.  0.
        -11    1    5    5    0    0  0.88157098371E+01 -0.35301510259E+02  0.16368476401E+02  0.39897874457E+02  0.00000000000E+00 0.  1.
         12    1    5    5    0    0 -0.29609098354E+02  0.97672019681E+01  0.99896922426E+02  0.10464937673E+03  0.00000000000E+00 0. -1.
         11    1    3    3    0    0  0.26068494756E+02  0.16420432521E+02 -0.49823283631E+03  0.49918449115E+03  0.00000000000E+00 0. -1.
        -12    1    3    3    0    0  0.55934656462E+02 -0.19809994734E+02 -0.21361941969E+03  0.22170786670E+03  0.00000000000E+00 0.  1.
          5    1    4    4  501    0  0.13467249558E+02  0.59550792879E+02 -0.38950676676E+02  0.72541652564E+02  0.41800000000E+01 0.  1.
         -5    1    4    4    0  501 -0.74677012258E+02 -0.30626922375E+02 -0.62429507973E+02  0.10212531713E+03  0.41800000000E+01 0.  1.
</event>
<event>
11    1  0.8041700E-009  0.1763109E+03  0.7561462E-02  0.1072667E+00
         22   -1    0    0    0    0  0.00000000000E+00  0.00000000000E+00  0.58911908534E+03  0.58911908534E+03  0.00000000000E+00 0.  1.
         22   -1    0    0    0    0 -0.00000000000E+00 -0.00000000000E+00 -0.13964887844E+04  0.13964887844E+04  0.00000000000E+00 0.  1.
        -24    2    1    2    0    0  0.11621963102E+03 -0.31694014596E+02 -0.10945233306E+04  0.11042832257E+04  0.83358312248E+02 0.  0.
         25    2    1    2    0    0 -0.14022257745E+03  0.53450383805E+02 -0.26135996900E+03  0.32630568526E+03  0.12508817724E+03 0.  0.
         24    2    1    2    0    0  0.24002946430E+02 -0.21756369210E+02  0.54851360050E+03  0.55501895878E+03  0.78290444095E+02 0.  0.
        -13    1    5    5    0    0  0.26331208515E+02 -0.12163342854E+02  0.54287751164E+03  0.54365179306E+03  0.00000000000E+00 0.  1.
         14    1    5    5    0    0 -0.23282620845E+01 -0.95930263557E+01  0.56360888619E+01  0.11367165727E+02  0.00000000000E+00 0. -1.
         13    1    3    3    0    0  0.65875223509E+02 -0.56900250154E+02 -0.54841427270E+03  0.55527956747E+03  0.00000000000E+00 0. -1.
        -14    1    3    3    0    0  0.50344407507E+02  0.25206235559E+02 -0.54610905788E+03  0.54900365825E+03  0.00000000000E+00 0.  1.
          5    1    4    4  501    0 -0.14490480996E+03  0.48979988213E+02 -0.14864952066E+03  0.21333212507E+03  0.41800000000E+01 0. -1.
         -5    1    4    4    0  501  0.46822325129E+01  0.44703955924E+01 -0.11271044834E+03  0.11297356020E+03  0.41800000000E+01 0. -1.
</event>
<event>
11    1  0.8041700E-009  0.1373769E+03  0.7561462E-02  0.1110523E+00
         22   -1    0    0    0    0  0.00000000000E+00  0.00000000000E+00  0.22845954912E+04  0.22845954912E+04  0.00000000000E+00 0. -1.
         22   -1    0    0    0    0 -0.00000000000E+00 -0.00000000000E+00 -0.90544363298E+02  0.90544363298E+02  0.00000000000E+00 0. -1.
        -24    2    1    2    0    0 -0.95405288117E+01 -0.58579824964E+02 -0.49964915405E+02  0.11236104715E+03  0.81276654469E+02 0.  0.
         25    2    1    2    0    0 -0.21686662727E+02  0.17821764720E+02  0.49918363998E+03  0.51538758786E+03  0.12510848358E+03 0.  0.
         24    2    1    2    0    0  0.31227191539E+02  0.40758060244E+02  0.17448324033E+04  0.17473912195E+04  0.79370027533E+02 0.  0.
        -11    1    5    5    0    0 -0.79175275030E+01 -0.18204046568E+02  0.21247467985E+03  0.21340000968E+03  0.00000000000E+00 0.  1.
         12    1    5    5    0    0  0.39144719042E+02  0.58962106812E+02  0.15323577234E+04  0.15339912098E+04  0.00000000000E+00 0. -1.
         13    1    3    3    0    0 -0.43850384327E+02 -0.33856709976E+02 -0.41531934473E+02  0.69238967331E+02  0.00000000000E+00 0. -1.
        -14    1    3    3    0    0  0.34309855516E+02 -0.24723114988E+02 -0.84329809324E+01  0.43122079816E+02  0.00000000000E+00 0.  1.
          5    1    4    4  501    0 -0.72486769264E+02  0.24022112927E+02  0.27858100709E+03  0.28888794288E+03  0.41800000000E+01 0. -1.
         -5    1    4    4    0  501  0.50800106536E+02 -0.62003482075E+01  0.22060263288E+03  0.22649964498E+03  0.41800000000E+01 0. -1.
</event>
<event>
11    1  0.8041700E-009  0.1324052E+03  0.7561462E-02  0.1116349E+00
         22   -1    0    0    0    0  0.00000000000E+00  0.00000000000E+00  0.74184811760E+03  0.74184811760E+03  0.00000000000E+00 0. -1.
         22   -1    0    0    0    0 -0.00000000000E+00 -0.00000000000E+00 -0.62459153791E+03  0.62459153791E+03  0.00000000000E+00 0. -1.
        -24    2    1    2    0    0  0.25652337515E+02 -0.44330464874E+02 -0.57387601652E+03  0.58075570808E+03  0.72940232998E+02 0.  0.
         25    2    1    2    0    0  0.19280802636E+02  0.35544356331E+02  0.54847010232E+02  0.14244616366E+03  0.12509022501E+03 0.  0.
         24    2    1    2    0    0 -0.44933140151E+02  0.87861085426E+01  0.63628558598E+03  0.64323778376E+03  0.82457969596E+02 0.  0.
        -11    1    5    5    0    0 -0.24534463151E+02  0.10268197584E+02  0.50329038354E+02  0.56924404832E+02  0.00000000000E+00 0.  1.
         12    1    5    5    0    0 -0.20398677000E+02 -0.14820890417E+01  0.58595654763E+03  0.58631337893E+03  0.00000000000E+00 0. -1.
         11    1    3    3    0    0  0.28513248720E+02 -0.23755153286E+02 -0.53815818271E+03  0.53943631902E+03  0.00000000000E+00 0. -1.
        -12    1    3    3    0    0 -0.28609112048E+01 -0.20575311588E+02 -0.35717833810E+02  0.41319389056E+02  0.00000000000E+00 0.  1.
          5    1    4    4  501    0  0.81628143938E+01 -0.20227166617E+01  0.89490264089E+02  0.89981679736E+02  0.41800000000E+01 0. -1.
         -5    1    4    4    0  501  0.11117988242E+02  0.37567072993E+02 -0.34643253857E+02  0.52464483926E+02  0.41800000000E+01 0. -1.
</event>
<event>
11    1  0.1283790E-008  0.1456996E+03  0.7561462E-02  0.1101356E+00
         22   -1    0    0    0    0  0.00000000000E+00  0.00000000000E+00  0.80397819293E+03  0.80397819293E+03  0.00000000000E+00 0. -1.
         22   -1    0    0    0    0 -0.00000000000E+00 -0.00000000000E+00 -0.77399653543E+03  0.77399653543E+03  0.00000000000E+00 0. -1.
         24    2    1    2    0    0 -0.45953968280E+02  0.71097753242E+02 -0.65156670123E+03  0.66198092987E+03  0.80702711475E+02 0.  0.
         25    2    1    2    0    0 -0.20103107225E+02 -0.18469240290E+02 -0.76416214290E+02  0.14910727546E+03  0.12509314143E+03 0.  0.
        -24    2    1    2    0    0  0.66057075505E+02 -0.52628512952E+02  0.75796457302E+03  0.76688652303E+03  0.80444686938E+02 0.  0.
        -11    1    3    3    0    0  0.15921848596E+02  0.10008546493E+01 -0.36307558840E+02  0.39657859268E+02  0.00000000000E+00 0.  1.
         12    1    3    3    0    0 -0.61875816877E+02  0.70096898592E+02 -0.61525914239E+03  0.62232307060E+03  0.00000000000E+00 0. -1.
         11    1    5    5    0    0  0.75199427032E+02 -0.50889031811E+02  0.74702885986E+03  0.75252691968E+03  0.00000000000E+00 0. -1.
        -12    1    5    5    0    0 -0.91423515269E+01 -0.17394811406E+01  0.10935713166E+02  0.14359603356E+02  0.00000000000E+00 0.  1.
          5    1    4    4  501    0  0.29335488882E+02  0.32660911759E+02 -0.62537149802E+02  0.76522373005E+02  0.41800000000E+01 0. -1.
         -5    1    4    4    0  501 -0.49438596107E+02 -0.51130152049E+02 -0.13879064487E+02  0.72584902457E+02  0.41800000000E+01 0. -1.
</event>
<event>
11    1  0.8041700E-009  0.1346844E+03  0.7561462E-02  0.1113644E+00
         22   -1    0    0    0    0  0.00000000000E+00  0.00000000000E+00  0.41757141810E+03  0.41757141810E+03  0.00000000000E+00 0.  1.
         22   -1    0    0    0    0 -0.00000000000E+00 -0.00000000000E+00 -0.10354639279E+04  0.10354639279E+04  0.00000000000E+00 0. -1.
         24    2    1    2    0    0 -0.17554723124E+02  0.47014413912E+02 -0.95779654941E+03  0.96240000299E+03  0.79504794060E+02 0.  0.
         25    2    1    2    0    0  0.22335609710E+02 -0.38078001142E+02 -0.79854360999E+01  0.13288237509E+03  0.12508055320E+03 0.  0.
        -24    2    1    2    0    0 -0.47808865860E+01 -0.89364127703E+01  0.34788947573E+03  0.35775296789E+03  0.82809313248E+02 0.  0.
        -13    1    3    3    0    0 -0.23034797287E+02 -0.17372178630E+02 -0.34575595314E+03  0.34695759627E+03  0.00000000000E+00 0.  1.
         14    1    3    3    0    0  0.54800741626E+01  0.64386592542E+02 -0.61204059627E+03  0.61544240672E+03  0.00000000000E+00 0. -1.
         13    1    5    5    0    0 -0.23102719363E+02  0.29468476313E+02  0.11306174390E+03  0.11910115311E+03  0.00000000000E+00 0. -1.
        -14    1    5    5    0    0  0.18321832777E+02 -0.38404889083E+02  0.23482773183E+03  0.23865181478E+03  0.00000000000E+00 0.  1.
          5    1    4    4  501    0  0.65619925524E+02 -0.28605425363E+02  0.26639435000E+02  0.76494293141E+02  0.41800000000E+01 0.  1.
         -5    1    4    4    0  501 -0.43284315814E+02 -0.94725757786E+01 -0.34624871100E+02  0.56388081950E+02  0.41800000000E+01 0.  1.
</event>
<event>
11    1  0.8631550E-009  0.1755889E+03  0.7561462E-02  0.1073268E+00
         22   -1    0    0    0    0  0.00000000000E+00  0.00000000000E+00  0.31481698063E+03  0.31481698063E+03  0.00000000000E+00 0.  1.
         22   -1    0    0    0    0 -0.00000000000E+00 -0.00000000000E+00 -0.80230955157E+03  0.80230955157E+03  0.00000000000E+00 0.  1.
         24    2    1    2    0    0  0.43904784169E+02  0.53513724396E+02 -0.48047638207E+03  0.49207417923E+03  0.80548714231E+02 0.  0.
         25    2    1    2    0    0 -0.13461745197E+03  0.30139624596E+02 -0.26744222127E+03  0.32588790160E+03  0.12508927749E+03 0.  0.
        -24    2    1    2    0    0  0.90712667805E+02 -0.83653348992E+02  0.26042603240E+03  0.29916445137E+03  0.80317991237E+02 0.  0.
        -13    1    3    3    0    0  0.42216092350E+02 -0.93292713741E+01 -0.18515669288E+03  0.19013740998E+03  0.00000000000E+00 0.  1.
         14    1    3    3    0    0  0.16886918189E+01  0.62842995770E+02 -0.29531968920E+03  0.30193676925E+03  0.00000000000E+00 0. -1.
         11    1    5    5    0    0 -0.43983819180E+00 -0.43716632404E+02  0.50169463984E+02  0.66545567266E+02  0.00000000000E+00 0. -1.
        -12    1    5    5    0    0  0.91152505997E+02 -0.39936716587E+02  0.21025656841E+03  0.23261888410E+03  0.00000000000E+00 0.  1.
          5    1    4    4  501    0 -0.14840491310E+03  0.16556501815E+02 -0.26715632755E+03  0.30608513805E+03  0.41800000000E+01 0.  1.
         -5    1    4    4    0  501  0.13787461124E+02  0.13583122781E+02 -0.28589371158E+00  0.19802763544E+02  0.41800000000E+01 0.  1.
</event>
<event>
11    1  0.8041700E-009  0.1333282E+03  0.7561462E-02  0.1115246E+00
         22   -1    0    0    0    0  0.00000000000E+00  0.00000000000E+00  0.49267036810E+03  0.49267036810E+03  0.00000000000E+00 0. -1.
         22   -1    0    0    0    0 -0.00000000000E+00 -0.00000000000E+00 -0.28865528295E+03  0.28865528295E+03  0.00000000000E+00 0. -1.
         24    2    1    2    0    0 -0.21059028017E+02  0.41454529328E+02 -0.17334583576E+03  0.19281537842E+03  0.70477164503E+02 0.  0.
         25    2    1    2    0    0  0.23085740972E+02 -0.38172501730E+02 -0.58987997953E+02  0.14532026571E+03  0.12509318286E+03 0.  0.
        -24    2    1    2    0    0 -0.20267129550E+01 -0.32820275987E+01  0.43634891887E+03  0.44319000692E+03  0.77473375848E+02 0.  0.
        -11    1    3    3    0    0 -0.18646582442E+02  0.39588182826E+02 -0.39547872457E+02  0.58982653993E+02  0.00000000000E+00 0.  1.
         12    1    3    3    0    0 -0.24124455752E+01  0.18663465025E+01 -0.13379796330E+03  0.13383272443E+03  0.00000000000E+00 0. -1.
         11    1    5    5    0    0 -0.23166510541E+02  0.23505855735E+02  0.32647470411E+03  0.32813860622E+03  0.00000000000E+00 0. -1.
        -12    1    5    5    0    0  0.21139797586E+02 -0.26787883334E+02  0.10987421475E+03  0.11505140070E+03  0.00000000000E+00 0.  1.
          5    1    4    4  501    0 -0.87984483395E+01 -0.79077124950E+02 -0.44724173115E+02  0.91369187609E+02  0.41800000000E+01 0. -1.
         -5    1    4    4    0  501  0.31884189312E+02  0.40904623221E+02 -0.14263824839E+02  0.53951078098E+02  0.41800000000E+01 0. -1.
</event>
<event>
11    1  0.8041700E-009  0.2368066E+03  0.7561462E-02  0.1031172E+00
         22   -1    0    0    0    0  0.00000000000E+00  0.00000000000E+00  0.69036784608E+03  0.69036784608E+03  0.00000000000E+00 0.  1.
         22   -1    0    0    0    0 -0.00000000000E+00 -0.00000000000E+00 -0.31099539783E+03  0.31099539783E+03  0.00000000000E+00 0.  1.
        -24    2    1    2    0    0  0.20972159831E+01 -0.17761172263E+03 -0.15685392241E+03  0.24995300852E+03  0.79517489642E+02 0.  0.
         25    2    1    2    0    0 -0.13108035202E+03 -0.96679064171E+02  0.27465877544E+03  0.34294764561E+03  0.12508694804E+03 0.  0.
         24    2    1    2    0    0  0.12898313604E+03  0.27429078681E+03  0.26156759521E+03  0.40846258978E+03  0.80944396206E+02 0.  0.
        -13    1    5    5    0    0  0.92964604723E+01  0.11009697305E+03  0.95681018941E+02  0.14615958757E+03  0.00000000000E+00 0.  1.
         14    1    5    5    0    0  0.11968667557E+03  0.16419381375E+03  0.16588657627E+03  0.26230300221E+03  0.00000000000E+00 0. -1.
         11    1    3    3    0    0 -0.14734388576E+02  0.10667996575E+01 -0.16274799622E+02  0.21979749110E+02  0.00000000000E+00 0. -1.
        -12    1    3    3    0    0  0.16831604559E+02 -0.17867852229E+03 -0.14057912279E+03  0.22797325941E+03  0.00000000000E+00 0.  1.
          5    1    4    4  501    0 -0.57540850454E+01 -0.77760417825E+02  0.93589700760E+02  0.12188640844E+03  0.41800000000E+01 0.  1.
         -5    1    4    4    0  501 -0.12532626698E+03 -0.18918646346E+02  0.18106907468E+03  0.22106123717E+03  0.41800000000E+01 0.  1.
</event>
<event>
11    1  0.8041700E-009  0.1550414E+03  0.7561462E-02  0.1091836E+00
         22   -1    0    0    0    0  0.00000000000E+00  0.00000000000E+00  0.62276620186E+03  0.62276620186E+03  0.00000000000E+00 0.  1.
         22   -1    0    0    0    0 -0.00000000000E+00 -0.00000000000E+00 -0.16044573681E+04  0.16044573681E+04  0.00000000000E+00 0. -1.
         24    2    1    2    0    0 -0.78554811108E+02 -0.47314328953E+02 -0.15571914236E+04  0.15620638121E+04  0.82393684627E+02 0.  0.
         25    2    1    2    0    0  0.36828587201E+02  0.10590014194E+03  0.14690199330E+03  0.22314119133E+03  0.12506242734E+03 0.  0.
        -24    2    1    2    0    0  0.41726223907E+02 -0.58585812991E+02  0.42859826404E+03  0.44201856654E+03  0.80688078337E+02 0.  0.
        -13    1    3    3    0    0  0.83290571564E+01 -0.31404457139E+02 -0.57146127433E+03  0.57238413778E+03  0.00000000000E+00 0.  1.
         14    1    3    3    0    0 -0.86883868264E+02 -0.15909871814E+02 -0.98573014929E+03  0.98967967434E+03  0.00000000000E+00 0. -1.
         11    1    5    5    0    0  0.59112033336E+02 -0.16978024633E+02  0.21015674291E+03  0.21897109946E+03  0.00000000000E+00 0. -1.
        -12    1    5    5    0    0 -0.17385809429E+02 -0.41607788358E+02  0.21844152113E+03  0.22304746709E+03  0.00000000000E+00 0.  1.
          5    1    4    4  501    0  0.11529233380E+02  0.54132729555E+01  0.11335267795E+03  0.11414258077E+03  0.41800000000E+01 0.  1.
         -5    1    4    4    0  501  0.25299353821E+02  0.10048686899E+03  0.33549315352E+02  0.10899861056E+03  0.41800000000E+01 0.  1.
</event>
<event>
11    1  0.8041700E-009  0.1481385E+03  0.7561462E-02  0.1098796E+00
         22   -1    0    0    0    0  0.00000000000E+00  0.00000000000E+00  0.52779317815E+03  0.52779317815E+03  0.00000000000E+00 0. -1.
         22   -1    0    0    0    0 -0.00000000000E+00 -0.00000000000E+00 -0.55115423181E+03  0.55115423181E+03  0.00000000000E+00 0.  1.
        -24    2    1    2    0    0 -0.17465625234E+02  0.75809716716E+02 -0.49781898521E+03  0.51060176583E+03  0.82693772560E+02 0.  0.
         25    2    1    2    0    0  0.20408889082E+02 -0.15353730058E+03  0.27467717347E+03  0.33924273880E+03  0.12509140970E+03 0.  0.
         24    2    1    2    0    0 -0.29432638483E+01  0.77727583860E+02  0.19978075809E+03  0.22910290533E+03  0.80780875416E+02 0.  0.
        -13    1    5    5    0    0  0.91645104959E+01  0.26982717197E+00 -0.45593149310E+01  0.10239551356E+02  0.00000000000E+00 0.  1.
         14    1    5    5    0    0 -0.12107774344E+02  0.77457756688E+02  0.20434007302E+03  0.21886335397E+03  0.00000000000E+00 0. -1.
         13    1    3    3    0    0 -0.11085089695E+02 -0.13993240290E+02 -0.37134209980E+02  0.41202421509E+02  0.00000000000E+00 0. -1.
        -14    1    3    3    0    0 -0.63805355393E+01  0.89802957006E+02 -0.46068477523E+03  0.46939934432E+03  0.00000000000E+00 0.  1.
          5    1    4    4  501    0  0.44883072663E+02 -0.24491583401E+02  0.24942864345E+02  0.57043376048E+02  0.41800000000E+01 0. -1.
         -5    1    4    4    0  501 -0.24474183581E+02 -0.12904571718E+03  0.24973430913E+03  0.28219936275E+03  0.41800000000E+01 0. -1.
</event>
<event>
11    1  0.8041700E-009  0.1294650E+03  0.7561462E-02  0.1119928E+00
         22   -1    0    0    0    0  0.00000000000E+00  0.00000000000E+00  0.16104957790E+04  0.16104957790E+04  0.00000000000E+00 0.  1.
         22   -1    0    0    0    0 -0.00000000000E+00 -0.00000000000E+00 -0.42930628183E+03  0.42930628183E+03  0.00000000000E+00 0. -1.
         24    2    1    2    0    0  0.11840771473E+01 -0.32424661384E+02 -0.37862314533E+03  0.38808850966E+03  0.78768295938E+02 0.  0.
         25    2    1    2    0    0 -0.90508195495E+01  0.53331429994E+02  0.58924244519E+02  0.14847796544E+03  0.12508989116E+03 0.  0.
        -24    2    1    2    0    0  0.78667424022E+01 -0.20906768611E+02  0.15008883980E+04  0.15032355857E+04  0.80946058516E+02 0.  0.
        -11    1    3    3    0    0 -0.19992996667E+01  0.19933663526E+02 -0.33742862512E+02  0.39241927976E+02  0.00000000000E+00 0.  1.
         12    1    3    3    0    0  0.31833768139E+01 -0.52358324910E+02 -0.34488028282E+03  0.34884658169E+03  0.00000000000E+00 0. -1.
         11    1    5    5    0    0 -0.21927019139E+02  0.22067068668E+02  0.64712034253E+03  0.64786764651E+03  0.00000000000E+00 0. -1.
        -12    1    5    5    0    0  0.29793761542E+02 -0.42973837279E+02  0.85376805545E+03  0.85536793921E+03  0.00000000000E+00 0.  1.
          5    1    4    4  501    0 -0.31274773461E+02  0.83487555906E+02  0.64847864750E+02  0.11032226162E+03  0.41800000000E+01 0.  1.
         -5    1    4    4    0  501  0.22223953912E+02 -0.30156125912E+02 -0.59236202309E+01  0.38155703822E+02  0.41800000000E+01 0.  1.
</event>
<event>
11    1  0.8041700E-009  0.1281698E+03  0.7561462E-02  0.1121538E+00
         22   -1    0    0    0    0  0.00000000000E+00  0.00000000000E+00  0.12268006661E+04  0.12268006661E+04  0.00000000000E+00 0. -1.
         22   -1    0    0    0    0 -0.00000000000E+00 -0.00000000000E+00 -0.41839462242E+03  0.41839462242E+03  0.00000000000E+00 0.  1.
         24    2    1    2    0    0 -0.14858941990E+02  0.14952808660E+02 -0.16380304892E+03  0.18376757820E+03  0.80589759386E+02 0.  0.
         25    2    1    2    0    0 -0.77842367641E+01  0.16377461621E+01 -0.22694440648E+03  0.25925618834E+03  0.12508689383E+03 0.  0.
        -24    2    1    2    0    0  0.22643178754E+02 -0.16590554822E+02  0.11991534991E+04  0.12021715220E+04  0.80369732377E+02 0.  0.
        -13    1    3    3    0    0  0.21519431595E+02  0.20491178033E+02 -0.13145977271E+03  0.13477628187E+03  0.00000000000E+00 0.  1.
         14    1    3    3    0    0 -0.36378373585E+02 -0.55383693736E+01 -0.32343276205E+02  0.48991296326E+02  0.00000000000E+00 0. -1.
         13    1    5    5    0    0 -0.28132712132E+01 -0.46073810102E+02  0.66289121061E+03  0.66449640148E+03  0.00000000000E+00 0. -1.
        -14    1    5    5    0    0  0.25456449968E+02  0.29483255280E+02  0.53626228847E+03  0.53767512051E+03  0.00000000000E+00 0.  1.
          5    1    4    4  501    0  0.49423770603E+01  0.30595230029E+02 -0.22513780716E+03  0.22729936164E+03  0.41800000000E+01 0. -1.
         -5    1    4    4    0  501 -0.12726613824E+02 -0.28957483867E+02 -0.18065993172E+01  0.31956826696E+02  0.41800000000E+01 0. -1.
</event>
<event>
11    1  0.8041700E-009  0.1349026E+03  0.7561462E-02  0.1113388E+00
         22   -1    0    0    0    0  0.00000000000E+00  0.00000000000E+00  0.74039044575E+03  0.74039044575E+03  0.00000000000E+00 0. -1.
         22   -1    0    0    0    0 -0.00000000000E+00 -0.00000000000E+00 -0.27578071347E+03  0.27578071347E+03  0.00000000000E+00 0. -1.
         24    2    1    2    0    0  0.51327683216E+02  0.35037622785E+02 -0.24639736222E+03  0.26680207125E+03  0.81298948562E+02 0.  0.
         25    2    1    2    0    0  0.16936731079E+02 -0.12401095689E+02  0.31791878589E+03  0.34228686743E+03  0.12508918882E+03 0.  0.
        -24    2    1    2    0    0 -0.68264414295E+02 -0.22636527097E+02  0.39308830861E+03  0.40708222055E+03  0.77621345663E+02 0.  0.
        -11    1    3    3    0    0  0.71737945378E+01  0.48016803646E+02 -0.75070783276E+02  0.89401897419E+02  0.00000000000E+00 0.  1.
         12    1    3    3    0    0  0.44153888679E+02 -0.12979180860E+02 -0.17132657894E+03  0.17740017383E+03  0.00000000000E+00 0. -1.
         11    1    5    5    0    0 -0.52507918990E+02 -0.35305408245E+02  0.37387394641E+03  0.37919029683E+03  0.00000000000E+00 0. -1.
        -12    1    5    5    0    0 -0.15756495305E+02  0.12668881148E+02  0.19214362204E+02  0.27891923719E+02  0.00000000000E+00 0.  1.
          5    1    4    4  501    0 -0.97006887928E+01  0.22273720355E+02  0.35989835427E+01  0.24912789167E+02  0.41800000000E+01 0. -1.
         -5    1    4    4    0  501  0.26637419872E+02 -0.34674816044E+02  0.31431980235E+03  0.31737407826E+03  0.41800000000E+01 0. -1.
</event>
<event>
11    1  0.8041700E-009  0.1806846E+03  0.7561462E-02  0.1069090E+00
         22   -1    0    0    0    0  0.00000000000E+00  0.00000000000E+00  0.14047580996E+04  0.14047580996E+04  0.00000000000E+00 0. -1.
         22   -1    0    0    0    0 -0.00000000000E+00 -0.00000000000E+00 -0.16472088650E+03  0.16472088650E+03  0.00000000000E+00 0.  1.
        -24    2    1    2    0    0  0.59498778393E+01  0.12817482200E+03 -0.10486409781E+03  0.18431154458E+03  0.80685069327E+02 0.  0.
         25    2    1    2    0    0 -0.63268761611E+02 -0.17252658568E+03  0.85877543106E+03  0.88708051508E+03  0.12509292661E+03 0.  0.
         24    2    1    2    0    0  0.57318883772E+02  0.44351763677E+02  0.48612587981E+03  0.49808692640E+03  0.80744546864E+02 0.  0.
        -11    1    5    5    0    0  0.41686333983E+02 -0.87260574165E+00  0.91278818714E+02  0.10035105693E+03  0.00000000000E+00 0.  1.
         12    1    5    5    0    0  0.15632549789E+02  0.45224369419E+02  0.39484706110E+03  0.39773586947E+03  0.00000000000E+00 0. -1.
         13    1    3    3    0    0 -0.47874364448E+01  0.94024494454E+02 -0.25949939230E+02  0.97657178185E+02  0.00000000000E+00 0. -1.
        -14    1    3    3    0    0  0.10737314284E+02  0.34150327549E+02 -0.78914158584E+02  0.86654366392E+02  0.00000000000E+00 0.  1.
          5    1    4    4  501    0  0.18974000303E+02  0.48658303882E+01  0.34239355332E+02  0.39667301980E+02  0.41800000000E+01 0.  1.
         -5    1    4    4    0  501 -0.82242761914E+02 -0.17739241607E+03  0.82453607573E+03  0.84741321310E+03  0.41800000000E+01 0.  1.
</event>
<event>
11    1  0.8041700E-009  0.1296619E+03  0.7561462E-02  0.1119685E+00
         22   -1    0    0    0    0  0.00000000000E+00  0.00000000000E+00  0.17930512022E+03  0.17930512022E+03  0.00000000000E+00 0.  1.
         22   -1    0    0    0    0 -0.00000000000E+00 -0.00000000000E+00 -0.63468145778E+03  0.63468145778E+03  0.00000000000E+00 0. -1.
        -24    2    1    2    0    0 -0.22736692251E+01 -0.33104579098E+02 -0.50921502351E+03  0.51660380174E+03  0.80488912739E+02 0.  0.
         25    2    1    2    0    0 -0.92730579755E+01  0.45457655880E+02 -0.68033468682E+02  0.14975527078E+03  0.12508277333E+03 0.  0.
         24    2    1    2    0    0  0.11546727201E+02 -0.12353076781E+02  0.12187215464E+03  0.14762750548E+03  0.81578997793E+02 0.  0.
        -13    1    5    5    0    0  0.30338380272E+02 -0.32446040462E+02  0.10808133446E+03  0.11685348825E+03  0.00000000000E+00 0.  1.
         14    1    5    5    0    0 -0.18791653071E+02  0.20092963681E+02  0.13790820187E+02  0.30774017223E+02  0.00000000000E+00 0. -1.
         13    1    3    3    0    0  0.20840341383E+02 -0.42834842166E+02 -0.44690094360E+03  0.44943252766E+03  0.00000000000E+00 0. -1.
        -14    1    3    3    0    0 -0.23114010608E+02  0.97302630681E+01 -0.62314079914E+02  0.67171274078E+02  0.00000000000E+00 0.  1.
          5    1    4    4  501    0 -0.33208460373E+02  0.45440784852E+02 -0.96830471414E+02  0.11207711346E+03  0.41800000000E+01 0.  1.
         -5    1    4    4    0  501  0.23935402397E+02  0.16871027967E-01  0.28797002731E+02  0.37678157318E+02  0.41800000000E+01 0.  1.
</event>
<event>
11    1  0.8041700E-009  0.1294927E+03  0.7561462E-02  0.1119894E+00
         22   -1    0    0    0    0  0.00000000000E+00  0.00000000000E+00  0.75399786807E+03  0.75399786807E+03  0.00000000000E+00 0. -1.
         22   -1    0    0    0    0 -0.00000000000E+00 -0.00000000000E+00 -0.37556255966E+03  0.37556255966E+03  0.00000000000E+00 0.  1.
         24    2    1    2    0    0  0.32832930934E+02 -0.63268939000E+01 -0.30284328107E+03  0.31506542590E+03  0.80213083493E+02 0.  0.
         25    2    1    2    0    0 -0.35730430948E+02 -0.74928844941E+01  0.18769809309E+01  0.13032237935E+03  0.12509033731E+03 0.  0.
        -24    2    1    2    0    0  0.28975000136E+01  0.13819778394E+02  0.67940160856E+03  0.68417262248E+03  0.79411899992E+02 0.  0.
        -11    1    3    3    0    0  0.92520269571E+01 -0.30076452593E+02 -0.25348301722E+03  0.25542872396E+03  0.00000000000E+00 0.  1.
         12    1    3    3    0    0  0.23580903977E+02  0.23749558693E+02 -0.49360263855E+02  0.59636701941E+02  0.00000000000E+00 0. -1.
         13    1    5    5    0    0  0.35540192998E+02  0.14271133849E+01  0.50840212815E+03  0.50964484288E+03  0.00000000000E+00 0. -1.
        -14    1    5    5    0    0 -0.32642692984E+02  0.12392665009E+02  0.17099948041E+03  0.17452777960E+03  0.00000000000E+00 0.  1.
          5    1    4    4  501    0 -0.35805245549E+02  0.47527036717E+01  0.60337830665E+02  0.70446646552E+02  0.41800000000E+01 0.  1.
         -5    1    4    4    0  501  0.74814601704E-01 -0.12245588166E+02 -0.58460849734E+02  0.59875732800E+02  0.41800000000E+01 0.  1.
</event>
<event>
11    1  0.8041700E-009  0.1590191E+03  0.7561462E-02  0.1088004E+00
         22   -1    0    0    0    0  0.00000000000E+00  0.00000000000E+00  0.94638064204E+03  0.94638064204E+03  0.00000000000E+00 0.  1.
         22   -1    0    0    0    0 -0.00000000000E+00 -0.00000000000E+00 -0.29365191804E+03  0.29365191804E+03  0.00000000000E+00 0. -1.
         24    2    1    2    0    0  0.99118644613E+02 -0.11281995290E+02 -0.25567172649E+03  0.28727690857E+03  0.84901126842E+02 0.  0.
         25    2    1    2    0    0 -0.68285116352E+02  0.25403150064E+02  0.25365445463E+03  0.29205780037E+03  0.12509596019E+03 0.  0.
        -24    2    1    2    0    0 -0.30833528261E+02 -0.14121154775E+02  0.65474599585E+03  0.66069785114E+03  0.81726482489E+02 0.  0.
        -13    1    3    3    0    0  0.19470679616E+02  0.26938742300E+02 -0.29417636845E+02  0.44386941311E+02  0.00000000000E+00 0.  1.
         14    1    3    3    0    0  0.79647964997E+02 -0.38220737589E+02 -0.22625408965E+03  0.24288996726E+03  0.00000000000E+00 0. -1.
         11    1    5    5    0    0  0.17128439112E+02 -0.17692761126E+02  0.74550512684E+02  0.78512394971E+02  0.00000000000E+00 0. -1.
        -12    1    5    5    0    0 -0.47961967373E+02  0.35716063512E+01  0.58019548317E+03  0.58218545617E+03  0.00000000000E+00 0.  1.
          5    1    4    4  501    0 -0.27305095674E+02  0.96256820382E+01 -0.49934931905E+01  0.29675400228E+02  0.41800000000E+01 0. -1.
         -5    1    4    4    0  501 -0.40980020678E+02  0.15777468026E+02  0.25864794783E+03  0.26238240015E+03  0.41800000000E+01 0. -1.
</event>
<event>
11    1  0.8041700E-009  0.1406316E+03  0.7561462E-02  0.1106855E+00
         22   -1    0    0    0    0  0.00000000000E+00  0.00000000000E+00  0.96904487034E+03  0.96904487034E+03  0.00000000000E+00 0. -1.
         22   -1    0    0    0    0 -0.00000000000E+00 -0.00000000000E+00 -0.51886303029E+03  0.51886303029E+03  0.00000000000E+00 0.  1.
         24    2    1    2    0    0  0.32006008088E+02  0.36009616937E+02 -0.48922361841E+03  0.49820718498E+03  0.80929434010E+02 0.  0.
         25    2    1    2    0    0 -0.46121610191E+02  0.30776968832E+02  0.19726727680E+03  0.24007584996E+03  0.12509040932E+03 0.  0.
        -24    2    1    2    0    0  0.14115602103E+02 -0.66786585769E+02  0.74213818166E+03  0.74962486568E+03  0.80676268606E+02 0.  0.
        -13    1    3    3    0    0  0.10256645991E+02  0.34396726430E+02 -0.46168750128E+03  0.46308064354E+03  0.00000000000E+00 0.  1.
         14    1    3    3    0    0  0.21749362097E+02  0.16128905063E+01 -0.27536117128E+02  0.35126541445E+02  0.00000000000E+00 0. -1.
         13    1    5    5    0    0 -0.50336306039E+01 -0.45812469942E+02  0.67696842494E+03  0.67853545832E+03  0.00000000000E+00 0. -1.
        -14    1    5    5    0    0  0.19149232707E+02 -0.20974115827E+02  0.65169756721E+02  0.71089407362E+02  0.00000000000E+00 0.  1.
          5    1    4    4  501    0  0.22185960447E+02  0.17498914970E+02  0.15698544097E+03  0.15956293412E+03  0.41800000000E+01 0. -1.
         -5    1    4    4    0  501 -0.68307570638E+02  0.13278053862E+02  0.40281835822E+02  0.80512915846E+02  0.41800000000E+01 0. -1.
</event>
<event>
11    1  0.8041700E-009  0.2603965E+03  0.7561462E-02  0.1018502E+00
         22   -1    0    0    0    0  0.00000000000E+00  0.00000000000E+00  0.16302391454E+02  0.16302391454E+02  0.00000000000E+00 0. -1.
         22   -1    0    0    0    0 -0.00000000000E+00 -0.00000000000E+00 -0.25521082347E+04  0.25521082347E+04  0.00000000000E+00 0.  1.
         24    2    1    2    0    0 -0.10838640142E+03  0.31964605980E+01 -0.11995387552E+04  0.12070083804E+04  0.78855410328E+02 0.  0.
         25    2    1    2    0    0  0.37554711655E+01 -0.89493535503E+01 -0.57294905535E+03  0.58652545699E+03  0.12508915691E+03 0.  0.
        -24    2    1    2    0    0  0.10463093026E+03  0.57528929523E+01 -0.76331803273E+03  0.77487678880E+03  0.82455390342E+02 0.  0.
        -13    1    3    3    0    0 -0.50756476218E+02  0.49605177176E+01 -0.92876581610E+03  0.93016491429E+03  0.00000000000E+00 0.  1.
         14    1    3    3    0    0 -0.57629925205E+02 -0.17640571196E+01 -0.27077293909E+03  0.27684346609E+03  0.00000000000E+00 0. -1.
         11    1    5    5    0    0  0.79161174924E+01 -0.27235940682E+02 -0.10911092398E+03  0.11273710620E+03  0.00000000000E+00 0. -1.
        -12    1    5    5    0    0  0.96714812765E+02  0.32988833634E+02 -0.65420710874E+03  0.66213968261E+03  0.00000000000E+00 0.  1.
          5    1    4    4  501    0  0.37638488953E+02 -0.20794659831E+02 -0.69857745185E+02  0.82137997848E+02  0.41800000000E+01 0. -1.
         -5    1    4    4    0  501 -0.33883017787E+02  0.11845306281E+02 -0.50309131016E+03  0.50438745914E+03  0.41800000000E+01 0. -1.
</event>
<event>
11    1  0.8041700E-009  0.1657715E+03  0.7561462E-02  0.1081771E+00
         22   -1    0    0    0    0  0.00000000000E+00  0.00000000000E+00  0.16377815807E+04  0.16377815807E+04  0.00000000000E+00 0.  1.
         22   -1    0    0    0    0 -0.00000000000E+00 -0.00000000000E+00 -0.32603791682E+03  0.32603791682E+03  0.00000000000E+00 0.  1.
         24    2    1    2    0    0  0.71133413740E+02 -0.83596872898E+02 -0.27611268834E+03  0.30775060181E+03  0.80148715162E+02 0.  0.
         25    2    1    2    0    0 -0.12798842730E+03  0.10180640190E+02  0.22370711256E+03  0.28666414284E+03  0.12508707216E+03 0.  0.
        -24    2    1    2    0    0  0.56855013559E+02  0.73416232707E+02  0.13641492396E+04  0.13694047529E+04  0.75787817896E+02 0.  0.
        -13    1    3    3    0    0  0.70473294591E+02 -0.93678346955E+02 -0.20687861673E+03  0.23778326266E+03  0.00000000000E+00 0.  1.
         14    1    3    3    0    0  0.66011914962E+00  0.10081474058E+02 -0.69234071607E+02  0.69967339150E+02  0.00000000000E+00 0. -1.
         13    1    5    5    0    0  0.19220772910E+02  0.15461333842E+01  0.70753142511E+03  0.70779414109E+03  0.00000000000E+00 0. -1.
        -14    1    5    5    0    0  0.37634240649E+02  0.71870099323E+02  0.65661781453E+03  0.66161061177E+03  0.00000000000E+00 0.  1.
          5    1    4    4  501    0  0.15450251704E+02 -0.13458642992E+02  0.13320744082E+01  0.20954526268E+02  0.41800000000E+01 0. -1.
         -5    1    4    4    0  501 -0.14343867900E+03  0.23639283182E+02  0.22237503815E+03  0.26570961657E+03  0.41800000000E+01 0. -1.
</event>
<event>
11    1  0.8041700E-009  0.1479326E+03  0.7561462E-02  0.1099010E+00
         22   -1    0    0    0    0  0.00000000000E+00  0.00000000000E+00  0.34065516247E+03  0.34065516247E+03  0.00000000000E+00 0.  1.
         22   -1    0    0    0    0 -0.00000000000E+00 -0.00000000000E+00 -0.48463769441E+03  0.48463769441E+03  0.00000000000E+00 0.  1.
        -24    2    1    2    0    0 -0.10156003609E+02 -0.74283410177E+02 -0.11770517020E+03  0.15288619866E+03  0.62438075023E+02 0.  0.
         25    2    1    2    0    0  0.59437452763E+02  0.13354363473E+03 -0.31165311744E+03  0.36625324314E+03  0.12508820622E+03 0.  0.
         24    2    1    2    0    0 -0.49281449154E+02 -0.59260224550E+02  0.28537575570E+03  0.30615341508E+03  0.79687867175E+02 0.  0.
        -11    1    5    5    0    0  0.52429093268E+01 -0.53566446318E+02  0.17190569414E+03  0.18013444964E+03  0.00000000000E+00 0.  1.
         12    1    5    5    0    0 -0.54524358481E+02 -0.56937782313E+01  0.11347006156E+03  0.12601896543E+03  0.00000000000E+00 0. -1.
         11    1    3    3    0    0 -0.13280785503E+02  0.78136132723E+01 -0.18115658085E+02  0.23782533166E+02  0.00000000000E+00 0. -1.
        -12    1    3    3    0    0  0.31247818941E+01 -0.82097023450E+02 -0.99589512115E+02  0.12910366550E+03  0.00000000000E+00 0.  1.
          5    1    4    4  501    0  0.41373057935E+01  0.13041681874E+03 -0.17180543057E+03  0.21577822476E+03  0.41800000000E+01 0. -1.
         -5    1    4    4    0  501  0.55300146969E+02  0.31268159891E+01 -0.13984768687E+03  0.15047501838E+03  0.41800000000E+01 0. -1.
</event>
<event>
11    1  0.8041700E-009  0.1268561E+03  0.7561462E-02  0.1123193E+00
         22   -1    0    0    0    0  0.00000000000E+00  0.00000000000E+00  0.14925470261E+03  0.14925470261E+03  0.00000000000E+00 0.  1.
         22   -1    0    0    0    0 -0.00000000000E+00 -0.00000000000E+00 -0.29670685774E+03  0.29670685774E+03  0.00000000000E+00 0. -1.
         24    2    1    2    0    0 -0.16783837445E+02  0.13250794261E+02 -0.20420702592E+03  0.22026892478E+03  0.79753426510E+02 0.  0.
         25    2    1    2    0    0  0.18422594647E+02 -0.67313607931E+01 -0.48999101651E+01  0.12671629373E+03  0.12509319232E+03 0.  0.
        -24    2    1    2    0    0 -0.16387572019E+01 -0.65194334681E+01  0.61654780961E+02  0.98976341842E+02  0.77135048396E+02 0.  0.
        -13    1    3    3    0    0 -0.60905926708E+01  0.92081437333E+01  0.40043591062E+01  0.11743939797E+02  0.00000000000E+00 0.  1.
         14    1    3    3    0    0 -0.10693244774E+02  0.40426505278E+01 -0.20821138503E+03  0.20852498498E+03  0.00000000000E+00 0. -1.
         11    1    5    5    0    0  0.48573949426E+01 -0.13040063770E+01 -0.18100967772E+02  0.18786690836E+02  0.00000000000E+00 0. -1.
        -12    1    5    5    0    0 -0.64961521446E+01 -0.52154270911E+01  0.79755748734E+02  0.80189651006E+02  0.00000000000E+00 0.  1.
          5    1    4    4  501    0  0.31730973737E+02 -0.29369319676E+02 -0.54947318350E+02  0.70043499530E+02  0.41800000000E+01 0. -1.
         -5    1    4    4    0  501 -0.13308379090E+02  0.22637958883E+02  0.50047408185E+02  0.56672794200E+02  0.41800000000E+01 0. -1.
</event>
<event>
11    1  0.8041700E-009  0.1395584E+03  0.7561462E-02  0.1108053E+00
         22   -1    0    0    0    0  0.00000000000E+00  0.00000000000E+00  0.63488470234E+03  0.63488470234E+03  0.00000000000E+00 0.  1.
         22   -1    0    0    0    0 -0.00000000000E+00 -0.00000000000E+00 -0.33906782129E+03  0.33906782129E+03  0.00000000000E+00 0. -1.
         24    2    1    2    0    0 -0.31113290082E+02  0.14548675756E+02 -0.16217433494E+03  0.18369249554E+03  0.79137331367E+02 0.  0.
         25    2    1    2    0    0  0.78553010824E+02 -0.52903014133E+02 -0.12378989967E+03  0.19985451346E+03  0.12509429595E+03 0.  0.
        -24    2    1    2    0    0 -0.47439720742E+02  0.38354338377E+02  0.58178111566E+03  0.59040551462E+03  0.79923856135E+02 0.  0.
        -13    1    3    3    0    0  0.15182112358E+02 -0.18874937307E+02 -0.23617103980E+02  0.33830864523E+02  0.00000000000E+00 0.  1.
         14    1    3    3    0    0 -0.46295402440E+02  0.33423613064E+02 -0.13855723096E+03  0.14986163101E+03  0.00000000000E+00 0. -1.
         11    1    5    5    0    0 -0.50666559321E+02  0.35119988811E+02  0.21676998446E+03  0.22536579157E+03  0.00000000000E+00 0. -1.
        -12    1    5    5    0    0  0.32268385788E+01  0.32343495657E+01  0.36501113121E+03  0.36503972306E+03  0.00000000000E+00 0.  1.
          5    1    4    4  501    0  0.73441491925E+02 -0.30796522355E+02 -0.61610822802E+01  0.79984435112E+02  0.41800000000E+01 0. -1.
         -5    1    4    4    0  501  0.51115188995E+01 -0.22106491778E+02 -0.11762881739E+03  0.11987007835E+03  0.41800000000E+01 0. -1.
</event>
<event>
11    1  0.8041700E-009  0.1260373E+03  0.7561462E-02  0.1124236E+00
         22   -1    0    0    0    0  0.00000000000E+00  0.00000000000E+00  0.76147356978E+03  0.76147356978E+03  0.00000000000E+00 0. -1.
         22   -1    0    0    0    0 -0.00000000000E+00 -0.00000000000E+00 -0.32847004998E+03  0.32847004998E+03  0.00000000000E+00 0. -1.
         24    2    1    2    0    0 -0.11788357463E+02  0.75491559823E+01 -0.30672161077E+03  0.31673868035E+03  0.77777181641E+02 0.  0.
         25    2    1    2    0    0  0.12488538425E+02 -0.16483949121E+02  0.57872917516E+03  0.59245476988E+03  0.12509001558E+03 0.  0.
        -24    2    1    2    0    0 -0.70018096275E+00  0.89347931383E+01  0.16099595540E+03  0.18075016953E+03  0.81673773932E+02 0.  0.
        -13    1    3    3    0    0  0.63977958382E+01  0.14264207638E+02 -0.83226010112E+01  0.17710592839E+02  0.00000000000E+00 0.  1.
         14    1    3    3    0    0 -0.18186153301E+02 -0.67150516560E+01 -0.29839900976E+03  0.29902808751E+03  0.00000000000E+00 0. -1.
         13    1    5    5    0    0  0.23055152600E+02  0.34300150879E+02  0.12048171887E+03  0.12737301517E+03  0.00000000000E+00 0. -1.
        -14    1    5    5    0    0 -0.23755333563E+02 -0.25365357741E+02  0.40514236536E+02  0.53377154365E+02  0.00000000000E+00 0.  1.
          5    1    4    4  501    0 -0.55246476226E+02  0.47448155781E+01  0.24396101309E+03  0.25021817424E+03  0.41800000000E+01 0.  1.
         -5    1    4    4    0  501  0.67735014651E+02 -0.21228764699E+02  0.33476816207E+03  0.34223659564E+03  0.41800000000E+01 0.  1.
</event>
<event>
11    1  0.8041700E-009  0.1662750E+03  0.7561462E-02  0.1081320E+00
         22   -1    0    0    0    0  0.00000000000E+00  0.00000000000E+00  0.16101189307E+03  0.16101189307E+03  0.00000000000E+00 0. -1.
         22   -1    0    0    0    0 -0.00000000000E+00 -0.00000000000E+00 -0.93566413055E+03  0.93566413055E+03  0.00000000000E+00 0. -1.
        -24    2    1    2    0    0  0.11055452704E+03 -0.49906185300E+00 -0.79007200710E+03  0.80154948425E+03  0.77751185160E+02 0.  0.
         25    2    1    2    0    0 -0.10030775789E+03  0.11154728443E+02 -0.73514561919E+02  0.17674485856E+03  0.12509308515E+03 0.  0.
         24    2    1    2    0    0 -0.10246769148E+02 -0.10655666590E+02  0.88934331527E+02  0.11838168081E+03  0.76722666269E+02 0.  0.
        -13    1    5    5    0    0 -0.15885741226E+02  0.27371764816E+02  0.14940015991E+02  0.34996776441E+02  0.00000000000E+00 0.  1.
         14    1    5    5    0    0  0.56389720790E+01 -0.38027431406E+02  0.73994315536E+02  0.83384904372E+02  0.00000000000E+00 0. -1.
         11    1    3    3    0    0  0.10912256330E+03 -0.21577981809E+02 -0.71339169329E+03  0.72201180820E+03  0.00000000000E+00 0. -1.
        -12    1    3    3    0    0  0.14319637406E+01  0.21078919956E+02 -0.76680313804E+02  0.79537676052E+02  0.00000000000E+00 0.  1.
          5    1    4    4  501    0 -0.45796612814E+02 -0.12090871992E+01 -0.10343757472E+03  0.11320598880E+03  0.41800000000E+01 0.  1.
         -5    1    4    4    0  501 -0.54511145077E+02  0.12363815643E+02  0.29923012797E+02  0.63538869755E+02  0.41800000000E+01 0.  1.
</event>
<event>
11    1  0.8041700E-009  0.1279484E+03  0.7561462E-02  0.1121816E+00
         22   -1    0    0    0    0  0.00000000000E+00  0.00000000000E+00  0.16919489963E+03  0.16919489963E+03  0.00000000000E+00 0.  1.
         22   -1    0    0    0    0 -0.00000000000E+00 -0.00000000000E+00 -0.19300612883E+03  0.19300612883E+03  0.00000000000E+00 0.  1.
        -24    2    1    2    0    0 -0.18500627059E+02 -0.18605352455E+02 -0.95771969527E+02  0.12758922202E+03  0.80114337589E+02 0.  0.
         25    2    1    2    0    0 -0.10591998902E+02  0.13887709195E+01  0.79505487620E+01  0.12580164942E+03  0.12509486259E+03 0.  0.
         24    2    1    2    0    0  0.29092625961E+02  0.17216581536E+02  0.64010191560E+02  0.10881015702E+03  0.81237639561E+02 0.  0.
        -13    1    5    5    0    0  0.45639849427E+02  0.35698448177E+02  0.60473724558E+02  0.83752292028E+02  0.00000000000E+00 0.  1.
         14    1    5    5    0    0 -0.16547223466E+02 -0.18481866641E+02  0.35364670012E+01  0.25057864989E+02  0.00000000000E+00 0. -1.
         11    1    3    3    0    0 -0.35683128551E+02  0.20774233131E+02 -0.44814329946E+02  0.60935856389E+02  0.00000000000E+00 0. -1.
        -12    1    3    3    0    0  0.17182501492E+02 -0.39379585586E+02 -0.50957639581E+02  0.66653365633E+02  0.00000000000E+00 0.  1.
          5    1    4    4  501    0 -0.10656832722E+02  0.54560087734E+01 -0.58113321039E+02  0.59480808650E+02  0.41800000000E+01 0. -1.
         -5    1    4    4    0  501  0.64833820120E-01 -0.40672378539E+01  0.66063869801E+02  0.66320840769E+02  0.41800000000E+01 0. -1.
</event>
<event>
11    1  0.8041700E-009  0.1439700E+03  0.7561462E-02  0.1103204E+00
         22   -1    0    0    0    0  0.00000000000E+00  0.00000000000E+00  0.48794928497E+03  0.48794928497E+03  0.00000000000E+00 0. -1.
         22   -1    0    0    0    0 -0.00000000000E+00 -0.00000000000E+00 -0.61636562912E+03  0.61636562912E+03  0.00000000000E+00 0.  1.
         24    2    1    2    0    0 -0.50540962722E+02 -0.49945263067E+02 -0.43092812618E+03  0.44423493680E+03  0.81220138694E+02 0.  0.
         25    2    1    2    0    0  0.79877339839E+02  0.18858764847E+02 -0.14206643881E+03  0.20631913097E+03  0.12509463752E+03 0.  0.
        -24    2    1    2    0    0 -0.29336377117E+02  0.31086498220E+02  0.44457822085E+03  0.45376084632E+03  0.80138117052E+02 0.  0.
        -13    1    3    3    0    0 -0.36897657225E+02 -0.72312474832E+02 -0.30572795024E+03  0.31632279507E+03  0.00000000000E+00 0.  1.
         14    1    3    3    0    0 -0.13643305497E+02  0.22367211764E+02 -0.12520017594E+03  0.12791214174E+03  0.00000000000E+00 0. -1.
         13    1    5    5    0    0 -0.42007896458E+02  0.30049938968E+02  0.43444061310E+03  0.43750006687E+03  0.00000000000E+00 0. -1.
        -14    1    5    5    0    0  0.12671519341E+02  0.10365592516E+01  0.10137607745E+02  0.16260779449E+02  0.00000000000E+00 0.  1.
          5    1    4    4  501    0  0.91272836623E+02  0.24642419024E+02 -0.38959323813E+02  0.10233904842E+03  0.41800000000E+01 0.  1.
         -5    1    4    4    0  501 -0.11395496784E+02 -0.57836541769E+01 -0.10310711500E+03  0.10398008254E+03  0.41800000000E+01 0.  1.
</event>
<event>
11    1  0.1031355E-008  0.1494813E+03  0.7561462E-02  0.1097410E+00
         22   -1    0    0    0    0  0.00000000000E+00  0.00000000000E+00  0.96690627735E+03  0.96690627735E+03  0.00000000000E+00 0.  1.
         22   -1    0    0    0    0 -0.00000000000E+00 -0.00000000000E+00 -0.17078987670E+04  0.17078987670E+04  0.00000000000E+00 0. -1.
        -24    2    1    2    0    0  0.29715629197E+02  0.63404672230E+02 -0.14955874154E+04  0.14994383207E+04  0.81427204392E+02 0.  0.
         25    2    1    2    0    0 -0.12193487817E+02  0.17565463657E+02 -0.18785907267E+03  0.22670570411E+03  0.12508884216E+03 0.  0.
         24    2    1    2    0    0 -0.17522141380E+02 -0.80970135886E+02  0.94245399841E+03  0.94866101948E+03  0.69821217532E+02 0.  0.
        -11    1    5    5    0    0 -0.83129000618E+01 -0.92631877362E+02  0.84047381185E+03  0.84560392467E+03  0.00000000000E+00 0.  1.
         12    1    5    5    0    0 -0.92092413183E+01  0.11661741476E+02  0.10198018656E+03  0.10305709481E+03  0.00000000000E+00 0. -1.
         13    1    3    3    0    0  0.50934926495E+02  0.45561434538E+02 -0.13110527421E+04  0.13128326259E+04  0.00000000000E+00 0. -1.
        -14    1    3    3    0    0 -0.21219297299E+02  0.17843237691E+02 -0.18453467329E+03  0.18660569487E+03  0.00000000000E+00 0.  1.
          5    1    4    4  501    0 -0.26781303094E+02  0.20391267803E+02  0.40649692954E+01  0.34161943349E+02  0.41800000000E+01 0.  1.
         -5    1    4    4    0  501  0.14587815278E+02 -0.28258041460E+01 -0.19192404196E+03  0.19254376076E+03  0.41800000000E+01 0.  1.
</event>
<event>
11    1  0.8041700E-009  0.1783622E+03  0.7561462E-02  0.1070975E+00
         22   -1    0    0    0    0  0.00000000000E+00  0.00000000000E+00  0.15489573917E+03  0.15489573917E+03  0.00000000000E+00 0. -1.
         22   -1    0    0    0    0 -0.00000000000E+00 -0.00000000000E+00 -0.10169122209E+04  0.10169122209E+04  0.00000000000E+00 0.  1.
         24    2    1    2    0    0 -0.19814303034E+02  0.26619256818E+02 -0.79146923361E+03  0.79593327980E+03  0.77363083632E+02 0.  0.
         25    2    1    2    0    0 -0.52032439383E+02 -0.12803373248E+03 -0.11432074152E+03  0.21866858441E+03  0.12508679573E+03 0.  0.
        -24    2    1    2    0    0  0.71846742417E+02  0.10141447566E+03  0.43773493383E+02  0.15720609588E+03  0.85736734190E+02 0.  0.
        -11    1    3    3    0    0  0.29991664077E+02  0.84746269110E+01 -0.29752138543E+03  0.29914928381E+03  0.00000000000E+00 0.  1.
         12    1    3    3    0    0 -0.49805967111E+02  0.18144629907E+02 -0.49394784818E+03  0.49678399599E+03  0.00000000000E+00 0. -1.
         13    1    5    5    0    0  0.32358598032E+02 -0.86363198559E+01  0.15559956655E+02  0.36929353343E+02  0.00000000000E+00 0. -1.
        -14    1    5    5    0    0  0.39488144385E+02  0.11005079551E+03  0.28213536728E+02  0.12027674254E+03  0.00000000000E+00 0.  1.
          5    1    4    4  501    0  0.24643302315E+01 -0.74130294168E+02  0.75122438491E+01  0.74667795231E+02  0.41800000000E+01 0.  1.
         -5    1    4    4    0  501 -0.54496769614E+02 -0.53903438308E+02 -0.12183298537E+03  0.14400078918E+03  0.41800000000E+01 0.  1.
</event>
<event>
11    1  0.9275058E-009  0.1571916E+03  0.7561462E-02  0.1089749E+00
         22   -1    0    0    0    0  0.00000000000E+00  0.00000000000E+00  0.48881726071E+03  0.48881726071E+03  0.00000000000E+00 0. -1.
         22   -1    0    0    0    0 -0.00000000000E+00 -0.00000000000E+00 -0.82660100868E+03  0.82660100868E+03  0.00000000000E+00 0. -1.
        -24    2    1    2    0    0 -0.76086954862E+02  0.72156649061E+02 -0.67618115880E+03  0.68880695445E+03  0.78982620082E+02 0.  0.
         25    2    1    2    0    0  0.23810019265E+02 -0.40936025112E+02 -0.10563647430E+03  0.17043621035E+03  0.12508701741E+03 0.  0.
         24    2    1    2    0    0  0.52276935597E+02 -0.31220623949E+02  0.44403388513E+03  0.45617510460E+03  0.84982524992E+02 0.  0.
        -11    1    5    5    0    0 -0.22364249971E+02 -0.43775978435E+01  0.14592617513E+03  0.14769485985E+03  0.00000000000E+00 0.  1.
         12    1    5    5    0    0  0.74641185568E+02 -0.26843026106E+02  0.29810771000E+03  0.30848024474E+03  0.00000000000E+00 0. -1.
         11    1    3    3    0    0 -0.71956827926E+02  0.48018840342E+02 -0.63522163370E+03  0.64108510982E+03  0.00000000000E+00 0. -1.
        -12    1    3    3    0    0 -0.41301269367E+01  0.24137808719E+02 -0.40959525108E+02  0.47721844635E+02  0.00000000000E+00 0.  1.
          5    1    4    4  501    0 -0.27218165436E+02 -0.40668296248E+02 -0.10855980392E+03  0.11915302042E+03  0.41800000000E+01 0.  1.
         -5    1    4    4    0  501  0.51028184702E+02 -0.26772886439E+00  0.29233296146E+01  0.51283189923E+02  0.41800000000E+01 0.  1.
</event>
<event>
11    1  0.8041700E-009  0.1788507E+03  0.7561462E-02  0.1070576E+00
         22   -1    0    0    0    0  0.00000000000E+00  0.00000000000E+00  0.48500519007E+03  0.48500519007E+03  0.00000000000E+00 0.  1.
         22   -1    0    0    0    0 -0.00000000000E+00 -0.00000000000E+00 -0.30278184149E+03  0.30278184149E+03  0.00000000000E+00 0.  1.
        -24    2    1    2    0    0 -0.30110233715E+02  0.15829502408E+01 -0.91201910260E+02  0.12584599416E+03  0.81303713968E+02 0.  0.
         25    2    1    2    0    0  0.11372770993E+03 -0.96266470238E+02 -0.12801036023E+03  0.23288345824E+03  0.12508727952E+03 0.  0.
         24    2    1    2    0    0 -0.83617476215E+02  0.94683519997E+02  0.40143561907E+03  0.42905757916E+03  0.83564338631E+02 0.  0.
        -11    1    5    5    0    0 -0.86339231385E+02  0.97379364240E+02  0.29356916127E+03  0.32112311643E+03  0.00000000000E+00 0.  1.
         12    1    5    5    0    0  0.27217551704E+01 -0.26958442426E+01  0.10786645779E+03  0.10793446273E+03  0.00000000000E+00 0. -1.
         11    1    3    3    0    0 -0.56025682564E+02 -0.11929691242E+02 -0.56215990019E+02  0.80258533339E+02  0.00000000000E+00 0. -1.
        -12    1    3    3    0    0  0.25915448850E+02  0.13512641483E+02 -0.34985920241E+02  0.45587460820E+02  0.00000000000E+00 0.  1.
          5    1    4    4  501    0  0.72237270260E+01 -0.86176122790E+02 -0.68446888093E+02  0.11036736502E+03  0.41800000000E+01 0. -1.
         -5    1    4    4    0  501  0.10650398290E+03 -0.10090347449E+02 -0.59563472139E+02  0.12251609323E+03  0.41800000000E+01 0. -1.
</event>
<event>
11    1  0.8041700E-009  0.1307774E+03  0.7561462E-02  0.1118318E+00
         22   -1    0    0    0    0  0.00000000000E+00  0.00000000000E+00  0.65561584379E+03  0.65561584379E+03  0.00000000000E+00 0.  1.
         22   -1    0    0    0    0 -0.00000000000E+00 -0.00000000000E+00 -0.77692703737E+03  0.77692703737E+03  0.00000000000E+00 0.  1.
        -24    2    1    2    0    0  0.25610115207E+02 -0.20467685285E+02 -0.44754690585E+03  0.45617735221E+03  0.82004509587E+02 0.  0.
         25    2    1    2    0    0 -0.56385173959E+02  0.16572608489E+02 -0.30727922399E+03  0.33694841992E+03  0.12513903066E+03 0.  0.
         24    2    1    2    0    0  0.30775058753E+02  0.38950767959E+01  0.63351493626E+03  0.63941710904E+03  0.80936944656E+02 0.  0.
        -11    1    5    5    0    0  0.57381010464E+02 -0.56864514832E+01  0.38407884811E+03  0.38838315831E+03  0.00000000000E+00 0.  1.
         12    1    5    5    0    0 -0.26605951711E+02  0.95815282791E+01  0.24943608814E+03  0.25103395073E+03  0.00000000000E+00 0. -1.
         11    1    3    3    0    0  0.52883857810E+01  0.31456796254E+02 -0.19050610165E+03  0.19315815236E+03  0.00000000000E+00 0. -1.
        -12    1    3    3    0    0  0.20321729426E+02 -0.51924481539E+02 -0.25704080419E+03  0.26301919985E+03  0.00000000000E+00 0.  1.
          5    1    4    4  501    0 -0.34075251055E+02  0.70826706025E+02 -0.15848800788E+03  0.17695611338E+03  0.41800000000E+01 0. -1.
         -5    1    4    4    0  501 -0.22309922904E+02 -0.54254097536E+02 -0.14879121610E+03  0.15999230653E+03  0.41800000000E+01 0. -1.
</event>
<event>
11    1  0.8041700E-009  0.1514002E+03  0.7561462E-02  0.1095457E+00
         22   -1    0    0    0    0  0.00000000000E+00  0.00000000000E+00  0.81446625255E+03  0.81446625255E+03  0.00000000000E+00 0. -1.
         22   -1    0    0    0    0 -0.00000000000E+00 -0.00000000000E+00 -0.13916915553E+03  0.13916915553E+03  0.00000000000E+00 0. -1.
        -24    2    1    2    0    0 -0.87030481572E+02  0.10866303363E+02 -0.68700939566E+02  0.13819133180E+03  0.81759671080E+02 0.  0.
         25    2    1    2    0    0  0.73966692917E+02 -0.63755064631E+01  0.12671876561E+03  0.19291557966E+03  0.12508819519E+03 0.  0.
         24    2    1    2    0    0  0.13063788655E+02 -0.44907969002E+01  0.61727927097E+03  0.62252849662E+03  0.79480820984E+02 0.  0.
        -13    1    5    5    0    0 -0.17251357536E+02  0.21813467876E+02  0.43474651052E+03  0.43563512844E+03  0.00000000000E+00 0.  1.
         14    1    5    5    0    0  0.30315146191E+02 -0.26304264776E+02  0.18253276045E+03  0.18689336819E+03  0.00000000000E+00 0. -1.
         13    1    3    3    0    0 -0.62079305599E+02 -0.32332763417E+02 -0.41430224393E+02  0.81337022733E+02  0.00000000000E+00 0. -1.
        -14    1    3    3    0    0 -0.24951175973E+02  0.43199066780E+02 -0.27270715173E+02  0.56854309064E+02  0.00000000000E+00 0.  1.
          5    1    4    4  501    0  0.48888017429E+02  0.22104121682E+02  0.14195258052E+03  0.15181119181E+03  0.41800000000E+01 0.  1.
         -5    1    4    4    0  501  0.25078675488E+02 -0.28479628145E+02 -0.15233814915E+02  0.41104387848E+02  0.41800000000E+01 0.  1.
</event>
<event>
11    1  0.8041700E-009  0.1758463E+03  0.7561462E-02  0.1073053E+00
         22   -1    0    0    0    0  0.00000000000E+00  0.00000000000E+00  0.56079632416E+03  0.56079632416E+03  0.00000000000E+00 0.  1.
         22   -1    0    0    0    0 -0.00000000000E+00 -0.00000000000E+00 -0.79872990547E+03  0.79872990547E+03  0.00000000000E+00 0. -1.
         24    2    1    2    0    0 -0.14796787079E+02  0.39598850820E+02 -0.70283480738E+03  0.70867227539E+03  0.80328161541E+02 0.  0.
         25    2    1    2    0    0  0.13073227126E+03 -0.71824558668E+02  0.35799268454E+02  0.19793433752E+03  0.12508685131E+03 0.  0.
        -24    2    1    2    0    0 -0.11593548418E+03  0.32225707848E+02  0.42910195763E+03  0.45291961672E+03  0.80797007598E+02 0.  0.
        -13    1    3    3    0    0  0.56884142580E+01 -0.21222913747E+02 -0.29515671450E+03  0.29597340461E+03  0.00000000000E+00 0.  1.
         14    1    3    3    0    0 -0.20485201337E+02  0.60821764566E+02 -0.40767809289E+03  0.41269887078E+03  0.00000000000E+00 0. -1.
         13    1    5    5    0    0 -0.26215184997E+01  0.17873250773E+02  0.15389560805E+03  0.15495219788E+03  0.00000000000E+00 0. -1.
        -14    1    5    5    0    0 -0.11331396568E+03  0.14352457075E+02  0.27520634958E+03  0.29796741884E+03  0.00000000000E+00 0.  1.
          5    1    4    4  501    0  0.10969520346E+03 -0.68648984850E+02  0.77527242213E+02  0.15090946447E+03  0.41800000000E+01 0.  1.
         -5    1    4    4    0  501  0.21037067804E+02 -0.31755738176E+01 -0.41727973759E+02  0.47024873045E+02  0.41800000000E+01 0.  1.
</event>
<event>
11    1  0.8041700E-009  0.1974052E+03  0.7561462E-02  0.1056374E+00
         22   -1    0    0    0    0  0.00000000000E+00  0.00000000000E+00  0.53423871504E+03  0.53423871504E+03  0.00000000000E+00 0.  1.
         22   -1    0    0    0    0 -0.00000000000E+00 -0.00000000000E+00 -0.55340393083E+03  0.55340393083E+03  0.00000000000E+00 0. -1.
         24    2    1    2    0    0  0.12977828445E+03 -0.86990672914E+02 -0.49747567243E+03  0.52732005380E+03  0.78578713330E+02 0.  0.
         25    2    1    2    0    0 -0.56894830799E+02  0.93512664873E+02  0.19393486130E+03  0.25541756549E+03  0.12508302071E+03 0.  0.
        -24    2    1    2    0    0 -0.72883453651E+02 -0.65219919590E+01  0.28437559534E+03  0.30490502658E+03  0.82116148335E+02 0.  0.
        -13    1    3    3    0    0  0.24630783306E+02 -0.52754732020E+02 -0.11109148415E+03  0.12542350293E+03  0.00000000000E+00 0.  1.
         14    1    3    3    0    0  0.10514750114E+03 -0.34235940893E+02 -0.38638418828E+03  0.40189655087E+03  0.00000000000E+00 0. -1.
         11    1    5    5    0    0  0.11339633838E+02  0.64690014471E+01  0.11050207988E+03  0.11127059330E+03  0.00000000000E+00 0. -1.
        -12    1    5    5    0    0 -0.84223087489E+02 -0.12990993406E+02  0.17387351545E+03  0.19363443328E+03  0.00000000000E+00 0.  1.
          5    1    4    4  501    0  0.15553647343E+02  0.39391512795E+02  0.14781332838E+03  0.15381761822E+03  0.41800000000E+01 0. -1.
         -5    1    4    4    0  501 -0.72448478142E+02  0.54121152078E+02  0.46121532918E+02  0.10159994727E+03  0.41800000000E+01 0. -1.
</event>
<event>
11    1  0.8041700E-009  0.1419281E+03  0.7561462E-02  0.1105424E+00
         22   -1    0    0    0    0  0.00000000000E+00  0.00000000000E+00  0.15127118258E+03  0.15127118258E+03  0.00000000000E+00 0. -1.
         22   -1    0    0    0    0 -0.00000000000E+00 -0.00000000000E+00 -0.37682256116E+03  0.37682256116E+03  0.00000000000E+00 0. -1.
        -24    2    1    2    0    0 -0.32534849274E+02 -0.10500494909E+02 -0.20066526066E+03  0.21881844581E+03  0.80288159674E+02 0.  0.
         25    2    1    2    0    0  0.90708479547E+02 -0.14176138666E+02 -0.10043334069E+03  0.18483300360E+03  0.12508953645E+03 0.  0.
         24    2    1    2    0    0 -0.58173630273E+02  0.24676633575E+02  0.75547222763E+02  0.12444229431E+03  0.76061779123E+02 0.  0.
        -13    1    5    5    0    0 -0.17772838365E+02  0.14212054714E+01 -0.14541448004E+02  0.23007549165E+02  0.00000000000E+00 0.  1.
         14    1    5    5    0    0 -0.40400791907E+02  0.23255428104E+02  0.90088670767E+02  0.10143474515E+03  0.00000000000E+00 0. -1.
         11    1    3    3    0    0 -0.44381890821E+00  0.29737689209E+02 -0.11586804733E+03  0.11962412602E+03  0.00000000000E+00 0. -1.
        -12    1    3    3    0    0 -0.32091030366E+02 -0.40238184118E+02 -0.84797213328E+02  0.99194319794E+02  0.00000000000E+00 0.  1.
          5    1    4    4  501    0  0.58198939375E+02 -0.48433501490E+02 -0.23226875822E+01  0.75866909049E+02  0.41800000000E+01 0.  1.
         -5    1    4    4    0  501  0.32509540172E+02  0.34257362825E+02 -0.98110653106E+02  0.10896609456E+03  0.41800000000E+01 0.  1.
</event>
<event>
11    1  0.8041700E-009  0.1382679E+03  0.7561462E-02  0.1109508E+00
         22   -1    0    0    0    0  0.00000000000E+00  0.00000000000E+00  0.75232667340E+03  0.75232667340E+03  0.00000000000E+00 0. -1.
         22   -1    0    0    0    0 -0.00000000000E+00 -0.00000000000E+00 -0.12875215546E+04  0.12875215546E+04  0.00000000000E+00 0.  1.
         24    2    1    2    0    0 -0.54214403669E+01  0.58777760693E+02 -0.12332374761E+04  0.12371869347E+04  0.79199884306E+02 0.  0.
         25    2    1    2    0    0 -0.24117131894E+02 -0.53071517021E+02  0.46732335573E+02  0.14572403859E+03  0.12511339762E+03 0.  0.
        -24    2    1    2    0    0  0.29538572261E+02 -0.57062436723E+01  0.65131025932E+03  0.65693725475E+03  0.80351815898E+02 0.  0.
        -11    1    3    3    0    0  0.15699609232E+02  0.42126745265E+02 -0.11159531753E+04  0.11168583750E+04  0.00000000000E+00 0.  1.
         12    1    3    3    0    0 -0.21121049599E+02  0.16651015428E+02 -0.11728430083E+03  0.12032855967E+03  0.00000000000E+00 0. -1.
         13    1    5    5    0    0  0.54670116858E+02 -0.92941571098E+01  0.33011943981E+03  0.33474474988E+03  0.00000000000E+00 0. -1.
        -14    1    5    5    0    0 -0.25131544597E+02  0.35879134375E+01  0.32119081951E+03  0.32219250487E+03  0.00000000000E+00 0.  1.
          5    1    4    4  501    0  0.10259571705E+02  0.35001806548E+02  0.34356321084E+02  0.50281353121E+02  0.41800000000E+01 0.  1.
         -5    1    4    4    0  501 -0.34376703599E+02 -0.88073323569E+02  0.12376014489E+02  0.95442685468E+02  0.41800000000E+01 0.  1.
</event>
<event>
11    1  0.8041700E-009  0.1392074E+03  0.7561462E-02  0.1108447E+00
         22   -1    0    0    0    0  0.00000000000E+00  0.00000000000E+00  0.15717852421E+04  0.15717852421E+04  0.00000000000E+00 0. -1.
         22   -1    0    0    0    0 -0.00000000000E+00 -0.00000000000E+00 -0.20482653429E+03  0.20482653429E+03  0.00000000000E+00 0.  1.
         24    2    1    2    0    0 -0.23460652759E+01  0.81514575106E+00 -0.18716152544E+03  0.20390928235E+03  0.80891225346E+02 0.  0.
         25    2    1    2    0    0 -0.16631212601E+02  0.57846463939E+02  0.82327265578E+03  0.83489302736E+03  0.12508273565E+03 0.  0.
        -24    2    1    2    0    0  0.18977277877E+02 -0.58661609690E+02  0.73084757745E+03  0.73780946666E+03  0.80145530754E+02 0.  0.
        -13    1    3    3    0    0 -0.19113639513E+02 -0.25617939821E+02 -0.15775512905E+03  0.16096052559E+03  0.00000000000E+00 0.  1.
         14    1    3    3    0    0  0.16767574237E+02  0.26433085572E+02 -0.29406396393E+02  0.42948756763E+02  0.00000000000E+00 0. -1.
         11    1    5    5    0    0 -0.17127158339E+01 -0.59885929671E+02  0.68354449418E+03  0.68616494627E+03  0.00000000000E+00 0. -1.
        -12    1    5    5    0    0  0.20689993711E+02  0.12243199806E+01  0.47303083270E+02  0.51644520387E+02  0.00000000000E+00 0.  1.
          5    1    4    4  501    0 -0.11156039391E+02  0.91330331530E+02  0.41043421252E+03  0.42064165495E+03  0.41800000000E+01 0.  1.
         -5    1    4    4    0  501 -0.54751732108E+01 -0.33483867590E+02  0.41283844326E+03  0.41425137241E+03  0.41800000000E+01 0.  1.
</event>
<event>
11    1  0.8041700E-009  0.1415495E+03  0.7561462E-02  0.1105840E+00
         22   -1    0    0    0    0  0.00000000000E+00  0.00000000000E+00  0.75262584982E+03  0.75262584982E+03  0.00000000000E+00 0. -1.
         22   -1    0    0    0    0 -0.00000000000E+00 -0.00000000000E+00 -0.41548402473E+03  0.41548402473E+03  0.00000000000E+00 0. -1.
        -24    2    1    2    0    0 -0.37491870221E+02 -0.56257298904E+02 -0.37327886289E+03  0.38787043620E+03  0.80844553248E+02 0.  0.
         25    2    1    2    0    0 -0.92871849962E+01  0.52238394639E+02  0.11615016794E+03  0.17875536087E+03  0.12509003097E+03 0.  0.
         24    2    1    2    0    0  0.46779055218E+02  0.40189042649E+01  0.59427052004E+03  0.60148407747E+03  0.80132470770E+02 0.  0.
        -11    1    5    5    0    0  0.41003627276E+02 -0.19127800846E+02  0.15251514349E+03  0.15908500623E+03  0.00000000000E+00 0.  1.
         12    1    5    5    0    0  0.57754279418E+01  0.23146705111E+02  0.44175537655E+03  0.44239907124E+03  0.00000000000E+00 0. -1.
         13    1    3    3    0    0 -0.52892673012E+02 -0.24724931199E+02 -0.31056769870E+03  0.31600831090E+03  0.00000000000E+00 0. -1.
        -14    1    3    3    0    0  0.15400802790E+02 -0.31532367705E+02 -0.62711164187E+02  0.71862125305E+02  0.00000000000E+00 0.  1.
          5    1    4    4  501    0 -0.42273328628E+02  0.64283169429E+02  0.12059966111E+03  0.14311223164E+03  0.41800000000E+01 0.  1.
         -5    1    4    4    0  501  0.32986143632E+02 -0.12044774789E+02 -0.44494931772E+01  0.35643129225E+02  0.41800000000E+01 0.  1.
</event>
<event>
11    1  0.8041700E-009  0.1644659E+03  0.7561462E-02  0.1082951E+00
         22   -1    0    0    0    0  0.00000000000E+00  0.00000000000E+00  0.60152253526E+03  0.60152253526E+03  0.00000000000E+00 0. -1.
         22   -1    0    0    0    0 -0.00000000000E+00 -0.00000000000E+00 -0.14043060508E+03  0.14043060508E+03  0.00000000000E+00 0. -1.
         24    2    1    2    0    0  0.17171088869E+02  0.10252794725E+03  0.17187096108E+02  0.13335450230E+03  0.81738612361E+02 0.  0.
         25    2    1    2    0    0  0.74232321485E+02 -0.10857535469E+03  0.37999754601E+02  0.18544537853E+03  0.12508781663E+03 0.  0.
        -24    2    1    2    0    0 -0.91403410354E+02  0.60474074348E+01  0.40590507947E+03  0.42315325951E+03  0.76867372370E+02 0.  0.
        -11    1    3    3    0    0  0.46878297321E+02  0.42457023014E+02  0.19843232944E+02  0.66286706485E+02  0.00000000000E+00 0.  1.
         12    1    3    3    0    0 -0.29707208452E+02  0.60070924237E+02 -0.26561368363E+01  0.67067795816E+02  0.00000000000E+00 0. -1.
         11    1    5    5    0    0 -0.19742972933E+02 -0.11476767473E+02  0.24592552788E+03  0.24698353475E+03  0.00000000000E+00 0. -1.
        -12    1    5    5    0    0 -0.71660437421E+02  0.17524174908E+02  0.15997955158E+03  0.17616972476E+03  0.00000000000E+00 0.  1.
          5    1    4    4  501    0 -0.12158898702E+02  0.16712192462E+02  0.24916959319E+02  0.32641437717E+02  0.41800000000E+01 0.  1.
         -5    1    4    4    0  501  0.86391220187E+02 -0.12528754715E+03  0.13082795282E+02  0.15280394081E+03  0.41800000000E+01 0.  1.
</event>
<event>
11    1  0.8041700E-009  0.1331991E+03  0.7561462E-02  0.1115400E+00
         22   -1    0    0    0    0  0.00000000000E+00  0.00000000000E+00  0.20333172601E+04  0.20333172601E+04  0.00000000000E+00 0.  1.
         22   -1    0    0    0    0 -0.00000000000E+00 -0.00000000000E+00 -0.44036575685E+03  0.44036575685E+03  0.00000000000E+00 0. -1.
         24    2    1    2    0    0  0.42768999436E+02 -0.16531450625E+02 -0.41492462301E+03  0.42567958190E+03  0.83295783195E+02 0.  0.
         25    2    1    2    0    0 -0.45082115932E+02  0.85460331203E+01  0.21209738465E+03  0.25046300542E+03  0.12506392226E+03 0.  0.
        -24    2    1    2    0    0  0.23131164957E+01  0.79854175050E+01  0.17957787416E+04  0.17975404296E+04  0.79127681475E+02 0.  0.
        -13    1    3    3    0    0  0.35122828931E+02  0.24114673630E+02 -0.30973063153E+03  0.31264707692E+03  0.00000000000E+00 0.  1.
         14    1    3    3    0    0  0.76461705056E+01 -0.40646124255E+02 -0.10519399147E+03  0.11303250498E+03  0.00000000000E+00 0. -1.
         11    1    5    5    0    0 -0.26457351403E+01  0.21929526075E+02  0.14304052306E+03  0.14473595015E+03  0.00000000000E+00 0. -1.
        -12    1    5    5    0    0  0.49588516359E+01 -0.13944108570E+02  0.16527382185E+04  0.16528044794E+04  0.00000000000E+00 0.  1.
          5    1    4    4  501    0 -0.60151724715E+02  0.28896658763E+02  0.21450541513E+03  0.22468487353E+03  0.41800000000E+01 0. -1.
         -5    1    4    4    0  501  0.15069608782E+02 -0.20350625643E+02 -0.24080304806E+01  0.25778131890E+02  0.41800000000E+01 0. -1.
</event>
<event>
11    1  0.8041700E-009  0.1335464E+03  0.7561462E-02  0.1114987E+00
         22   -1    0    0    0    0  0.00000000000E+00  0.00000000000E+00  0.89183172077E+03  0.89183172077E+03  0.00000000000E+00 0.  1.
         22   -1    0    0    0    0 -0.00000000000E+00 -0.00000000000E+00 -0.19100736584E+04  0.19100736584E+04  0.00000000000E+00 0. -1.
         24    2    1    2    0    0  0.21587093510E+02  0.30063497465E+02 -0.18832120685E+04  0.18853552437E+04  0.81895562777E+02 0.  0.
         25    2    1    2    0    0  0.27737614966E+02 -0.29325892556E+02  0.16776437984E+03  0.21311499796E+03  0.12507490538E+03 0.  0.
        -24    2    1    2    0    0 -0.49324708476E+02 -0.73760490898E+00  0.69720575107E+03  0.70343513756E+03  0.79320000626E+02 0.  0.
        -13    1    3    3    0    0  0.20017066357E+02  0.49708048025E+02 -0.72584401744E+03  0.72781942172E+03  0.00000000000E+00 0.  1.
         14    1    3    3    0    0  0.15700271527E+01 -0.19644550560E+02 -0.11573680511E+04  0.11575358219E+04  0.00000000000E+00 0. -1.
         13    1    5    5    0    0  0.13738625247E+02  0.22089993244E+02  0.16951761781E+03  0.17150201273E+03  0.00000000000E+00 0. -1.
        -14    1    5    5    0    0 -0.63063333723E+02 -0.22827598153E+02  0.52768813326E+03  0.53193312482E+03  0.00000000000E+00 0.  1.
          5    1    4    4  501    0  0.20321444888E+02 -0.72070934282E+02  0.57357920800E+02  0.94417075623E+02  0.41800000000E+01 0. -1.
         -5    1    4    4    0  501  0.74161700787E+01  0.42745041726E+02  0.11040645904E+03  0.11869792234E+03  0.41800000000E+01 0. -1.
</event>
<event>
11    1  0.8041700E-009  0.1672664E+03  0.7561462E-02  0.1080435E+00
         22   -1    0    0    0    0  0.00000000000E+00  0.00000000000E+00  0.13484815952E+04  0.13484815952E+04  0.00000000000E+00 0. -1.
         22   -1    0    0    0    0 -0.00000000000E+00 -0.00000000000E+00 -0.12201887024E+03  0.12201887024E+03  0.00000000000E+00 0.  1.
         24    2    1    2    0    0 -0.23062925460E+02  0.49649449261E+02 -0.72857921110E+02  0.12229329666E+03  0.81550030023E+02 0.  0.
         25    2    1    2    0    0  0.11273659810E+03  0.19141485048E+02  0.35420091040E+03  0.39265415780E+03  0.12507224196E+03 0.  0.
        -24    2    1    2    0    0 -0.89673672636E+02 -0.68790934309E+02  0.94511973564E+03  0.95555301096E+03  0.84004058536E+02 0.  0.
        -13    1    3    3    0    0 -0.13854261038E+02  0.53450714429E+02 -0.88165598662E+02  0.10402928534E+03  0.00000000000E+00 0.  1.
         14    1    3    3    0    0 -0.92086644218E+01 -0.38012651681E+01  0.15307677552E+02  0.18264011316E+02  0.00000000000E+00 0. -1.
         11    1    5    5    0    0 -0.73423085246E+02 -0.22556958509E+02  0.76628801337E+03  0.77012796681E+03  0.00000000000E+00 0. -1.
        -12    1    5    5    0    0 -0.16250587390E+02 -0.46233975800E+02  0.17883172227E+03  0.18542504415E+03  0.00000000000E+00 0.  1.
          5    1    4    4  501    0  0.61455682411E+01  0.55601551754E+02  0.10208398154E+03  0.11648138157E+03  0.41800000000E+01 0.  1.
         -5    1    4    4    0  501  0.10659102986E+03 -0.36460066706E+02  0.25211692887E+03  0.27617277623E+03  0.41800000000E+01 0.  1.
</event>
<event>
11    1  0.8041700E-009  0.1482626E+03  0.7561462E-02  0.1098667E+00
         22   -1    0    0    0    0  0.00000000000E+00  0.00000000000E+00  0.18834406165E+03  0.18834406165E+03  0.00000000000E+00 0. -1.
         22   -1    0    0    0    0 -0.00000000000E+00 -0.00000000000E+00 -0.39627001314E+03  0.39627001314E+03  0.00000000000E+00 0.  1.
         24    2    1    2    0    0  0.52068674586E+02 -0.38413116912E+01 -0.28513077694E+03  0.30066584664E+03  0.79840395946E+02 0.  0.
         25    2    1    2    0    0 -0.87978118132E+02  0.61842572037E+02  0.29086597556E+02  0.16750529365E+03  0.12508932912E+03 0.  0.
        -24    2    1    2    0    0  0.35909443546E+02 -0.58001260346E+02  0.48118227901E+02  0.11644293451E+03  0.81178561225E+02 0.  0.
        -11    1    3    3    0    0  0.66069024624E+02  0.12148046640E+02 -0.25561549423E+03  0.26429523632E+03  0.00000000000E+00 0.  1.
         12    1    3    3    0    0 -0.14000350038E+02 -0.15989358332E+02 -0.29515282715E+02  0.36370610316E+02  0.00000000000E+00 0. -1.
         11    1    5    5    0    0  0.24170339758E+02 -0.76563494673E+02  0.49695503102E+02  0.94423604407E+02  0.00000000000E+00 0. -1.
        -12    1    5    5    0    0  0.11739103788E+02  0.18562234327E+02 -0.15772752018E+01  0.22019330099E+02  0.00000000000E+00 0.  1.
          5    1    4    4  501    0  0.33106146900E+01 -0.32486526260E+02  0.12105228904E+02  0.35076253005E+02  0.41800000000E+01 0. -1.
         -5    1    4    4    0  501 -0.91288732822E+02  0.94329098297E+02  0.16981368652E+02  0.13242904065E+03  0.41800000000E+01 0. -1.
</event>
<event>
11    1  0.8041700E-009  0.1658172E+03  0.7561462E-02  0.1081730E+00
         22   -1    0    0    0    0  0.00000000000E+00  0.00000000000E+00  0.25575131964E+03  0.25575131964E+03  0.00000000000E+00 0. -1.
         22   -1    0    0    0    0 -0.00000000000E+00 -0.00000000000E+00 -0.20150419765E+04  0.20150419765E+04  0.00000000000E+00 0. -1.
         24    2    1    2    0    0  0.27452587442E+02 -0.23381221061E+02 -0.18480900666E+04  0.18505843900E+04  0.89024516138E+02 0.  0.
         25    2    1    2    0    0  0.26284733030E+02  0.11688565475E+03 -0.90782358574E+02  0.19555487591E+03  0.12508848624E+03 0.  0.
        -24    2    1    2    0    0 -0.53737320472E+02 -0.93504433690E+02  0.17958176826E+03  0.22465403020E+03  0.81172920745E+02 0.  0.
        -11    1    3    3    0    0  0.55976407763E+02  0.44188956616E+01 -0.10462379033E+04  0.10477435923E+04  0.00000000000E+00 0.  1.
         12    1    3    3    0    0 -0.28523820322E+02 -0.27800116723E+02 -0.80185216328E+03  0.80284079778E+03  0.00000000000E+00 0. -1.
         11    1    5    5    0    0 -0.29589141289E+02 -0.50697324154E+01  0.96050702200E+02  0.10063278224E+03  0.00000000000E+00 0. -1.
        -12    1    5    5    0    0 -0.24148179183E+02 -0.88434701275E+02  0.83531066061E+02  0.12402124796E+03  0.00000000000E+00 0.  1.
          5    1    4    4  501    0 -0.62592097174E+01  0.49051252749E+01 -0.77606537031E+02  0.78124803681E+02  0.41800000000E+01 0. -1.
         -5    1    4    4    0  501  0.32543942748E+02  0.11198052948E+03 -0.13175821543E+02  0.11743007223E+03  0.41800000000E+01 0. -1.
</event>
<event>
11    1  0.8041700E-009  0.1567097E+03  0.7561462E-02  0.1090213E+00
         22   -1    0    0    0    0  0.00000000000E+00  0.00000000000E+00  0.41436838634E+03  0.41436838634E+03  0.00000000000E+00 0. -1.
         22   -1    0    0    0    0 -0.00000000000E+00 -0.00000000000E+00 -0.12659802231E+04  0.12659802231E+04  0.00000000000E+00 0. -1.
        -24    2    1    2    0    0 -0.57289757811E+02  0.40772786752E+02 -0.11386813384E+04  0.11435896602E+04  0.79104891874E+02 0.  0.
         25    2    1    2    0    0  0.88922148191E+02 -0.12412084144E+03 -0.28161467504E+02  0.19938269671E+03  0.12508900742E+03 0.  0.
         24    2    1    2    0    0 -0.31632390379E+02  0.83348054685E+02  0.31523096913E+03  0.33737625258E+03  0.80651506892E+02 0.  0.
        -13    1    5    5    0    0 -0.55365434661E+01  0.62409386178E+02  0.89925454872E+02  0.10960005580E+03  0.00000000000E+00 0.  1.
         14    1    5    5    0    0 -0.26095846913E+02  0.20938668507E+02  0.22530551426E+03  0.22777619678E+03  0.00000000000E+00 0. -1.
         13    1    3    3    0    0 -0.69688322306E+02  0.78108521012E+01 -0.70389449852E+03  0.70737892019E+03  0.00000000000E+00 0. -1.
        -14    1    3    3    0    0  0.12398564495E+02  0.32961934651E+02 -0.43478683987E+03  0.43621073997E+03  0.00000000000E+00 0.  1.
          5    1    4    4  501    0  0.56316037141E+02  0.90516399740E+01 -0.24350943944E+02  0.62160028124E+02  0.41800000000E+01 0.  1.
         -5    1    4    4    0  501  0.32606111050E+02 -0.13317248141E+03 -0.38105235596E+01  0.13722266858E+03  0.41800000000E+01 0.  1.
</event>
<event>
11    1  0.8041700E-009  0.2214269E+03  0.7561462E-02  0.1040327E+00
         22   -1    0    0    0    0  0.00000000000E+00  0.00000000000E+00  0.10914263122E+04  0.10914263122E+04  0.00000000000E+00 0.  1.
         22   -1    0    0    0    0 -0.00000000000E+00 -0.00000000000E+00 -0.46325786604E+03  0.46325786604E+03  0.00000000000E+00 0.  1.
        -24    2    1    2    0    0  0.34725850741E+02  0.30348556133E+02 -0.36797846437E+03  0.38127064442E+03  0.88499912356E+02 0.  0.
         25    2    1    2    0    0 -0.10614466296E+03 -0.19284717512E+03  0.12886058785E+03  0.28409502682E+03  0.12509280849E+03 0.  0.
         24    2    1    2    0    0  0.71418812220E+02  0.16249861899E+03  0.86728632266E+03  0.88931850697E+03  0.84825665083E+02 0.  0.
        -13    1    5    5    0    0  0.46945415759E+02  0.14340731085E+03  0.81211999574E+03  0.82601962225E+03  0.00000000000E+00 0.  1.
         14    1    5    5    0    0  0.24473396461E+02  0.19091308140E+02  0.55166326922E+02  0.63298884720E+02  0.00000000000E+00 0. -1.
         13    1    3    3    0    0  0.54480400162E+02  0.10728005309E+02 -0.12595906515E+03  0.13765496792E+03  0.00000000000E+00 0. -1.
        -14    1    3    3    0    0 -0.19754549420E+02  0.19620550825E+02 -0.24201939922E+03  0.24361567650E+03  0.00000000000E+00 0.  1.
          5    1    4    4  501    0 -0.93589569951E+02 -0.49201260550E+02  0.32801781746E+02  0.11078447964E+03  0.41800000000E+01 0.  1.
         -5    1    4    4    0  501 -0.12555093010E+02 -0.14364591457E+03  0.96058806106E+02  0.17331054718E+03  0.41800000000E+01 0.  1.
</event>
<event>
11    1  0.8041700E-009  0.2939056E+03  0.7561462E-02  0.1002804E+00
         22   -1    0    0    0    0  0.00000000000E+00  0.00000000000E+00  0.15606806721E+04  0.15606806721E+04  0.00000000000E+00 0.  1.
         22   -1    0    0    0    0 -0.00000000000E+00 -0.00000000000E+00 -0.30783954000E+03  0.30783954000E+03  0.00000000000E+00 0. -1.
         24    2    1    2    0    0  0.17129210724E+03 -0.72967124330E+02 -0.15552582744E+03  0.25751514450E+03  0.86374645640E+02 0.  0.
         25    2    1    2    0    0 -0.38101716137E+03 -0.58455959075E+02  0.39905008749E+03  0.56875281973E+03  0.12509045213E+03 0.  0.
        -24    2    1    2    0    0  0.20972505413E+03  0.13142308340E+03  0.10093168720E+04  0.10422522479E+04  0.79451713732E+02 0.  0.
        -13    1    3    3    0    0 -0.36089288649E+01 -0.12908452576E+02  0.32358072710E+01  0.13788508409E+02  0.00000000000E+00 0.  1.
         14    1    3    3    0    0  0.17490103610E+03 -0.60058671754E+02 -0.15876163471E+03  0.24372663609E+03  0.00000000000E+00 0. -1.
         11    1    5    5    0    0  0.51927716142E+02  0.33950325902E+02  0.13637832917E+03  0.14982710369E+03  0.00000000000E+00 0. -1.
        -12    1    5    5    0    0  0.15779733799E+03  0.97472757503E+02  0.87293854287E+03  0.89242514418E+03  0.00000000000E+00 0.  1.
          5    1    4    4  501    0 -0.16516620308E+02  0.25997803220E+02  0.30935761410E+02  0.43854056285E+02  0.41800000000E+01 0. -1.
         -5    1    4    4    0  501 -0.36450054106E+03 -0.84453762295E+02  0.36811432608E+03  0.52489876344E+03  0.41800000000E+01 0. -1.
</event>
<event>
11    1  0.8041700E-009  0.1336239E+03  0.7561462E-02  0.1114895E+00
         22   -1    0    0    0    0  0.00000000000E+00  0.00000000000E+00  0.78972973510E+02  0.78972973510E+02  0.00000000000E+00 0.  1.
         22   -1    0    0    0    0 -0.00000000000E+00 -0.00000000000E+00 -0.81598709981E+03  0.81598709981E+03  0.00000000000E+00 0.  1.
        -24    2    1    2    0    0  0.12520288041E+02  0.16061039667E+02 -0.60279163086E+03  0.60845641805E+03  0.80291642287E+02 0.  0.
         25    2    1    2    0    0  0.19454266638E+02 -0.49389312806E+02 -0.13864339740E+03  0.19413249210E+03  0.12509060772E+03 0.  0.
         24    2    1    2    0    0 -0.31974554679E+02  0.33328273139E+02  0.44209019554E+01  0.92371163167E+02  0.79873283853E+02 0.  0.
        -13    1    5    5    0    0 -0.82030369001E+01 -0.17252129291E+02  0.26169934382E+02  0.32400482173E+02  0.00000000000E+00 0.  1.
         14    1    5    5    0    0 -0.23771517778E+02  0.50580402430E+02 -0.21749032426E+02  0.59970680995E+02  0.00000000000E+00 0. -1.
         11    1    3    3    0    0 -0.25820664748E+02 -0.51655907845E+01 -0.89391638399E+02  0.93189350636E+02  0.00000000000E+00 0. -1.
        -12    1    3    3    0    0  0.38340952789E+02  0.21226630451E+02 -0.51339999246E+03  0.51526706741E+03  0.00000000000E+00 0.  1.
          5    1    4    4  501    0  0.22740568018E+02 -0.47394437695E+02  0.25783030755E+01  0.52796649561E+02  0.41800000000E+01 0.  1.
         -5    1    4    4    0  501 -0.32863013796E+01 -0.19948751110E+01 -0.14122170047E+03  0.14133584254E+03  0.41800000000E+01 0.  1.
</event>
<event>
11    1  0.8041700E-009  0.1716050E+03  0.7561462E-02  0.1076643E+00
         22   -1    0    0    0    0  0.00000000000E+00  0.00000000000E+00  0.40879896245E+03  0.40879896245E+03  0.00000000000E+00 0.  1.
         22   -1    0    0    0    0 -0.00000000000E+00 -0.00000000000E+00 -0.16440599635E+04  0.16440599635E+04  0.00000000000E+00 0.  1.
        -24    2    1    2    0    0  0.51151188208E+01 -0.11812700249E+03 -0.15579087310E+04  0.15645073058E+04  0.81383921792E+02 0.  0.
         25    2    1    2    0    0  0.88031127804E+02  0.93972933174E+02  0.45826515083E+02  0.18527359254E+03  0.12508334412E+03 0.  0.
         24    2    1    2    0    0 -0.93146246624E+02  0.24154069313E+02  0.27682121485E+03  0.30307802759E+03  0.77244180956E+02 0.  0.
        -11    1    5    5    0    0 -0.40102320534E+02  0.34446929657E+02  0.21296562802E+03  0.21942913615E+03  0.00000000000E+00 0.  1.
         12    1    5    5    0    0 -0.53043926090E+02 -0.10292860344E+02  0.63855586833E+02  0.83648891439E+02  0.00000000000E+00 0. -1.
         13    1    3    3    0    0 -0.86601866729E+01  0.28483758149E+01 -0.22475474533E+02  0.24254051898E+02  0.00000000000E+00 0. -1.
        -14    1    3    3    0    0  0.13775305494E+02 -0.12097537830E+03 -0.15354332564E+04  0.15402532539E+04  0.00000000000E+00 0.  1.
          5    1    4    4  501    0  0.11357383998E+03  0.58785658964E+02  0.92273456060E+01  0.12828634820E+03  0.41800000000E+01 0.  1.
         -5    1    4    4    0  501 -0.25542712172E+02  0.35187274210E+02  0.36599169477E+02  0.56987244343E+02  0.41800000000E+01 0.  1.
</event>
<event>
11    1  0.8041700E-009  0.1847675E+03  0.7561462E-02  0.1065850E+00
         22   -1    0    0    0    0  0.00000000000E+00  0.00000000000E+00  0.69191751911E+03  0.69191751911E+03  0.00000000000E+00 0. -1.
         22   -1    0    0    0    0 -0.00000000000E+00 -0.00000000000E+00 -0.36529357227E+03  0.36529357227E+03  0.00000000000E+00 0.  1.
        -24    2    1    2    0    0  0.11270510098E+03  0.69052394881E+02 -0.24050395402E+03  0.28393217079E+03  0.72833046663E+02 0.  0.
         25    2    1    2    0    0 -0.97941621156E+02 -0.13251500687E+03  0.10577493835E+02  0.20715101432E+03  0.12508745404E+03 0.  0.
         24    2    1    2    0    0 -0.14763479823E+02  0.63462611990E+02  0.55655040703E+03  0.56612790627E+03  0.80665898866E+02 0.  0.
        -13    1    5    5    0    0  0.18284181480E+02  0.56870645640E+02  0.22242113627E+03  0.23030358982E+03  0.00000000000E+00 0.  1.
         14    1    5    5    0    0 -0.33047661303E+02  0.65919663508E+01  0.33412927076E+03  0.33582431645E+03  0.00000000000E+00 0. -1.
         13    1    3    3    0    0 -0.24612772312E+01 -0.71934632732E+01 -0.38371332331E+02  0.39117297252E+02  0.00000000000E+00 0. -1.
        -14    1    3    3    0    0  0.11516637821E+03  0.76245858154E+02 -0.20213262169E+03  0.24481487354E+03  0.00000000000E+00 0.  1.
          5    1    4    4  501    0 -0.10403237376E+03 -0.10522747973E+03  0.52089003171E+02  0.15692767102E+03  0.41800000000E+01 0. -1.
         -5    1    4    4    0  501  0.60907526070E+01 -0.27287527144E+02 -0.41511509336E+02  0.50223343301E+02  0.41800000000E+01 0. -1.
</event>
<event>
11    1  0.8041700E-009  0.1723216E+03  0.7561462E-02  0.1076029E+00
         22   -1    0    0    0    0  0.00000000000E+00  0.00000000000E+00  0.28622811742E+03  0.28622811742E+03  0.00000000000E+00 0.  1.
         22   -1    0    0    0    0 -0.00000000000E+00 -0.00000000000E+00 -0.11336808002E+04  0.11336808002E+04  0.00000000000E+00 0. -1.
         24    2    1    2    0    0  0.34923425989E+00  0.14333062082E+03 -0.90764819516E+03  0.92226659457E+03  0.78782208971E+02 0.  0.
         25    2    1    2    0    0  0.18123531508E+02 -0.43222688802E+02 -0.17985980426E+03  0.22404096769E+03  0.12509253692E+03 0.  0.
        -24    2    1    2    0    0 -0.18472765768E+02 -0.10010793202E+03  0.24005531662E+03  0.27360135538E+03  0.82875240568E+02 0.  0.
        -11    1    3    3    0    0  0.17708814927E+02  0.58894017608E+01 -0.47513086310E+02  0.51046846621E+02  0.00000000000E+00 0.  1.
         12    1    3    3    0    0 -0.17359580667E+02  0.13744121906E+03 -0.86013510885E+03  0.87121974795E+03  0.00000000000E+00 0. -1.
         13    1    5    5    0    0 -0.29621175064E+02 -0.70824683678E+02  0.81435883166E+02  0.11191672305E+03  0.00000000000E+00 0. -1.
        -14    1    5    5    0    0  0.11148409296E+02 -0.29283248340E+02  0.15861943345E+03  0.16168463233E+03  0.00000000000E+00 0.  1.
          5    1    4    4  501    0 -0.53053261224E+02 -0.16343692724E+02 -0.93973394537E+02  0.10922562016E+03  0.41800000000E+01 0. -1.
         -5    1    4    4    0  501  0.71176792732E+02 -0.26878996078E+02 -0.85886409723E+02  0.11481534753E+03  0.41800000000E+01 0. -1.
</event>
<event>
11    1  0.8041700E-009  0.1572540E+03  0.7561462E-02  0.1089689E+00
         22   -1    0    0    0    0  0.00000000000E+00  0.00000000000E+00  0.69681385137E+03  0.69681385137E+03  0.00000000000E+00 0.  1.
         22   -1    0    0    0    0 -0.00000000000E+00 -0.00000000000E+00 -0.90443250406E+02  0.90443250406E+02  0.00000000000E+00 0.  1.
         24    2    1    2    0    0  0.11996827074E+01  0.56681676788E+01 -0.61405542808E+01  0.82935092260E+02  0.82504277209E+02 0.  0.
         25    2    1    2    0    0 -0.15155475118E+02 -0.98764771638E+02  0.13758152741E+03  0.21109622175E+03  0.12509504230E+03 0.  0.
        -24    2    1    2    0    0  0.13955792411E+02  0.93096603959E+02  0.47492962783E+03  0.49322578776E+03  0.94083922726E+02 0.  0.
        -11    1    3    3    0    0  0.92715122359E+01  0.30382687693E+02 -0.32825117737E+02  0.45678846363E+02  0.00000000000E+00 0.  1.
         12    1    3    3    0    0 -0.80718295285E+01 -0.24714520014E+02  0.26684563456E+02  0.37256245897E+02  0.00000000000E+00 0. -1.
         13    1    5    5    0    0  0.14619338465E+02  0.81959206137E+02  0.18260000228E+03  0.20068332607E+03  0.00000000000E+00 0. -1.
        -14    1    5    5    0    0 -0.66354605435E+00  0.11137397822E+02  0.29232962555E+03  0.29254246170E+03  0.00000000000E+00 0.  1.
          5    1    4    4  501    0 -0.68026699133E+02 -0.73894581480E+02  0.98062567309E+02  0.14043425677E+03  0.41800000000E+01 0. -1.
         -5    1    4    4    0  501  0.52871224015E+02 -0.24870190158E+02  0.39518960106E+02  0.70661964982E+02  0.41800000000E+01 0. -1.
</event>
<event>
11    1  0.1090199E-008  0.1592943E+03  0.7561462E-02  0.1087743E+00
         22   -1    0    0    0    0  0.00000000000E+00  0.00000000000E+00  0.35043749281E+03  0.35043749281E+03  0.00000000000E+00 0.  1.
         22   -1    0    0    0    0 -0.00000000000E+00 -0.00000000000E+00 -0.28653489648E+04  0.28653489648E+04  0.00000000000E+00 0. -1.
         24    2    1    2    0    0 -0.47190684734E+02 -0.17110071789E+02 -0.19436316742E+04  0.19457089672E+04  0.74562624538E+02 0.  0.
         25    2    1    2    0    0  0.77671734244E+02 -0.76714067111E+02 -0.90116782074E+03  0.91633395187E+03  0.12508606567E+03 0.  0.
        -24    2    1    2    0    0 -0.30481049510E+02  0.93824138901E+02  0.32988802286E+03  0.35374353858E+03  0.81094512996E+02 0.  0.
        -13    1    3    3    0    0 -0.24566813473E+02 -0.17949740670E+00 -0.16191352907E+03  0.16376675926E+03  0.00000000000E+00 0.  1.
         14    1    3    3    0    0 -0.22623871261E+02 -0.16930574383E+02 -0.17817181451E+04  0.17819422079E+04  0.00000000000E+00 0. -1.
         11    1    5    5    0    0 -0.26601387101E+02  0.46466463096E+01  0.27852652553E+02  0.38794269833E+02  0.00000000000E+00 0. -1.
        -12    1    5    5    0    0 -0.38796624088E+01  0.89177492591E+02  0.30203537031E+03  0.31494926875E+03  0.00000000000E+00 0.  1.
          5    1    4    4  501    0  0.42489747021E+02 -0.64336688724E+02 -0.20348331707E+03  0.21764080693E+03  0.41800000000E+01 0.  1.
         -5    1    4    4    0  501  0.35181987223E+02 -0.12377378387E+02 -0.69768450367E+03  0.69869314494E+03  0.41800000000E+01 0.  1.
</event>
<event>
11    1  0.8041700E-009  0.2183467E+03  0.7561462E-02  0.1042258E+00
         22   -1    0    0    0    0  0.00000000000E+00  0.00000000000E+00  0.81688673443E+03  0.81688673443E+03  0.00000000000E+00 0.  1.
         22   -1    0    0    0    0 -0.00000000000E+00 -0.00000000000E+00 -0.23518015784E+04  0.23518015784E+04  0.00000000000E+00 0. -1.
        -24    2    1    2    0    0 -0.57690881057E+02  0.16864462320E+03 -0.21910576311E+04  0.21997225124E+04  0.79223367487E+02 0.  0.
         25    2    1    2    0    0  0.13841116641E+03 -0.15840112481E+03 -0.53311380360E+02  0.25047622497E+03  0.12509064182E+03 0.  0.
         24    2    1    2    0    0 -0.80720285352E+02 -0.10243498385E+02  0.70945416748E+03  0.71848957550E+03  0.79255035279E+02 0.  0.
        -13    1    5    5    0    0 -0.60780577007E+02  0.44641136572E+00  0.67192301306E+03  0.67466659418E+03  0.00000000000E+00 0.  1.
         14    1    5    5    0    0 -0.19939708345E+02 -0.10689909751E+02  0.37531154424E+02  0.43822981320E+02  0.00000000000E+00 0. -1.
         13    1    3    3    0    0 -0.53063954623E+02  0.17135941885E+03 -0.18620195042E+04  0.18706406571E+04  0.00000000000E+00 0. -1.
        -14    1    3    3    0    0 -0.46269264334E+01 -0.27147956570E+01 -0.32903812688E+03  0.32908185533E+03  0.00000000000E+00 0.  1.
          5    1    4    4  501    0  0.88726617763E+02 -0.34248105822E+02  0.20922375478E+02  0.97470834857E+02  0.41800000000E+01 0. -1.
         -5    1    4    4    0  501  0.49684548646E+02 -0.12415301899E+03 -0.74233755837E+02  0.15300539011E+03  0.41800000000E+01 0. -1.
</event>
<event>
11    1  0.8041700E-009  0.1416464E+03  0.7561462E-02  0.1105734E+00
         22   -1    0    0    0    0  0.00000000000E+00  0.00000000000E+00  0.18028293352E+03  0.18028293352E+03  0.00000000000E+00 0. -1.
         22   -1    0    0    0    0 -0.00000000000E+00 -0.00000000000E+00 -0.11805971046E+04  0.11805971046E+04  0.00000000000E+00 0. -1.
        -24    2    1    2    0    0  0.38172257292E+02  0.17274711849E+02 -0.10862971417E+04  0.10900056708E+04  0.79469147435E+02 0.  0.
         25    2    1    2    0    0 -0.17606207764E+01 -0.73681939626E+02  0.17909945421E+02  0.14628392353E+03  0.12508434005E+03 0.  0.
         24    2    1    2    0    0 -0.36411636516E+02  0.56407227777E+02  0.68073025200E+02  0.12459044380E+03  0.79882784794E+02 0.  0.
        -13    1    5    5    0    0 -0.39889533183E+02  0.53091769362E+00  0.49202287443E+01  0.40195340302E+02  0.00000000000E+00 0.  1.
         14    1    5    5    0    0  0.34778966666E+01  0.55876310083E+02  0.63152796456E+02  0.84395103495E+02  0.00000000000E+00 0. -1.
         13    1    3    3    0    0  0.20124751275E+02  0.48011624112E+02 -0.52389534843E+03  0.52647550538E+03  0.00000000000E+00 0. -1.
        -14    1    3    3    0    0  0.18047506018E+02 -0.30736912263E+02 -0.56240179332E+03  0.56353016546E+03  0.00000000000E+00 0.  1.
          5    1    4    4  501    0  0.12976898179E+02 -0.91860074928E+02 -0.25925779384E+02  0.96417278995E+02  0.41800000000E+01 0.  1.
         -5    1    4    4    0  501 -0.14737518956E+02  0.18178135302E+02  0.43835724805E+02  0.49866644535E+02  0.41800000000E+01 0.  1.
</event>
<event>
11    1  0.8041700E-009  0.1362033E+03  0.7561462E-02  0.1111874E+00
         22   -1    0    0    0    0  0.00000000000E+00  0.00000000000E+00  0.15614552944E+04  0.15614552944E+04  0.00000000000E+00 0.  1.
         22   -1    0    0    0    0 -0.00000000000E+00 -0.00000000000E+00 -0.53399274487E+02  0.53399274487E+02  0.00000000000E+00 0.  1.
         24    2    1    2    0    0  0.70184562022E+02  0.30275077258E+02  0.68897189622E+02  0.13379687757E+03  0.85512155049E+02 0.  0.
         25    2    1    2    0    0 -0.68200188683E+01 -0.47926945249E+01  0.18685846655E+03  0.22500999984E+03  0.12507570079E+03 0.  0.
        -24    2    1    2    0    0 -0.63364543154E+02 -0.25482382733E+02  0.12523003638E+04  0.12560476915E+04  0.68812681063E+02 0.  0.
        -11    1    3    3    0    0  0.80650351844E+02 -0.17271643410E+01  0.43721099089E+02  0.91755091710E+02  0.00000000000E+00 0.  1.
         12    1    3    3    0    0 -0.10465789822E+02  0.32002241599E+02  0.25176090533E+02  0.42041785862E+02  0.00000000000E+00 0. -1.
         13    1    5    5    0    0  0.88298576912E+01 -0.52890648147E+01  0.36087091504E+02  0.37526241041E+02  0.00000000000E+00 0. -1.
        -14    1    5    5    0    0 -0.72194400845E+02 -0.20193317919E+02  0.12162132723E+04  0.12185214505E+04  0.00000000000E+00 0.  1.
          5    1    4    4  501    0 -0.62980729927E+02 -0.12521893258E+01  0.13195639542E+03  0.14628090447E+03  0.41800000000E+01 0.  1.
         -5    1    4    4    0  501  0.56160711059E+02 -0.35405051991E+01  0.54902071136E+02  0.78729095376E+02  0.41800000000E+01 0.  1.
</event>
<event>
11    1  0.8041700E-009  0.1462896E+03  0.7561462E-02  0.1100732E+00
         22   -1    0    0    0    0  0.00000000000E+00  0.00000000000E+00  0.33167230511E+03  0.33167230511E+03  0.00000000000E+00 0. -1.
         22   -1    0    0    0    0 -0.00000000000E+00 -0.00000000000E+00 -0.66304406983E+03  0.66304406983E+03  0.00000000000E+00 0. -1.
         24    2    1    2    0    0 -0.90737498808E+02 -0.52916428933E+01 -0.57548112960E+03  0.58809875856E+03  0.80126925092E+02 0.  0.
         25    2    1    2    0    0  0.10916090274E+02 -0.36152002506E+02 -0.36889034434E+01  0.13071159269E+03  0.12508310895E+03 0.  0.
        -24    2    1    2    0    0  0.79821408534E+02  0.41443645399E+02  0.24779826832E+03  0.27590602369E+03  0.81431683767E+02 0.  0.
        -11    1    3    3    0    0 -0.75288257563E+02 -0.18398030023E+02 -0.24431592418E+03  0.25631441638E+03  0.00000000000E+00 0.  1.
         12    1    3    3    0    0 -0.15449241245E+02  0.13106387130E+02 -0.33116520542E+03  0.33178434219E+03  0.00000000000E+00 0. -1.
         13    1    5    5    0    0  0.52132649820E+02  0.16950007638E+02  0.22692505799E+03  0.23345256023E+03  0.00000000000E+00 0. -1.
        -14    1    5    5    0    0  0.27688758714E+02  0.24493637761E+02  0.20873210331E+02  0.42453463456E+02  0.00000000000E+00 0.  1.
          5    1    4    4  501    0  0.60021958602E+02  0.12100017665E+02 -0.62703173704E+01  0.61691451773E+02  0.41800000000E+01 0.  1.
         -5    1    4    4    0  501 -0.49105868327E+02 -0.48252020171E+02  0.25814139270E+01  0.69020140920E+02  0.41800000000E+01 0.  1.
</event>
<event>
11    1  0.8041700E-009  0.1499613E+03  0.7561462E-02  0.1096918E+00
         22   -1    0    0    0    0  0.00000000000E+00  0.00000000000E+00  0.56220453825E+03  0.56220453825E+03  0.00000000000E+00 0.  1.
         22   -1    0    0    0    0 -0.00000000000E+00 -0.00000000000E+00 -0.21082553333E+03  0.21082553333E+03  0.00000000000E+00 0. -1.
         24    2    1    2    0    0 -0.45093995802E+02 -0.35270683225E+02 -0.12764704857E+03  0.16132121242E+03  0.80332278786E+02 0.  0.
         25    2    1    2    0    0  0.11661791666E+03  0.62183008030E+02  0.82248085481E+02  0.19969390654E+03  0.12508574567E+03 0.  0.
        -24    2    1    2    0    0 -0.71523920860E+02 -0.26912324805E+02  0.39677796802E+03  0.41201495263E+03  0.80520933936E+02 0.  0.
        -13    1    3    3    0    0  0.13017504425E+02  0.11516284274E+02 -0.55683097479E+01  0.18250651999E+02  0.00000000000E+00 0.  1.
         14    1    3    3    0    0 -0.58111500227E+02 -0.46786967499E+02 -0.12207873883E+03  0.14307056042E+03  0.00000000000E+00 0. -1.
         11    1    5    5    0    0 -0.26671532501E+01 -0.40665644906E+02  0.14031216354E+03  0.14611061433E+03  0.00000000000E+00 0. -1.
        -12    1    5    5    0    0 -0.68856767610E+02  0.13753320100E+02  0.25646580447E+03  0.26590433829E+03  0.00000000000E+00 0.  1.
          5    1    4    4  501    0  0.14309146810E+03  0.47677360241E+02  0.62114198378E+02  0.16316845578E+03  0.41800000000E+01 0.  1.
         -5    1    4    4    0  501 -0.26473551433E+02  0.14505647789E+02  0.20133887103E+02  0.36525450759E+02  0.41800000000E+01 0.  1.
</event>
<event>
11    1  0.8041700E-009  0.1421620E+03  0.7561462E-02  0.1105168E+00
         22   -1    0    0    0    0  0.00000000000E+00  0.00000000000E+00  0.10465696362E+03  0.10465696362E+03  0.00000000000E+00 0.  1.
         22   -1    0    0    0    0 -0.00000000000E+00 -0.00000000000E+00 -0.15968428865E+04  0.15968428865E+04  0.00000000000E+00 0.  1.
         24    2    1    2    0    0  0.39477375434E+01 -0.55907072393E+02 -0.11451736477E+04  0.11493996251E+04  0.80966840958E+02 0.  0.
         25    2    1    2    0    0  0.63856804594E+02  0.51580920347E+02 -0.40487486541E+03  0.43163817415E+03  0.12509825700E+03 0.  0.
        -24    2    1    2    0    0 -0.67804542138E+02  0.43261520465E+01  0.57862590300E+02  0.12046205085E+03  0.80912636909E+02 0.  0.
        -11    1    3    3    0    0  0.27205022252E+02 -0.61309300577E+02 -0.10025479947E+04  0.10047892442E+04  0.00000000000E+00 0.  1.
         12    1    3    3    0    0 -0.23257284708E+02  0.54022281839E+01 -0.14262565302E+03  0.14461038089E+03  0.00000000000E+00 0. -1.
         13    1    5    5    0    0 -0.91881745561E+01 -0.34009064750E+02  0.24302067157E+02  0.42797540875E+02  0.00000000000E+00 0. -1.
        -14    1    5    5    0    0 -0.58616367581E+02  0.38335216797E+02  0.33560523143E+02  0.77664509970E+02  0.00000000000E+00 0.  1.
          5    1    4    4  501    0  0.94818690760E+02  0.44030179743E+02 -0.21550938459E+03  0.23956420453E+03  0.41800000000E+01 0.  1.
         -5    1    4    4    0  501 -0.30961886166E+02  0.75507406036E+01 -0.18936548082E+03  0.19207396962E+03  0.41800000000E+01 0.  1.
</event>
<event>
11    1  0.8041700E-009  0.1547204E+03  0.7561462E-02  0.1092151E+00
         22   -1    0    0    0    0  0.00000000000E+00  0.00000000000E+00  0.41118974898E+03  0.41118974898E+03  0.00000000000E+00 0. -1.
         22   -1    0    0    0    0 -0.00000000000E+00 -0.00000000000E+00 -0.57959792574E+03  0.57959792574E+03  0.00000000000E+00 0. -1.
        -24    2    1    2    0    0 -0.83413520475E+02 -0.23236195944E+02 -0.46826688308E+03  0.48321153280E+03  0.81986434508E+02 0.  0.
         25    2    1    2    0    0  0.14390928812E+03  0.79584283466E+02  0.24223846838E+02  0.20803265561E+03  0.12508896698E+03 0.  0.
         24    2    1    2    0    0 -0.60495767646E+02 -0.56348087522E+02  0.27563485948E+03  0.29954348631E+03  0.83167779591E+02 0.  0.
        -13    1    5    5    0    0  0.19581729354E+02 -0.74311459356E+01  0.29934520012E+02  0.36534114780E+02  0.00000000000E+00 0.  1.
         14    1    5    5    0    0 -0.80077497000E+02 -0.48916941587E+02  0.24570033947E+03  0.26300937153E+03  0.00000000000E+00 0. -1.
         11    1    3    3    0    0 -0.26206723465E+02 -0.48471658436E+02 -0.25933827417E+03  0.26512758151E+03  0.00000000000E+00 0. -1.
        -12    1    3    3    0    0 -0.57206797009E+02  0.25235462492E+02 -0.20892860891E+03  0.21808395129E+03  0.00000000000E+00 0.  1.
          5    1    4    4  501    0  0.12258627280E+03  0.32056963994E+02 -0.32529146673E+02  0.13088415108E+03  0.41800000000E+01 0. -1.
         -5    1    4    4    0  501  0.21323015318E+02  0.47527319472E+02  0.56752993510E+02  0.77148504528E+02  0.41800000000E+01 0. -1.
</event>
<event>
11    1  0.8041700E-009  0.1294241E+03  0.7561462E-02  0.1119979E+00
         22   -1    0    0    0    0  0.00000000000E+00  0.00000000000E+00  0.37341431492E+03  0.37341431492E+03  0.00000000000E+00 0. -1.
         22   -1    0    0    0    0 -0.00000000000E+00 -0.00000000000E+00 -0.13615346718E+03  0.13615346718E+03  0.00000000000E+00 0.  1.
         24    2    1    2    0    0 -0.19812456306E+02  0.73869193142E+00 -0.66015662673E+02  0.10859952863E+03  0.83920860393E+02 0.  0.
         25    2    1    2    0    0 -0.16409349704E+02  0.14662703899E+01  0.55211718103E+02  0.13772257130E+03  0.12509099138E+03 0.  0.
        -24    2    1    2    0    0  0.36221806010E+02 -0.22049623213E+01  0.24806479232E+03  0.26324568216E+03  0.80282419635E+02 0.  0.
        -13    1    3    3    0    0 -0.35270945497E+02  0.14258593481E+02 -0.76576798836E+02  0.85506451243E+02  0.00000000000E+00 0.  1.
         14    1    3    3    0    0  0.15458489191E+02 -0.13519901550E+02  0.10561136162E+02  0.23093077384E+02  0.00000000000E+00 0. -1.
         13    1    5    5    0    0  0.39234608657E+00 -0.64639120493E+01  0.21244616193E+03  0.21254483719E+03  0.00000000000E+00 0. -1.
        -14    1    5    5    0    0  0.35829459923E+02  0.42589497279E+01  0.35618630381E+02  0.50700844977E+02  0.00000000000E+00 0.  1.
          5    1    4    4  501    0  0.44448121890E+02  0.11639624356E+02  0.60007674068E+02  0.75693525098E+02  0.41800000000E+01 0.  1.
         -5    1    4    4    0  501 -0.60857471594E+02 -0.10173353966E+02 -0.47959559649E+01  0.62029046207E+02  0.41800000000E+01 0.  1.
</event>
<event>
11    1  0.8041700E-009  0.1593574E+03  0.7561462E-02  0.1087683E+00
         22   -1    0    0    0    0  0.00000000000E+00  0.00000000000E+00  0.64085179080E+03  0.64085179080E+03  0.00000000000E+00 0.  1.
         22   -1    0    0    0    0 -0.00000000000E+00 -0.00000000000E+00 -0.93369231750E+02  0.93369231750E+02  0.00000000000E+00 0.  1.
         24    2    1    2    0    0 -0.11883570449E+02  0.97147545955E+02 -0.65850403667E+01  0.12785781523E+03  0.82008494846E+02 0.  0.
         25    2    1    2    0    0 -0.87636873966E+01 -0.10565514295E+03  0.36479121787E+03  0.39994989723E+03  0.12508987253E+03 0.  0.
        -24    2    1    2    0    0  0.20647257845E+02  0.85075969940E+01  0.18927638154E+03  0.20641331009E+03  0.79260441002E+02 0.  0.
        -11    1    3    3    0    0 -0.60585974579E+01  0.10077525574E+03 -0.28492436192E+02  0.10490079930E+03  0.00000000000E+00 0.  1.
         12    1    3    3    0    0 -0.58249729908E+01 -0.36277097875E+01  0.21907395825E+02  0.22957015932E+02  0.00000000000E+00 0. -1.
         13    1    5    5    0    0  0.47931872252E+02 -0.24629151317E+01  0.80405600973E+02  0.93640754997E+02  0.00000000000E+00 0. -1.
        -14    1    5    5    0    0 -0.27284614406E+02  0.10970512126E+02  0.10887078057E+03  0.11277255509E+03  0.00000000000E+00 0.  1.
          5    1    4    4  501    0 -0.38315310357E+01 -0.30831393309E+02  0.42093618338E+01  0.31629836713E+02  0.41800000000E+01 0. -1.
         -5    1    4    4    0  501 -0.49321563609E+01 -0.74823749641E+02  0.36058185604E+03  0.36832006052E+03  0.41800000000E+01 0. -1.
</event>
<event>
11    1  0.8041700E-009  0.1514995E+03  0.7561462E-02  0.1095356E+00
         22   -1    0    0    0    0  0.00000000000E+00  0.00000000000E+00  0.14652407162E+04  0.14652407162E+04  0.00000000000E+00 0.  1.
         22   -1    0    0    0    0 -0.00000000000E+00 -0.00000000000E+00 -0.10616808602E+04  0.10616808602E+04  0.00000000000E+00 0. -1.
        -24    2    1    2    0    0  0.67730105748E+02  0.50287693303E+02 -0.10025148524E+04  0.10093467673E+04  0.81416509364E+02 0.  0.
         25    2    1    2    0    0 -0.11749817016E+03 -0.74157136012E+02  0.10896220922E+03  0.21638953415E+03  0.12508623681E+03 0.  0.
         24    2    1    2    0    0  0.49768064412E+02  0.23869442709E+02  0.12971124992E+04  0.13011852749E+04  0.86808256477E+02 0.  0.
        -13    1    5    5    0    0  0.43414940147E+02  0.49925552079E+02  0.11299186600E+04  0.11318540524E+04  0.00000000000E+00 0.  1.
         14    1    5    5    0    0  0.63531242650E+01 -0.26056109370E+02  0.16719383926E+03  0.16933122249E+03  0.00000000000E+00 0. -1.
         11    1    3    3    0    0  0.56326567007E+02  0.62184643657E+02 -0.53478687167E+03  0.54132856027E+03  0.00000000000E+00 0. -1.
        -12    1    3    3    0    0  0.11403538741E+02 -0.11896950354E+02 -0.46772798078E+03  0.46801820705E+03  0.00000000000E+00 0.  1.
          5    1    4    4  501    0 -0.28519883331E+02  0.29847184394E+02  0.55707411873E+02  0.69462409252E+02  0.41800000000E+01 0.  1.
         -5    1    4    4    0  501 -0.88978286829E+02 -0.10400432041E+03  0.53254797343E+02  0.14692712490E+03  0.41800000000E+01 0.  1.
</event>
<event>
11    1  0.8041700E-009  0.1433662E+03  0.7561462E-02  0.1103857E+00
         22   -1    0    0    0    0  0.00000000000E+00  0.00000000000E+00  0.69394153436E+03  0.69394153436E+03  0.00000000000E+00 0.  1.
         22   -1    0    0    0    0 -0.00000000000E+00 -0.00000000000E+00 -0.21448100145E+03  0.21448100145E+03  0.00000000000E+00 0. -1.
         24    2    1    2    0    0  0.35497339431E+02  0.10345726659E+01 -0.17419558949E+03  0.19386873347E+03  0.77329496127E+02 0.  0.
         25    2    1    2    0    0 -0.20134858310E+02  0.68729012965E+02  0.18856130818E+03  0.23734189846E+03  0.12508685014E+03 0.  0.
        -24    2    1    2    0    0 -0.15362481122E+02 -0.69763585631E+02  0.46509481422E+03  0.47721190389E+03  0.79467297016E+02 0.  0.
        -11    1    3    3    0    0  0.54102288853E+02 -0.64228392500E+01 -0.75186140646E+02  0.92850774194E+02  0.00000000000E+00 0.  1.
         12    1    3    3    0    0 -0.18604949421E+02  0.74574119159E+01 -0.99009448844E+02  0.10101795927E+03  0.00000000000E+00 0. -1.
         11    1    5    5    0    0  0.22734126311E+02 -0.82875775973E+01  0.46541262546E+02  0.52455824852E+02  0.00000000000E+00 0. -1.
        -12    1    5    5    0    0 -0.38096607433E+02 -0.61476008034E+02  0.41855355168E+03  0.42475607904E+03  0.00000000000E+00 0.  1.
          5    1    4    4  501    0 -0.82343555598E+01  0.10396550666E+03  0.15621096632E+03  0.18787221611E+03  0.41800000000E+01 0. -1.
         -5    1    4    4    0  501 -0.11900502750E+02 -0.35236493692E+02  0.32350341853E+02  0.49469682346E+02  0.41800000000E+01 0. -1.
</event>
<event>
11    1  0.8041700E-009  0.3767760E+03  0.7561462E-02  0.9720881E-01
         22   -1    0    0    0    0  0.00000000000E+00  0.00000000000E+00  0.54656161384E+03  0.54656161384E+03  0.00000000000E+00 0.  1.
         22   -1    0    0    0    0 -0.00000000000E+00 -0.00000000000E+00 -0.10872263913E+04  0.10872263913E+04  0.00000000000E+00 0.  1.
         24    2    1    2    0    0  0.16296841816E+03  0.26662511086E+03 -0.18464992761E+03  0.37483545767E+03  0.93586160849E+02 0.  0.
         25    2    1    2    0    0 -0.20384281823E+03 -0.31800389583E+03 -0.75123901602E+03  0.85011373165E+03  0.12511964371E+03 0.  0.
        -24    2    1    2    0    0  0.40874400075E+02  0.51378784966E+02  0.39522416617E+03  0.40883881583E+03  0.81464959824E+02 0.  0.
        -11    1    3    3    0    0  0.93800671351E+02  0.22391133211E+03 -0.15635272110E+03  0.28875772542E+03  0.00000000000E+00 0.  1.
         12    1    3    3    0    0  0.69167746805E+02  0.42713778748E+02 -0.28297206509E+02  0.86077732249E+02  0.00000000000E+00 0. -1.
         13    1    5    5    0    0  0.11151256636E+01 -0.12701331198E+02  0.97330243764E+01  0.16040544971E+02  0.00000000000E+00 0. -1.
        -14    1    5    5    0    0  0.39759274411E+02  0.64080116164E+02  0.38549114179E+03  0.39279827086E+03  0.00000000000E+00 0.  1.
          5    1    4    4  501    0 -0.13129101182E+03 -0.26128975464E+03 -0.65245033102E+03  0.71499550524E+03  0.41800000000E+01 0. -1.
         -5    1    4    4    0  501 -0.72551806412E+02 -0.56714141186E+02 -0.98788685006E+02  0.13511822641E+03  0.41800000000E+01 0. -1.
</event>
<event>
11    1  0.8041700E-009  0.2042205E+03  0.7561462E-02  0.1051579E+00
         22   -1    0    0    0    0  0.00000000000E+00  0.00000000000E+00  0.12290647352E+04  0.12290647352E+04  0.00000000000E+00 0.  1.
         22   -1    0    0    0    0 -0.00000000000E+00 -0.00000000000E+00 -0.70184885301E+03  0.70184885301E+03  0.00000000000E+00 0.  1.
         24    2    1    2    0    0  0.57763389281E+02 -0.45257626864E+02 -0.61083198052E+03  0.62055660253E+03  0.81178362765E+02 0.  0.
         25    2    1    2    0    0  0.87136178794E+01  0.19064029035E+03  0.86221053827E+02  0.24392913273E+03  0.12509078395E+03 0.  0.
        -24    2    1    2    0    0 -0.66477007160E+02 -0.14538266349E+03  0.10518268089E+04  0.10664278529E+04  0.73303603803E+02 0.  0.
        -13    1    3    3    0    0  0.35353736905E+02 -0.67065763601E+02 -0.48544390605E+03  0.49132829074E+03  0.00000000000E+00 0.  1.
         14    1    3    3    0    0  0.22409652376E+02  0.21808136738E+02 -0.12538807448E+03  0.12922831179E+03  0.00000000000E+00 0. -1.
         11    1    5    5    0    0 -0.11328767138E+02  0.49374624139E+01  0.36062038866E+02  0.38120731199E+02  0.00000000000E+00 0. -1.
        -12    1    5    5    0    0 -0.55148240022E+02 -0.15032012590E+03  0.10157647700E+04  0.10283071217E+04  0.00000000000E+00 0.  1.
          5    1    4    4  501    0 -0.26804185288E+02  0.10639220378E+03 -0.11071398427E+02  0.11035313152E+03  0.41800000000E+01 0.  1.
         -5    1    4    4    0  501  0.35517803167E+02  0.84248086570E+02  0.97292452253E+02  0.13357600120E+03  0.41800000000E+01 0.  1.
</event>
<event>
11    1  0.8041700E-009  0.1753469E+03  0.7561462E-02  0.1073470E+00
         22   -1    0    0    0    0  0.00000000000E+00  0.00000000000E+00  0.33308787406E+04  0.33308787406E+04  0.00000000000E+00 0.  1.
         22   -1    0    0    0    0 -0.00000000000E+00 -0.00000000000E+00 -0.11361414234E+03  0.11361414234E+03  0.00000000000E+00 0.  1.
        -24    2    1    2    0    0  0.10673815650E+03 -0.53413672279E+01  0.30567822732E+02  0.13757586137E+03  0.81062701579E+02 0.  0.
         25    2    1    2    0    0 -0.15425782837E+03  0.97677137138E+01  0.10703121489E+03  0.22581955772E+03  0.12509158982E+03 0.  0.
         24    2    1    2    0    0  0.47519671869E+02 -0.44263464859E+01  0.30796655606E+04  0.30810974638E+04  0.80894404375E+02 0.  0.
        -11    1    5    5    0    0  0.63674207099E+02  0.16600644864E+02  0.24304738159E+04  0.24313644227E+04  0.00000000000E+00 0.  1.
         12    1    5    5    0    0 -0.16154535231E+02 -0.21026991350E+02  0.64919174470E+03  0.64973304115E+03  0.00000000000E+00 0. -1.
         11    1    3    3    0    0  0.52554843176E+02 -0.10301877394E+02  0.56025491085E+02  0.77504811918E+02  0.00000000000E+00 0. -1.
        -12    1    3    3    0    0  0.54183313324E+02  0.49605101663E+01 -0.25457668353E+02  0.60071049448E+02  0.00000000000E+00 0.  1.
          5    1    4    4  501    0 -0.69821074162E+02  0.66450799747E+02  0.60711516100E+02  0.11399145482E+03  0.41800000000E+01 0.  1.
         -5    1    4    4    0  501 -0.84436754206E+02 -0.56683086034E+02  0.46319698794E+02  0.11182810291E+03  0.41800000000E+01 0.  1.
</event>
<event>
11    1  0.8041700E-009  0.1454432E+03  0.7561462E-02  0.1101628E+00
         22   -1    0    0    0    0  0.00000000000E+00  0.00000000000E+00  0.21270373622E+04  0.21270373622E+04  0.00000000000E+00 0.  1.
         22   -1    0    0    0    0 -0.00000000000E+00 -0.00000000000E+00 -0.35420518641E+04  0.35420518641E+04  0.00000000000E+00 0. -1.
        -24    2    1    2    0    0  0.57896752399E+02  0.16154702080E+02 -0.32713049345E+04  0.32728570544E+04  0.80896947055E+02 0.  0.
         25    2    1    2    0    0 -0.35168781896E+01  0.34730013056E+02 -0.25289304200E+03  0.28429070922E+03  0.12509106450E+03 0.  0.
         24    2    1    2    0    0 -0.54379874210E+02 -0.50884715135E+02  0.21091834746E+04  0.21119414627E+04  0.78072960632E+02 0.  0.
        -13    1    5    5    0    0 -0.26644738963E+01 -0.42644312521E+02  0.14684582846E+04  0.14690797699E+04  0.00000000000E+00 0.  1.
         14    1    5    5    0    0 -0.51715400313E+02 -0.82404026141E+01  0.64072519006E+03  0.64286169277E+03  0.00000000000E+00 0. -1.
         13    1    3    3    0    0  0.10506630995E+01 -0.27234351720E+02 -0.63914266204E+03  0.63972349984E+03  0.00000000000E+00 0. -1.
        -14    1    3    3    0    0  0.56846089300E+02  0.43389053799E+02 -0.26321622724E+04  0.26331335546E+04  0.00000000000E+00 0.  1.
          5    1    4    4  501    0 -0.37697936238E+02 -0.34411716894E+02 -0.12188015434E+03  0.13220266668E+03  0.41800000000E+01 0. -1.
         -5    1    4    4    0  501  0.34181058048E+02  0.69141729950E+02 -0.13101288766E+03  0.15208804254E+03  0.41800000000E+01 0. -1.
</event>
<event>
11    1  0.8041700E-009  0.2090195E+03  0.7561462E-02  0.1048323E+00
         22   -1    0    0    0    0  0.00000000000E+00  0.00000000000E+00  0.27593679948E+03  0.27593679948E+03  0.00000000000E+00 0.  1.
         22   -1    0    0    0    0 -0.00000000000E+00 -0.00000000000E+00 -0.19826704882E+04  0.19826704882E+04  0.00000000000E+00 0.  1.
        -24    2    1    2    0    0 -0.16079567712E+03 -0.42020807481E+02 -0.17872521165E+04  0.17968104157E+04  0.81464986646E+02 0.  0.
         25    2    1    2    0    0  0.18655101379E+03  0.21628983173E+02 -0.11007200687E+03  0.25106114487E+03  0.12508700215E+03 0.  0.
         24    2    1    2    0    0 -0.25755336675E+02  0.20391824308E+02  0.19059043465E+03  0.21073572709E+03  0.83699874704E+02 0.  0.
        -13    1    5    5    0    0 -0.41972286250E+02  0.41052029182E+02  0.15991794330E+03  0.17035460223E+03  0.00000000000E+00 0.  1.
         14    1    5    5    0    0  0.16216949574E+02 -0.20660204874E+02  0.30672491351E+02  0.40381124856E+02  0.00000000000E+00 0. -1.
         13    1    3    3    0    0  0.36775376471E+01 -0.17884258464E+02 -0.13825006369E+03  0.13945053278E+03  0.00000000000E+00 0. -1.
        -14    1    3    3    0    0 -0.16447321476E+03 -0.24136549017E+02 -0.16490020528E+04  0.16573598829E+04  0.00000000000E+00 0.  1.
          5    1    4    4  501    0  0.55314546572E+02 -0.48483428223E+02 -0.17333274895E+02  0.75685247528E+02  0.41800000000E+01 0.  1.
         -5    1    4    4    0  501  0.13123646722E+03  0.70112411395E+02 -0.92738731974E+02  0.17537589734E+03  0.41800000000E+01 0.  1.
</event>
<event>
11    1  0.8041700E-009  0.1483843E+03  0.7561462E-02  0.1098541E+00
         22   -1    0    0    0    0  0.00000000000E+00  0.00000000000E+00  0.12167168762E+03  0.12167168762E+03  0.00000000000E+00 0.  1.
         22   -1    0    0    0    0 -0.00000000000E+00 -0.00000000000E+00 -0.77682674523E+03  0.77682674523E+03  0.00000000000E+00 0. -1.
        -24    2    1    2    0    0 -0.47953674602E+02 -0.55392799273E+02 -0.54479715374E+03  0.55631202435E+03  0.85505629014E+02 0.  0.
         25    2    1    2    0    0  0.54843003295E+02  0.13136760204E+03 -0.13048467114E+03  0.23008300449E+03  0.12508692049E+03 0.  0.
         24    2    1    2    0    0 -0.68893286927E+01 -0.75974802763E+02  0.20126767262E+02  0.11210340402E+03  0.79639518635E+02 0.  0.
        -13    1    5    5    0    0 -0.31553930759E+02 -0.26400624559E+02 -0.17967377259E+02  0.44893988117E+02  0.00000000000E+00 0.  1.
         14    1    5    5    0    0  0.24664602066E+02 -0.49574178204E+02  0.38094144521E+02  0.67209415907E+02  0.00000000000E+00 0. -1.
         13    1    3    3    0    0 -0.34413118430E+02 -0.47549404001E+02 -0.53419594076E+03  0.53741093370E+03  0.00000000000E+00 0. -1.
        -14    1    3    3    0    0 -0.13540556172E+02 -0.78433952723E+01 -0.10601212977E+02  0.18901090642E+02  0.00000000000E+00 0.  1.
          5    1    4    4  501    0  0.57679745313E+02  0.15489549164E+03 -0.11134893637E+03  0.19933796522E+03  0.41800000000E+01 0.  1.
         -5    1    4    4    0  501 -0.28367420181E+01 -0.23527889601E+02 -0.19135734768E+02  0.30745039266E+02  0.41800000000E+01 0.  1.
</event>
<event>
11    1  0.8041700E-009  0.1440169E+03  0.7561462E-02  0.1103154E+00
         22   -1    0    0    0    0  0.00000000000E+00  0.00000000000E+00  0.11070103969E+04  0.11070103969E+04  0.00000000000E+00 0. -1.
         22   -1    0    0    0    0 -0.00000000000E+00 -0.00000000000E+00 -0.32268767348E+04  0.32268767348E+04  0.00000000000E+00 0. -1.
         24    2    1    2    0    0  0.10705597695E+02 -0.72724227124E+02 -0.30852119672E+04  0.30871398007E+04  0.80596796671E+02 0.  0.
         25    2    1    2    0    0  0.12036026199E+02  0.93965251197E+01 -0.10942629660E+03  0.16689725928E+03  0.12508964848E+03 0.  0.
        -24    2    1    2    0    0 -0.22741623894E+02  0.63327702004E+02  0.10747719260E+04  0.10798500717E+04  0.80086860333E+02 0.  0.
        -11    1    3    3    0    0  0.24579181974E+02 -0.39406897233E-01 -0.32181311626E+03  0.32275039820E+03  0.00000000000E+00 0.  1.
         12    1    3    3    0    0 -0.13873584279E+02 -0.72684820227E+02 -0.27633988509E+04  0.27643894025E+04  0.00000000000E+00 0. -1.
         11    1    5    5    0    0 -0.40810764298E+02  0.27824003407E+01  0.47562119080E+03  0.47737697617E+03  0.00000000000E+00 0. -1.
        -12    1    5    5    0    0  0.18069140405E+02  0.60545301664E+02  0.59915073516E+03  0.60247309553E+03  0.00000000000E+00 0.  1.
          5    1    4    4  501    0 -0.28919882709E+02 -0.19742952398E+02  0.10501062931E+02  0.36795223984E+02  0.41800000000E+01 0.  1.
         -5    1    4    4    0  501  0.40955908909E+02  0.29139477518E+02 -0.11992735953E+03  0.13010203530E+03  0.41800000000E+01 0.  1.
</event>
<event>
11    1  0.8041700E-009  0.1631736E+03  0.7561462E-02  0.1084130E+00
         22   -1    0    0    0    0  0.00000000000E+00  0.00000000000E+00  0.16172983127E+04  0.16172983127E+04  0.00000000000E+00 0.  1.
         22   -1    0    0    0    0 -0.00000000000E+00 -0.00000000000E+00 -0.26930501336E+03  0.26930501336E+03  0.00000000000E+00 0.  1.
         24    2    1    2    0    0 -0.10958835395E+02 -0.41941483763E+02 -0.23308229727E+03  0.25006000977E+03  0.79520230453E+02 0.  0.
         25    2    1    2    0    0 -0.87051839022E+02 -0.34236752000E+01  0.21358963827E+03  0.26240887655E+03  0.12509252850E+03 0.  0.
        -24    2    1    2    0    0  0.98010674417E+02  0.45365158963E+02  0.13674859584E+04  0.13741344398E+04  0.81015568178E+02 0.  0.
        -11    1    3    3    0    0 -0.22675519239E+02 -0.39329264222E+02 -0.53878899713E+02  0.70454992947E+02  0.00000000000E+00 0.  1.
         12    1    3    3    0    0  0.11716683844E+02 -0.26122195411E+01 -0.17920339755E+03  0.17960501682E+03  0.00000000000E+00 0. -1.
         11    1    5    5    0    0  0.83544617749E+01 -0.14682316522E+02  0.64075876927E+02  0.66265265818E+02  0.00000000000E+00 0. -1.
        -12    1    5    5    0    0  0.89656212642E+02  0.60047475484E+02  0.13034100814E+04  0.13078691740E+04  0.00000000000E+00 0.  1.
          5    1    4    4  501    0 -0.20536820243E+02  0.53308689932E+02  0.46478158854E+02  0.73764958201E+02  0.41800000000E+01 0.  1.
         -5    1    4    4    0  501 -0.66515018779E+02 -0.56732365132E+02  0.16711147942E+03  0.18864391835E+03  0.41800000000E+01 0.  1.
</event>
<event>
11    1  0.8041700E-009  0.1989525E+03  0.7561462E-02  0.1055267E+00
         22   -1    0    0    0    0  0.00000000000E+00  0.00000000000E+00  0.19096393011E+03  0.19096393011E+03  0.00000000000E+00 0. -1.
         22   -1    0    0    0    0 -0.00000000000E+00 -0.00000000000E+00 -0.26272873880E+04  0.26272873880E+04  0.00000000000E+00 0.  1.
         24    2    1    2    0    0  0.10375687009E+03 -0.10922762697E+03 -0.19562374339E+04  0.19637152578E+04  0.81342198893E+02 0.  0.
         25    2    1    2    0    0 -0.17470036945E+03  0.72573903696E+02 -0.62937354117E+03  0.66899735717E+03  0.12513680112E+03 0.  0.
        -24    2    1    2    0    0  0.70943499360E+02  0.36653723274E+02  0.14928751718E+03  0.18553870314E+03  0.75903702433E+02 0.  0.
        -13    1    3    3    0    0  0.66896858265E+02 -0.23145808814E+02 -0.11238534695E+04  0.11260806094E+04  0.00000000000E+00 0.  1.
         14    1    3    3    0    0  0.36860011821E+02 -0.86081818156E+02 -0.83238396445E+03  0.83763464837E+03  0.00000000000E+00 0. -1.
         11    1    5    5    0    0  0.37993778402E+02 -0.22274996553E+01  0.12185397563E+03  0.12765923519E+03  0.00000000000E+00 0. -1.
        -12    1    5    5    0    0  0.32949720958E+02  0.38881222930E+02  0.27433541554E+02  0.57879467948E+02  0.00000000000E+00 0.  1.
          5    1    4    4  501    0  0.11129750410E+02 -0.87966642067E+01 -0.11724716759E+02  0.18873103307E+02  0.41800000000E+01 0.  1.
         -5    1    4    4    0  501 -0.18583011986E+03  0.81370567902E+02 -0.61764882441E+03  0.65012425386E+03  0.41800000000E+01 0.  1.
</event>
<event>
11    1  0.8041700E-009  0.1329802E+03  0.7561462E-02  0.1115661E+00
         22   -1    0    0    0    0  0.00000000000E+00  0.00000000000E+00  0.11273890982E+04  0.11273890982E+04  0.00000000000E+00 0. -1.
         22   -1    0    0    0    0 -0.00000000000E+00 -0.00000000000E+00 -0.11169094000E+03  0.11169094000E+03  0.00000000000E+00 0. -1.
        -24    2    1    2    0    0 -0.48096941446E+02  0.28544354493E+02 -0.70677864710E+02  0.11991484059E+03  0.79095590796E+02 0.  0.
         25    2    1    2    0    0  0.13068788365E+02  0.13215613898E+02  0.28404469826E+03  0.31092578615E+03  0.12509199896E+03 0.  0.
         24    2    1    2    0    0  0.35028153080E+02 -0.41759968391E+02  0.80233132465E+03  0.80823941145E+03  0.80898240036E+02 0.  0.
        -11    1    5    5    0    0 -0.12255026017E+02 -0.32761987910E+02  0.14544378641E+03  0.14959087044E+03  0.00000000000E+00 0.  1.
         12    1    5    5    0    0  0.47283179097E+02 -0.89979804807E+01  0.65688753824E+03  0.65864854101E+03  0.00000000000E+00 0. -1.
         11    1    3    3    0    0 -0.26167342121E+02  0.55395946441E+02 -0.52951686433E+02  0.80977291705E+02  0.00000000000E+00 0. -1.
        -12    1    3    3    0    0 -0.21929599325E+02 -0.26851591948E+02 -0.17726178277E+02  0.38937548883E+02  0.00000000000E+00 0.  1.
          5    1    4    4  501    0  0.12734206178E+02  0.73007525171E+01 -0.90485462215E+01  0.17742874147E+02  0.41800000000E+01 0. -1.
         -5    1    4    4    0  501  0.33458218783E+00  0.59148613806E+01  0.29309324448E+03  0.29318291201E+03  0.41800000000E+01 0. -1.
</event>
<event>
11    1  0.8041700E-009  0.1341576E+03  0.7561462E-02  0.1114264E+00
         22   -1    0    0    0    0  0.00000000000E+00  0.00000000000E+00  0.72711788162E+02  0.72711788162E+02  0.00000000000E+00 0. -1.
         22   -1    0    0    0    0 -0.00000000000E+00 -0.00000000000E+00 -0.11240254442E+04  0.11240254442E+04  0.00000000000E+00 0. -1.
        -24    2    1    2    0    0 -0.12107907744E+02 -0.30318502571E+02 -0.88326492453E+03  0.88773371994E+03  0.82755166495E+02 0.  0.
         25    2    1    2    0    0 -0.27413100855E+02 -0.69739361292E+01 -0.16926469081E+03  0.21236150466E+03  0.12508700661E+03 0.  0.
         24    2    1    2    0    0  0.39521008598E+02  0.37292438700E+02  0.12159592792E+01  0.96642007785E+02  0.79909717851E+02 0.  0.
        -11    1    5    5    0    0 -0.13982328667E+02  0.19056838472E+02 -0.24937593816E+02  0.34359164612E+02  0.00000000000E+00 0.  1.
         12    1    5    5    0    0  0.53503337265E+02  0.18235600228E+02  0.26153553096E+02  0.62282843173E+02  0.00000000000E+00 0. -1.
         11    1    3    3    0    0 -0.18125871473E+02 -0.34810666937E+02 -0.87720879979E+03  0.87808633299E+03  0.00000000000E+00 0. -1.
        -12    1    3    3    0    0  0.60179637289E+01  0.44921643656E+01 -0.60561247420E+01  0.96473869530E+01  0.00000000000E+00 0.  1.
          5    1    4    4  501    0  0.19309096331E+02 -0.45531815172E+02 -0.24444241530E+02  0.55326130698E+02  0.41800000000E+01 0. -1.
         -5    1    4    4    0  501 -0.46722197186E+02  0.38557879043E+02 -0.14482044928E+03  0.15703537396E+03  0.41800000000E+01 0. -1.
</event>
<event>
11    1  0.8041700E-009  0.1396220E+03  0.7561462E-02  0.1107981E+00
         22   -1    0    0    0    0  0.00000000000E+00  0.00000000000E+00  0.47982918559E+03  0.47982918559E+03  0.00000000000E+00 0. -1.
         22   -1    0    0    0    0 -0.00000000000E+00 -0.00000000000E+00 -0.14431553360E+03  0.14431553360E+03  0.00000000000E+00 0.  1.
        -24    2    1    2    0    0 -0.35675803114E+02  0.39796019855E+02 -0.53798389139E+02  0.10989804807E+03  0.79541361383E+02 0.  0.
         25    2    1    2    0    0  0.56292330112E+02 -0.78130264664E+02  0.54597538374E+02  0.16703636585E+03  0.12508833532E+03 0.  0.
         24    2    1    2    0    0 -0.20616526997E+02  0.38334244810E+02  0.33471450275E+03  0.34721030528E+03  0.81404190478E+02 0.  0.
        -13    1    5    5    0    0 -0.33495009549E+02 -0.93120349506E+01  0.72664982520E+02  0.80553270227E+02  0.00000000000E+00 0.  1.
         14    1    5    5    0    0  0.12878482551E+02  0.47646279760E+02  0.26204952023E+03  0.26665703505E+03  0.00000000000E+00 0. -1.
         13    1    3    3    0    0  0.10485804946E+02  0.46887384970E+02 -0.19042783214E+02  0.51681781773E+02  0.00000000000E+00 0. -1.
        -14    1    3    3    0    0 -0.46161608060E+02 -0.70913651153E+01 -0.34755605925E+02  0.58216266293E+02  0.00000000000E+00 0.  1.
          5    1    4    4  501    0 -0.43787045772E+01  0.14445798973E+02 -0.25791179063E+02  0.30174682752E+02  0.41800000000E+01 0.  1.
         -5    1    4    4    0  501  0.60671034689E+02 -0.92576063637E+02  0.80388717437E+02  0.13686168310E+03  0.41800000000E+01 0.  1.
</event>
<event>
11    1  0.9896947E-009  0.1668487E+03  0.7561462E-02  0.1080807E+00
         22   -1    0    0    0    0  0.00000000000E+00  0.00000000000E+00  0.57471314603E+03  0.57471314603E+03  0.00000000000E+00 0.  1.
         22   -1    0    0    0    0 -0.00000000000E+00 -0.00000000000E+00 -0.52090959660E+03  0.52090959660E+03  0.00000000000E+00 0. -1.
        -24    2    1    2    0    0  0.48376770559E+02 -0.39202761892E+02 -0.36139325002E+03  0.37604834913E+03  0.83247289789E+02 0.  0.
         25    2    1    2    0    0 -0.15537703908E+03  0.47324814978E+02 -0.69556536522E+02  0.21648856103E+03  0.12509005915E+03 0.  0.
         24    2    1    2    0    0  0.10700026852E+03 -0.81220530852E+01  0.48475333596E+03  0.50308583247E+03  0.81206729368E+02 0.  0.
        -13    1    5    5    0    0  0.87683228670E+02  0.14016147822E+02  0.44431296079E+03  0.45309911512E+03  0.00000000000E+00 0.  1.
         14    1    5    5    0    0  0.19317039848E+02 -0.22138200907E+02  0.40440375168E+02  0.49986717352E+02  0.00000000000E+00 0. -1.
         13    1    3    3    0    0  0.61835738040E+02 -0.28842178934E+02 -0.34741296508E+03  0.35404985255E+03  0.00000000000E+00 0. -1.
        -14    1    3    3    0    0 -0.13458967481E+02 -0.10360582958E+02 -0.13980284933E+02  0.21998496578E+02  0.00000000000E+00 0.  1.
          5    1    4    4  501    0 -0.17626273716E+03  0.35903477143E+02 -0.54458593912E+02  0.18799155043E+03  0.41800000000E+01 0.  1.
         -5    1    4    4    0  501  0.20885698080E+02  0.11421337835E+02 -0.15097942610E+02  0.28497010603E+02  0.41800000000E+01 0.  1.
</event>
<event>
11    1  0.8041700E-009  0.1584853E+03  0.7561462E-02  0.1088511E+00
         22   -1    0    0    0    0  0.00000000000E+00  0.00000000000E+00  0.80167724163E+03  0.80167724163E+03  0.00000000000E+00 0. -1.
         22   -1    0    0    0    0 -0.00000000000E+00 -0.00000000000E+00 -0.25350961443E+03  0.25350961443E+03  0.00000000000E+00 0. -1.
         24    2    1    2    0    0  0.74148818041E+02 -0.63714203958E+02 -0.21915373184E+03  0.25200532656E+03  0.76946601161E+02 0.  0.
         25    2    1    2    0    0 -0.76509406058E+02  0.43529471092E+02  0.45086686556E+03  0.47609353679E+03  0.12504247776E+03 0.  0.
        -24    2    1    2    0    0  0.23605880174E+01  0.20184732866E+02  0.31645449348E+03  0.32708799272E+03  0.80187983624E+02 0.  0.
        -11    1    3    3    0    0 -0.13896941552E+02 -0.40989092524E-01 -0.13304995107E+02  0.19239271281E+02  0.00000000000E+00 0.  1.
         12    1    3    3    0    0  0.88045759593E+02 -0.63673214866E+02 -0.20584873674E+03  0.23276605528E+03  0.00000000000E+00 0. -1.
         13    1    5    5    0    0  0.12471097836E+02  0.70845275403E+01  0.30831150054E+03  0.30864494193E+03  0.00000000000E+00 0. -1.
        -14    1    5    5    0    0 -0.10110509819E+02  0.13100205326E+02  0.81429929414E+01  0.18443050789E+02  0.00000000000E+00 0.  1.
          5    1    4    4  501    0 -0.71982020810E+02 -0.23338001883E+02  0.15287289361E+03  0.17062727699E+03  0.41800000000E+01 0.  1.
         -5    1    4    4    0  501 -0.45273852479E+01  0.66867472975E+02  0.29799397195E+03  0.30546625980E+03  0.41800000000E+01 0.  1.
</event>
<event>
11    1  0.8041700E-009  0.1475983E+03  0.7561462E-02  0.1099358E+00
         22   -1    0    0    0    0  0.00000000000E+00  0.00000000000E+00  0.16586100024E+04  0.16586100024E+04  0.00000000000E+00 0. -1.
         22   -1    0    0    0    0 -0.00000000000E+00 -0.00000000000E+00 -0.10338141459E+03  0.10338141459E+03  0.00000000000E+00 0.  1.
         24    2    1    2    0    0  0.16141258648E+02  0.13732375849E+02 -0.42759697292E+02  0.88034924921E+02  0.73977279729E+02 0.  0.
         25    2    1    2    0    0 -0.93253210171E+02 -0.70679956199E+01  0.13569578167E+03  0.20690013813E+03  0.12509278246E+03 0.  0.
        -24    2    1    2    0    0  0.77111951523E+02 -0.66643802296E+01  0.14622925035E+04  0.14670563540E+04  0.89242999666E+02 0.  0.
        -11    1    3    3    0    0  0.42940537497E+01  0.43861903324E+02 -0.29590492904E+02  0.53083921588E+02  0.00000000000E+00 0.  1.
         12    1    3    3    0    0  0.11847204899E+02 -0.30129527475E+02 -0.13169204389E+02  0.34951003333E+02  0.00000000000E+00 0. -1.
         11    1    5    5    0    0  0.46167311745E+02 -0.60672607160E+01  0.13432287547E+04  0.13440356096E+04  0.00000000000E+00 0. -1.
        -12    1    5    5    0    0  0.30944639777E+02 -0.59711951354E+00  0.11906374874E+03  0.12302074438E+03  0.00000000000E+00 0.  1.
          5    1    4    4  501    0 -0.15250299809E+02 -0.13090810241E+02 -0.22444315183E+02  0.30416453460E+02  0.41800000000E+01 0.  1.
         -5    1    4    4    0  501 -0.78002910362E+02  0.60228146211E+01  0.15814009685E+03  0.17648368467E+03  0.41800000000E+01 0.  1.
</event>
<event>
11    1  0.8041700E-009  0.1490310E+03  0.7561462E-02  0.1097873E+00
         22   -1    0    0    0    0  0.00000000000E+00  0.00000000000E+00  0.57929058845E+03  0.57929058845E+03  0.00000000000E+00 0. -1.
         22   -1    0    0    0    0 -0.00000000000E+00 -0.00000000000E+00 -0.21770911060E+03  0.21770911060E+03  0.00000000000E+00 0.  1.
         24    2    1    2    0    0 -0.13701530549E+01  0.53039676271E+02 -0.15569723830E+03  0.18328906873E+03  0.80858939651E+02 0.  0.
         25    2    1    2    0    0  0.43376280740E+02 -0.11354816924E+03  0.14803687016E+03  0.22877013495E+03  0.12508465634E+03 0.  0.
        -24    2    1    2    0    0 -0.42006127685E+02  0.60508492968E+02  0.36924184599E+03  0.38494049537E+03  0.80086526112E+02 0.  0.
        -11    1    3    3    0    0 -0.21012922082E+02  0.31076273670E+02 -0.14821425524E+03  0.15288800848E+03  0.00000000000E+00 0.  1.
         12    1    3    3    0    0  0.19642769028E+02  0.21963402601E+02 -0.74829830640E+01  0.30401060252E+02  0.00000000000E+00 0. -1.
         13    1    5    5    0    0 -0.40465788924E+02  0.61380037003E+02  0.37332244728E+03  0.38049262629E+03  0.00000000000E+00 0. -1.
        -14    1    5    5    0    0 -0.15403387611E+01 -0.87154403506E+00 -0.40806012916E+01  0.44478690858E+01  0.00000000000E+00 0.  1.
          5    1    4    4  501    0 -0.21663789813E+02 -0.23753155872E+02  0.10478221453E+03  0.10968280214E+03  0.41800000000E+01 0. -1.
         -5    1    4    4    0  501  0.65040070553E+02 -0.89795013367E+02  0.43254655630E+02  0.11908733281E+03  0.41800000000E+01 0. -1.
</event>
<event>
11    1  0.8041700E-009  0.1361158E+03  0.7561462E-02  0.1111975E+00
         22   -1    0    0    0    0  0.00000000000E+00  0.00000000000E+00  0.38372300144E+03  0.38372300144E+03  0.00000000000E+00 0.  1.
         22   -1    0    0    0    0 -0.00000000000E+00 -0.00000000000E+00 -0.89889472151E+03  0.89889472151E+03  0.00000000000E+00 0. -1.
         24    2    1    2    0    0 -0.54040346887E+02 -0.12668348932E+01 -0.80551257602E+03  0.81407972476E+03  0.10465813003E+03 0.  0.
         25    2    1    2    0    0  0.48909990583E+02 -0.20075980721E+02 -0.28635567785E+02  0.13878829454E+03  0.12508782027E+03 0.  0.
        -24    2    1    2    0    0  0.51303563040E+01  0.21342815615E+02  0.31897642373E+03  0.32974970365E+03  0.80666423170E+02 0.  0.
        -11    1    3    3    0    0 -0.70283729870E+02  0.29697731390E+01 -0.29426502347E+03  0.30255664970E+03  0.00000000000E+00 0.  1.
         12    1    3    3    0    0  0.16243382982E+02 -0.42366080321E+01 -0.51124755255E+03  0.51152307507E+03  0.00000000000E+00 0. -1.
         11    1    5    5    0    0  0.93045705960E+01  0.45082489166E+02  0.10800305807E+03  0.11740386031E+03  0.00000000000E+00 0. -1.
        -12    1    5    5    0    0 -0.41742142921E+01 -0.23739673551E+02  0.21097336566E+03  0.21234584334E+03  0.00000000000E+00 0.  1.
          5    1    4    4  501    0 -0.12519345319E+02 -0.22731406397E+01 -0.64136299003E+02  0.65519755993E+02  0.41800000000E+01 0.  1.
         -5    1    4    4    0  501  0.61429335902E+02 -0.17802840082E+02  0.35500731218E+02  0.73268538551E+02  0.41800000000E+01 0.  1.
</event>
<event>
11    1  0.8041700E-009  0.1678198E+03  0.7561462E-02  0.1079945E+00
         22   -1    0    0    0    0  0.00000000000E+00  0.00000000000E+00  0.23799965153E+04  0.23799965153E+04  0.00000000000E+00 0.  1.
         22   -1    0    0    0    0 -0.00000000000E+00 -0.00000000000E+00 -0.22353898129E+04  0.22353898129E+04  0.00000000000E+00 0.  1.
        -24    2    1    2    0    0 -0.26718454405E+02  0.25686875951E+02 -0.72276679547E+03  0.72824524945E+03  0.81090143109E+02 0.  0.
         25    2    1    2    0    0 -0.18802473732E+02  0.76629756132E+02 -0.15042590503E+04  0.15115071170E+04  0.12503128223E+03 0.  0.
         24    2    1    2    0    0  0.45520928137E+02 -0.10231663208E+03  0.23716325482E+04  0.23756339619E+04  0.80342572383E+02 0.  0.
        -11    1    5    5    0    0  0.48025574196E+02 -0.10818206073E+03  0.23523110531E+04  0.23552870535E+04  0.00000000000E+00 0.  1.
         12    1    5    5    0    0 -0.25046460584E+01  0.58654286462E+01  0.19321495121E+02  0.20346908335E+02  0.00000000000E+00 0. -1.
         13    1    3    3    0    0  0.25963918647E+02  0.22572990027E+02 -0.21390322730E+03  0.21665238425E+03  0.00000000000E+00 0. -1.
        -14    1    3    3    0    0 -0.52682373051E+02  0.31138859247E+01 -0.50886356817E+03  0.51159286520E+03  0.00000000000E+00 0.  1.
          5    1    4    4  501    0 -0.51463387561E+01  0.41728970026E+02 -0.14000081061E+04  0.14006455516E+04  0.41800000000E+01 0. -1.
         -5    1    4    4    0  501 -0.13656134976E+02  0.34900786106E+02 -0.10425094429E+03  0.11086156538E+03  0.41800000000E+01 0. -1.
</event>
<event>
11    1  0.8041700E-009  0.2477788E+03  0.7561462E-02  0.1025089E+00
         22   -1    0    0    0    0  0.00000000000E+00  0.00000000000E+00  0.99375094770E+03  0.99375094770E+03  0.00000000000E+00 0.  1.
         22   -1    0    0    0    0 -0.00000000000E+00 -0.00000000000E+00 -0.27515511978E+04  0.27515511978E+04  0.00000000000E+00 0. -1.
        -24    2    1    2    0    0 -0.53087741452E+02 -0.27982214095E+02 -0.26405684752E+04  0.26424984481E+04  0.81208765249E+02 0.  0.
         25    2    1    2    0    0 -0.24524091578E+01  0.23233574271E+03  0.92065186076E+02  0.27948323111E+03  0.12509582861E+03 0.  0.
         24    2    1    2    0    0  0.55540150610E+02 -0.20435352862E+03  0.79070303895E+03  0.82332046632E+03  0.88318862455E+02 0.  0.
        -13    1    5    5    0    0 -0.50709964441E+01 -0.10154751132E+03  0.47624721690E+03  0.48697948999E+03  0.00000000000E+00 0.  1.
         14    1    5    5    0    0  0.60611147054E+02 -0.10280601730E+03  0.31445582205E+03  0.33634097633E+03  0.00000000000E+00 0. -1.
         11    1    3    3    0    0  0.24224866783E+00  0.20514942620E+02 -0.11549528150E+04  0.11551350252E+04  0.00000000000E+00 0. -1.
        -12    1    3    3    0    0 -0.53329990120E+02 -0.48497156714E+02 -0.14856156602E+04  0.14873634229E+04  0.00000000000E+00 0.  1.
          5    1    4    4  501    0  0.20732948352E+02 -0.63870573315E+01 -0.11565951210E+01  0.22123737500E+02  0.41800000000E+01 0.  1.
         -5    1    4    4    0  501 -0.23185357509E+02  0.23872280004E+03  0.93221781197E+02  0.25735949361E+03  0.41800000000E+01 0.  1.
</event>
<event>
11    1  0.8041700E-009  0.1394668E+03  0.7561462E-02  0.1108155E+00
         22   -1    0    0    0    0  0.00000000000E+00  0.00000000000E+00  0.47689406093E+02  0.47689406093E+02  0.00000000000E+00 0. -1.
         22   -1    0    0    0    0 -0.00000000000E+00 -0.00000000000E+00 -0.33156888805E+04  0.33156888805E+04  0.00000000000E+00 0. -1.
        -24    2    1    2    0    0  0.37689115422E+02  0.25759631749E+02 -0.26976029378E+04  0.26992062287E+04  0.81047067148E+02 0.  0.
         25    2    1    2    0    0  0.49814175799E+01 -0.71134048190E+02 -0.53833860413E+03  0.55725866799E+03  0.12507558921E+03 0.  0.
         24    2    1    2    0    0 -0.42670533002E+02  0.45374416442E+02 -0.32057932429E+02  0.10691338984E+03  0.80766019096E+02 0.  0.
        -13    1    5    5    0    0  0.86317428547E+01  0.91307717001E+01 -0.41530589842E+02  0.43389720778E+02  0.00000000000E+00 0.  1.
         14    1    5    5    0    0 -0.51302275857E+02  0.36243644742E+02  0.94726574130E+01  0.63523669059E+02  0.00000000000E+00 0. -1.
         13    1    3    3    0    0  0.23677585714E+02  0.67824225300E+01 -0.25106667238E+04  0.25107875313E+04  0.00000000000E+00 0. -1.
        -14    1    3    3    0    0  0.14011529708E+02  0.18977209219E+02 -0.18693621401E+03  0.18841869743E+03  0.00000000000E+00 0.  1.
          5    1    4    4  501    0  0.44899401006E+02 -0.81504521317E+02 -0.26722312768E+03  0.28299225356E+03  0.41800000000E+01 0. -1.
         -5    1    4    4    0  501 -0.39917983426E+02  0.10370473127E+02 -0.27111547645E+03  0.27426641443E+03  0.41800000000E+01 0. -1.
</event>
<event>
11    1  0.8041700E-009  0.1304768E+03  0.7561462E-02  0.1118685E+00
         22   -1    0    0    0    0  0.00000000000E+00  0.00000000000E+00  0.65331780815E+03  0.65331780815E+03  0.00000000000E+00 0. -1.
         22   -1    0    0    0    0 -0.00000000000E+00 -0.00000000000E+00 -0.14095606352E+04  0.14095606352E+04  0.00000000000E+00 0.  1.
         24    2    1    2    0    0 -0.36742281140E+02 -0.14004577474E+00 -0.13693213101E+04  0.13721400602E+04  0.79859124394E+02 0.  0.
         25    2    1    2    0    0  0.70073457366E+02 -0.17818911938E+01  0.11199093458E+03  0.18195932780E+03  0.12511499903E+03 0.  0.
        -24    2    1    2    0    0 -0.33331176226E+02  0.19219369685E+01  0.50108754846E+03  0.50877905534E+03  0.81564298408E+02 0.  0.
        -13    1    3    3    0    0 -0.20965458182E+02  0.38372562061E+01 -0.13206352403E+04  0.13208072202E+04  0.00000000000E+00 0.  1.
         14    1    3    3    0    0 -0.15776822958E+02 -0.39773019809E+01 -0.48686069713E+02  0.51332839955E+02  0.00000000000E+00 0. -1.
         13    1    5    5    0    0  0.20945693666E+01  0.25755725427E+02  0.37025620727E+03  0.37115684506E+03  0.00000000000E+00 0. -1.
        -14    1    5    5    0    0 -0.35425745593E+02 -0.23833788459E+02  0.13083134119E+03  0.13762221027E+03  0.00000000000E+00 0.  1.
          5    1    4    4  501    0  0.10582307097E+03  0.10867531787E+01  0.71929900956E+02  0.12802767839E+03  0.41800000000E+01 0.  1.
         -5    1    4    4    0  501 -0.35749613603E+02 -0.28686443725E+01  0.40061033621E+02  0.53931649410E+02  0.41800000000E+01 0.  1.
</event>
<event>
11    1  0.8041700E-009  0.2268007E+03  0.7561462E-02  0.1037039E+00
         22   -1    0    0    0    0  0.00000000000E+00  0.00000000000E+00  0.65520218062E+03  0.65520218062E+03  0.00000000000E+00 0.  1.
         22   -1    0    0    0    0 -0.00000000000E+00 -0.00000000000E+00 -0.12181422709E+04  0.12181422709E+04  0.00000000000E+00 0.  1.
        -24    2    1    2    0    0 -0.38287459143E+02 -0.18526919355E+03 -0.11544791197E+04  0.11723564249E+04  0.76203318259E+02 0.  0.
         25    2    1    2    0    0  0.19712976926E+02  0.18911152608E+03  0.20679360318E+03  0.30751072121E+03  0.12508988204E+03 0.  0.
         24    2    1    2    0    0  0.18574482217E+02 -0.38423325290E+01  0.38474542617E+03  0.39347730541E+03  0.80222016958E+02 0.  0.
        -11    1    5    5    0    0 -0.13342720932E+02  0.10945842274E+02  0.31395228385E+03  0.31442626512E+03  0.00000000000E+00 0.  1.
         12    1    5    5    0    0  0.31917203149E+02 -0.14788174803E+02  0.70793142326E+02  0.79051040292E+02  0.00000000000E+00 0. -1.
         11    1    3    3    0    0 -0.30313978433E+02 -0.15673881530E+02 -0.20266024161E+03  0.20551345791E+03  0.00000000000E+00 0. -1.
        -12    1    3    3    0    0 -0.79734807101E+01 -0.16959531202E+03 -0.95181887804E+03  0.96684296701E+03  0.00000000000E+00 0.  1.
          5    1    4    4  501    0  0.63909015859E+02  0.75610542491E+02  0.13000601697E+03  0.16346361458E+03  0.41800000000E+01 0. -1.
         -5    1    4    4    0  501 -0.44196038933E+02  0.11350098358E+03  0.76787586209E+02  0.14404710663E+03  0.41800000000E+01 0. -1.
</event>
<event>
11    1  0.8041700E-009  0.1524613E+03  0.7561462E-02  0.1094390E+00
         22   -1    0    0    0    0  0.00000000000E+00  0.00000000000E+00  0.28116060922E+04  0.28116060922E+04  0.00000000000E+00 0.  1.
         22   -1    0    0    0    0 -0.00000000000E+00 -0.00000000000E+00 -0.56133183903E+03  0.56133183903E+03  0.00000000000E+00 0. -1.
         24    2    1    2    0    0 -0.10902542433E+02 -0.75787591582E+01 -0.54161320258E+03  0.54764553329E+03  0.79965404401E+02 0.  0.
         25    2    1    2    0    0  0.28639921330E+02  0.92108588547E+02  0.39122400558E+03  0.42191003707E+03  0.12509044592E+03 0.  0.
        -24    2    1    2    0    0 -0.17737378897E+02 -0.84529829389E+02  0.24006634502E+04  0.24033823609E+04  0.74845607418E+02 0.  0.
        -11    1    3    3    0    0 -0.35388626847E+02 -0.16062804797E+02 -0.14288075172E+03  0.14807186708E+03  0.00000000000E+00 0.  1.
         12    1    3    3    0    0  0.24486084414E+02  0.84840456388E+01 -0.39873245086E+03  0.39957366621E+03  0.00000000000E+00 0. -1.
         11    1    5    5    0    0 -0.27403200984E+02 -0.40887736637E+02  0.55518556414E+03  0.55736321467E+03  0.00000000000E+00 0. -1.
        -12    1    5    5    0    0  0.96658220865E+01 -0.43642092751E+02  0.18454778861E+04  0.18460191462E+04  0.00000000000E+00 0.  1.
          5    1    4    4  501    0  0.26504493696E+02  0.12324726716E+03  0.32358853153E+03  0.34730301926E+03  0.41800000000E+01 0.  1.
         -5    1    4    4    0  501  0.21354276344E+01 -0.31138678613E+02  0.67635474052E+02  0.74607017814E+02  0.41800000000E+01 0.  1.
</event>
<event>
11    1  0.8041700E-009  0.1412972E+03  0.7561462E-02  0.1106118E+00
         22   -1    0    0    0    0  0.00000000000E+00  0.00000000000E+00  0.15167241371E+03  0.15167241371E+03  0.00000000000E+00 0. -1.
         22   -1    0    0    0    0 -0.00000000000E+00 -0.00000000000E+00 -0.20928529130E+04  0.20928529130E+04  0.00000000000E+00 0. -1.
         24    2    1    2    0    0 -0.74078389086E+02 -0.27832649497E+02 -0.93029574054E+03  0.93695286474E+03  0.78538154821E+02 0.  0.
         25    2    1    2    0    0  0.54111975886E+02 -0.15279337679E+02 -0.11401525507E+04  0.11483717568E+04  0.12509312059E+03 0.  0.
        -24    2    1    2    0    0  0.19966413199E+02  0.43111987177E+02  0.12926779193E+03  0.15920070520E+03  0.79858633920E+02 0.  0.
        -13    1    3    3    0    0 -0.40881340843E+02 -0.54884958230E+02 -0.54243119952E+03  0.54673142299E+03  0.00000000000E+00 0.  1.
         14    1    3    3    0    0 -0.33197048243E+02  0.27052308733E+02 -0.38786454102E+03  0.39022144175E+03  0.00000000000E+00 0. -1.
         11    1    5    5    0    0  0.52041033946E+01 -0.10725955756E+02  0.90387588074E+02  0.91170416785E+02  0.00000000000E+00 0. -1.
        -12    1    5    5    0    0  0.14762309805E+02  0.53837942933E+02  0.38880203858E+02  0.68030288417E+02  0.00000000000E+00 0.  1.
          5    1    4    4  501    0 -0.36584045697E+02 -0.22811645373E+02 -0.26855442043E+03  0.27202520600E+03  0.41800000000E+01 0. -1.
         -5    1    4    4    0  501  0.90696021583E+02  0.75323076933E+01 -0.87159813030E+03  0.87634655082E+03  0.41800000000E+01 0. -1.
</event>
<event>
11    1  0.8041700E-009  0.1291139E+03  0.7561462E-02  0.1120363E+00
         22   -1    0    0    0    0  0.00000000000E+00  0.00000000000E+00  0.10006322334E+04  0.10006322334E+04  0.00000000000E+00 0. -1.
         22   -1    0    0    0    0 -0.00000000000E+00 -0.00000000000E+00 -0.12999123996E+03  0.12999123996E+03  0.00000000000E+00 0.  1.
         24    2    1    2    0    0  0.20500350714E+02 -0.17747078099E+02 -0.46250225276E+02  0.12126497278E+03  0.10876988151E+03 0.  0.
         25    2    1    2    0    0 -0.75226707685E+01  0.52952565873E+02  0.60279731840E+02  0.14880113470E+03  0.12509023467E+03 0.  0.
        -24    2    1    2    0    0 -0.12977679945E+02 -0.35205487774E+02  0.85661148687E+03  0.86055736588E+03  0.73265912894E+02 0.  0.
        -13    1    3    3    0    0  0.56944569019E+02 -0.30376907153E+02 -0.51194003257E+02  0.82378798233E+02  0.00000000000E+00 0.  1.
         14    1    3    3    0    0 -0.36444218305E+02  0.12629829054E+02  0.49437779812E+01  0.38886174542E+02  0.00000000000E+00 0. -1.
         13    1    5    5    0    0  0.24315340473E+02  0.76538750375E+01  0.27172915764E+03  0.27292224661E+03  0.00000000000E+00 0. -1.
        -14    1    5    5    0    0 -0.37293020418E+02 -0.42859362811E+02  0.58488232923E+03  0.58763511927E+03  0.00000000000E+00 0.  1.
          5    1    4    4  501    0 -0.53925740777E+02  0.37644020100E+01 -0.53413800180E+01  0.54480812965E+02  0.41800000000E+01 0. -1.
         -5    1    4    4    0  501  0.46403070008E+02  0.49188163863E+02  0.65621111858E+02  0.94320321733E+02  0.41800000000E+01 0. -1.
</event>
<event>
11    1  0.8041700E-009  0.1763186E+03  0.7561462E-02  0.1072660E+00
         22   -1    0    0    0    0  0.00000000000E+00  0.00000000000E+00  0.87547285538E+02  0.87547285538E+02  0.00000000000E+00 0. -1.
         22   -1    0    0    0    0 -0.00000000000E+00 -0.00000000000E+00 -0.12952991809E+04  0.12952991809E+04  0.00000000000E+00 0. -1.
        -24    2    1    2    0    0 -0.90662406770E+02 -0.85468318811E+02 -0.92067867524E+03  0.93266181897E+03  0.81757813055E+02 0.  0.
         25    2    1    2    0    0  0.17297115711E+02  0.15151641934E+03 -0.24899174757E+03  0.31764912565E+03  0.12509061168E+03 0.  0.
         24    2    1    2    0    0  0.73365291060E+02 -0.66048100526E+02 -0.38081472595E+02  0.13253552186E+03  0.79816342215E+02 0.  0.
        -13    1    5    5    0    0 -0.13011089250E+02 -0.14168792494E+02 -0.24061727247E+02  0.30806003348E+02  0.00000000000E+00 0.  1.
         14    1    5    5    0    0  0.86376380309E+02 -0.51879308032E+02 -0.14019745349E+02  0.10172951851E+03  0.00000000000E+00 0. -1.
         13    1    3    3    0    0 -0.76981905304E+02 -0.38294238740E+02 -0.75429630868E+03  0.75918086366E+03  0.00000000000E+00 0. -1.
        -14    1    3    3    0    0 -0.13680501466E+02 -0.47174080070E+02 -0.16638236656E+03  0.17348095530E+03  0.00000000000E+00 0.  1.
          5    1    4    4  501    0  0.68589348809E+02  0.11184481645E+03 -0.18113115204E+03  0.22369561546E+03  0.41800000000E+01 0. -1.
         -5    1    4    4    0  501 -0.51292233099E+02  0.39671602890E+02 -0.67860595530E+02  0.93953510194E+02  0.41800000000E+01 0. -1.
</event>
<event>
11    1  0.8041700E-009  0.1364167E+03  0.7561462E-02  0.1111627E+00
         22   -1    0    0    0    0  0.00000000000E+00  0.00000000000E+00  0.43004909974E+03  0.43004909974E+03  0.00000000000E+00 0. -1.
         22   -1    0    0    0    0 -0.00000000000E+00 -0.00000000000E+00 -0.23449715197E+03  0.23449715197E+03  0.00000000000E+00 0.  1.
         24    2    1    2    0    0 -0.89731875044E+01 -0.10563770946E+01 -0.17096614031E+03  0.18902459170E+03  0.80120166661E+02 0.  0.
         25    2    1    2    0    0 -0.44631505242E+02 -0.13808788427E+02  0.47339480255E+02  0.14167214445E+03  0.12508923305E+03 0.  0.
        -24    2    1    2    0    0  0.53604692746E+02  0.14865165521E+02  0.31917860783E+03  0.33384951556E+03  0.80536197542E+02 0.  0.
        -13    1    3    3    0    0 -0.40264225510E+02  0.55798197683E+01 -0.13454407671E+03  0.14055052764E+03  0.00000000000E+00 0.  1.
         14    1    3    3    0    0  0.31291038006E+02 -0.66361968628E+01 -0.36422063607E+02  0.48474064052E+02  0.00000000000E+00 0. -1.
         11    1    5    5    0    0  0.43967392529E+01 -0.10603505388E+02  0.21954937926E+03  0.21984925648E+03  0.00000000000E+00 0. -1.
        -12    1    5    5    0    0  0.49207953493E+02  0.25468670909E+02  0.99629228573E+02  0.11400025908E+03  0.00000000000E+00 0.  1.
          5    1    4    4  501    0 -0.43134178220E+02  0.39370307200E+02  0.63050703599E+02  0.86043256819E+02  0.41800000000E+01 0. -1.
         -5    1    4    4    0  501 -0.14973270215E+01 -0.53179095626E+02 -0.15711223345E+02  0.55628887629E+02  0.41800000000E+01 0. -1.
</event>
<event>
11    1  0.1002710E-008  0.1669780E+03  0.7561462E-02  0.1080692E+00
         22   -1    0    0    0    0  0.00000000000E+00  0.00000000000E+00  0.89101336495E+03  0.89101336495E+03  0.00000000000E+00 0.  1.
         22   -1    0    0    0    0 -0.00000000000E+00 -0.00000000000E+00 -0.22475265628E+04  0.22475265628E+04  0.00000000000E+00 0. -1.
         24    2    1    2    0    0 -0.35286925583E+01  0.11002674536E+02 -0.16051202351E+04  0.16071633581E+04  0.80184660373E+02 0.  0.
         25    2    1    2    0    0  0.98759544122E+02  0.45297126034E+02 -0.62531791759E+03  0.64689683590E+03  0.12509093112E+03 0.  0.
        -24    2    1    2    0    0 -0.95230851564E+02 -0.56299800570E+02  0.87392495485E+03  0.88447973381E+03  0.79504655083E+02 0.  0.
        -13    1    3    3    0    0  0.77335354896E+01  0.39400738568E+02 -0.49603619783E+03  0.49765865343E+03  0.00000000000E+00 0.  1.
         14    1    3    3    0    0 -0.11262228048E+02 -0.28398064032E+02 -0.11090840373E+04  0.11095047046E+04  0.00000000000E+00 0. -1.
         13    1    5    5    0    0 -0.10445452177E+01  0.10624396028E+02  0.23158148264E+03  0.23182741849E+03  0.00000000000E+00 0. -1.
        -14    1    5    5    0    0 -0.94186306346E+02 -0.66924196598E+02  0.64234347222E+03  0.65265231532E+03  0.00000000000E+00 0.  1.
          5    1    4    4  501    0 -0.21335924633E+02  0.23177083167E+02 -0.53980852740E+02  0.62640272403E+02  0.41800000000E+01 0. -1.
         -5    1    4    4    0  501  0.12009546876E+03  0.22120042867E+02 -0.57133706485E+03  0.58425656350E+03  0.41800000000E+01 0. -1.
</event>
<event>
11    1  0.8041700E-009  0.1371118E+03  0.7561462E-02  0.1110827E+00
         22   -1    0    0    0    0  0.00000000000E+00  0.00000000000E+00  0.20306227430E+04  0.20306227430E+04  0.00000000000E+00 0. -1.
         22   -1    0    0    0    0 -0.00000000000E+00 -0.00000000000E+00 -0.53076804069E+03  0.53076804069E+03  0.00000000000E+00 0. -1.
        -24    2    1    2    0    0 -0.14802605677E+02  0.26239083577E+02 -0.43590823209E+03  0.44429374178E+03  0.80457041588E+02 0.  0.
         25    2    1    2    0    0  0.28775060165E+02  0.28435997500E+02 -0.41188449325E+02  0.13776861134E+03  0.12508833628E+03 0.  0.
         24    2    1    2    0    0 -0.13972454487E+02 -0.54675081077E+02  0.19769513837E+04  0.19793284306E+04  0.78864874845E+02 0.  0.
        -13    1    5    5    0    0 -0.29941665106E+02 -0.17058662739E+02  0.31582280423E+03  0.31769725362E+03  0.00000000000E+00 0.  1.
         14    1    5    5    0    0  0.15969210619E+02 -0.37616418338E+02  0.16611285795E+04  0.16616311770E+04  0.00000000000E+00 0. -1.
         13    1    3    3    0    0 -0.37224311482E+02  0.22125475047E+02 -0.12017879512E+03  0.12774243151E+03  0.00000000000E+00 0. -1.
        -14    1    3    3    0    0  0.22421705804E+02  0.41136085301E+01 -0.31572943697E+03  0.31655131027E+03  0.00000000000E+00 0.  1.
          5    1    4    4  501    0  0.61817811155E+02  0.97502015156E+01 -0.66920450372E+02  0.91718740090E+02  0.41800000000E+01 0.  1.
         -5    1    4    4    0  501 -0.33042750990E+02  0.18685795985E+02  0.25732001048E+02  0.46049871254E+02  0.41800000000E+01 0.  1.
</event>
<event>
11    1  0.8041700E-009  0.1268222E+03  0.7561462E-02  0.1123236E+00
         22   -1    0    0    0    0  0.00000000000E+00  0.00000000000E+00  0.67846735676E+03  0.67846735676E+03  0.00000000000E+00 0. -1.
         22   -1    0    0    0    0 -0.00000000000E+00 -0.00000000000E+00 -0.11004735671E+04  0.11004735671E+04  0.00000000000E+00 0.  1.
        -24    2    1    2    0    0 -0.35512711468E+00  0.19827214842E+02 -0.95729579919E+03  0.96102029038E+03  0.82167553356E+02 0.  0.
         25    2    1    2    0    0  0.91609430629E+01 -0.37579542291E+02 -0.10775873546E+03  0.16957917859E+03  0.12509599460E+03 0.  0.
         24    2    1    2    0    0 -0.88058159482E+01  0.17752327450E+02  0.64304832429E+03  0.64834145491E+03  0.80267099551E+02 0.  0.
        -13    1    5    5    0    0  0.76643375011E+01  0.81154471776E+01  0.99434650512E+01  0.14949081893E+02  0.00000000000E+00 0.  1.
         14    1    5    5    0    0 -0.16470153449E+02  0.96368802723E+01  0.63310485923E+03  0.63339237302E+03  0.00000000000E+00 0. -1.
         11    1    3    3    0    0  0.98054615230E+01 -0.23158783051E+02 -0.12240312321E+03  0.12495999712E+03  0.00000000000E+00 0. -1.
        -12    1    3    3    0    0 -0.10160588638E+02  0.42985997892E+02 -0.83489267597E+03  0.83606029326E+03  0.00000000000E+00 0.  1.
          5    1    4    4  501    0 -0.33296832778E+02 -0.25340452926E+02  0.10435228174E+02  0.43326481678E+02  0.41800000000E+01 0.  1.
         -5    1    4    4    0  501  0.42457775841E+02 -0.12239089365E+02 -0.11819396363E+03  0.12625269691E+03  0.41800000000E+01 0.  1.
</event>
<event>
11    1  0.8041700E-009  0.1425273E+03  0.7561462E-02  0.1104769E+00
         22   -1    0    0    0    0  0.00000000000E+00  0.00000000000E+00  0.34038142493E+03  0.34038142493E+03  0.00000000000E+00 0. -1.
         22   -1    0    0    0    0 -0.00000000000E+00 -0.00000000000E+00 -0.82538614958E+03  0.82538614958E+03  0.00000000000E+00 0. -1.
         24    2    1    2    0    0 -0.63550670680E+02 -0.12658488180E+02 -0.67625722819E+03  0.68478333493E+03  0.86054936185E+02 0.  0.
         25    2    1    2    0    0  0.10395410499E+03  0.47713450135E+02 -0.84134990977E+02  0.18923210531E+03  0.12508822369E+03 0.  0.
        -24    2    1    2    0    0 -0.40403434309E+02 -0.35054961955E+02  0.27538749452E+03  0.29175213427E+03  0.80123329023E+02 0.  0.
        -11    1    3    3    0    0 -0.10416381281E+02 -0.21055342122E+02 -0.41002075431E+02  0.47254614806E+02  0.00000000000E+00 0.  1.
         12    1    3    3    0    0 -0.53134289399E+02  0.83968539419E+01 -0.63525515276E+03  0.63752872012E+03  0.00000000000E+00 0. -1.
         11    1    5    5    0    0  0.51216091017E+00  0.60707360490E+01  0.18004106366E+03  0.18014411106E+03  0.00000000000E+00 0. -1.
        -12    1    5    5    0    0 -0.40915595220E+02 -0.41125698004E+02  0.95346430858E+02  0.11160802321E+03  0.00000000000E+00 0.  1.
          5    1    4    4  501    0  0.12382909240E+03  0.43873266400E+02 -0.98337673545E+02  0.16415321522E+03  0.41800000000E+01 0. -1.
         -5    1    4    4    0  501 -0.19874987413E+02  0.38401837346E+01  0.14202682568E+02  0.25078890085E+02  0.41800000000E+01 0. -1.
</event>
<event>
11    1  0.8041700E-009  0.1332752E+03  0.7561462E-02  0.1115309E+00
         22   -1    0    0    0    0  0.00000000000E+00  0.00000000000E+00  0.22388949424E+03  0.22388949424E+03  0.00000000000E+00 0.  1.
         22   -1    0    0    0    0 -0.00000000000E+00 -0.00000000000E+00 -0.20191815409E+04  0.20191815409E+04  0.00000000000E+00 0. -1.
        -24    2    1    2    0    0  0.73475574861E+01  0.32547645738E+02 -0.14389915768E+04  0.14414514966E+04  0.77280807821E+02 0.  0.
         25    2    1    2    0    0 -0.28897138514E+02 -0.72510740616E+02 -0.55893282810E+03  0.57805404369E+03  0.12509084289E+03 0.  0.
         24    2    1    2    0    0  0.21549581028E+02  0.39963094877E+02  0.20263235818E+03  0.22356549485E+03  0.82826472279E+02 0.  0.
        -13    1    5    5    0    0 -0.54077211249E+01  0.42995514637E+02  0.18762379562E+03  0.19256309721E+03  0.00000000000E+00 0.  1.
         14    1    5    5    0    0  0.26957302153E+02 -0.30324197597E+01  0.15008562567E+02  0.31002397638E+02  0.00000000000E+00 0. -1.
         11    1    3    3    0    0 -0.25739662921E+01  0.40615633426E+02 -0.13961277284E+04  0.13967207627E+04  0.00000000000E+00 0. -1.
        -12    1    3    3    0    0  0.99215237782E+01 -0.80679876878E+01 -0.42863848427E+02  0.44730733968E+02  0.00000000000E+00 0.  1.
          5    1    4    4  501    0 -0.76928302481E+02 -0.59236280458E+02 -0.38491433886E+03  0.39699297387E+03  0.41800000000E+01 0. -1.
         -5    1    4    4    0  501  0.48031163966E+02 -0.13274460158E+02 -0.17401848924E+03  0.18106106981E+03  0.41800000000E+01 0. -1.
</event>
<event>
11    1  0.8041700E-009  0.1541111E+03  0.7561462E-02  0.1092751E+00
         22   -1    0    0    0    0  0.00000000000E+00  0.00000000000E+00  0.13600374488E+03  0.13600374488E+03  0.00000000000E+00 0. -1.
         22   -1    0    0    0    0 -0.00000000000E+00 -0.00000000000E+00 -0.10309831429E+04  0.10309831429E+04  0.00000000000E+00 0.  1.
        -24    2    1    2    0    0 -0.79963314254E+02  0.30932530386E+02 -0.82280894266E+03  0.83110724949E+03  0.79835774960E+02 0.  0.
         25    2    1    2    0    0  0.14180128211E+03 -0.70589855458E+02 -0.89342814141E+02  0.22072518285E+03  0.12508771564E+03 0.  0.
         24    2    1    2    0    0 -0.61837967857E+02  0.39657325072E+02  0.17172358823E+02  0.11515445541E+03  0.87000120643E+02 0.  0.
        -13    1    5    5    0    0 -0.18780953546E+02 -0.73620923739E+01 -0.29784760761E+02  0.35972998120E+02  0.00000000000E+00 0.  1.
         14    1    5    5    0    0 -0.43057014311E+02  0.47019417446E+02  0.46957119583E+02  0.79181457286E+02  0.00000000000E+00 0. -1.
         13    1    3    3    0    0 -0.77084168478E+02 -0.29034235744E+01 -0.43261640980E+03  0.43943982173E+03  0.00000000000E+00 0. -1.
        -14    1    3    3    0    0 -0.28791457759E+01  0.33835953960E+02 -0.39019253286E+03  0.39166742776E+03  0.00000000000E+00 0.  1.
          5    1    4    4  501    0  0.60203077750E+01 -0.51034312744E+02 -0.62253957674E+02  0.80831756316E+02  0.41800000000E+01 0.  1.
         -5    1    4    4    0  501  0.13578097434E+03 -0.19555542714E+02 -0.27088856466E+02  0.13989342653E+03  0.41800000000E+01 0.  1.
</event>
<event>
11    1  0.8041700E-009  0.1353871E+03  0.7561462E-02  0.1112822E+00
         22   -1    0    0    0    0  0.00000000000E+00  0.00000000000E+00  0.28888334556E+02  0.28888334556E+02  0.00000000000E+00 0.  1.
         22   -1    0    0    0    0 -0.00000000000E+00 -0.00000000000E+00 -0.26986877264E+04  0.26986877264E+04  0.00000000000E+00 0.  1.
         24    2    1    2    0    0 -0.69336491660E+01  0.27880167174E+02 -0.20491009978E+04  0.20508903611E+04  0.80690736248E+02 0.  0.
         25    2    1    2    0    0 -0.36581665586E+02 -0.52698055720E+02 -0.51940187586E+03  0.53809038314E+03  0.12509056097E+03 0.  0.
        -24    2    1    2    0    0  0.43515314752E+02  0.24817888546E+02 -0.10129651813E+03  0.13859531665E+03  0.80238189177E+02 0.  0.
        -11    1    3    3    0    0  0.34346361266E+02  0.27552193147E+02 -0.11484922845E+04  0.11493360359E+04  0.00000000000E+00 0.  1.
         12    1    3    3    0    0 -0.41280010432E+02  0.32797402707E+00 -0.90060871330E+03  0.90155432521E+03  0.00000000000E+00 0. -1.
         13    1    5    5    0    0  0.14307944449E+01 -0.17359695678E+02 -0.68300515291E+02  0.70486641257E+02  0.00000000000E+00 0. -1.
        -14    1    5    5    0    0  0.42084520307E+02  0.42177584224E+02 -0.32996002840E+02  0.68108675394E+02  0.00000000000E+00 0.  1.
          5    1    4    4  501    0  0.17650034000E+01 -0.30035381300E+02 -0.19294661114E+02  0.35986048885E+02  0.41800000000E+01 0. -1.
         -5    1    4    4    0  501 -0.38346668986E+02 -0.22662674420E+02 -0.50010721475E+03  0.50210433426E+03  0.41800000000E+01 0. -1.
</event>
<event>
11    1  0.8041700E-009  0.1303359E+03  0.7561462E-02  0.1118857E+00
         22   -1    0    0    0    0  0.00000000000E+00  0.00000000000E+00  0.11382842950E+04  0.11382842950E+04  0.00000000000E+00 0. -1.
         22   -1    0    0    0    0 -0.00000000000E+00 -0.00000000000E+00 -0.95159410222E+02  0.95159410222E+02  0.00000000000E+00 0. -1.
        -24    2    1    2    0    0 -0.45642233580E+01 -0.13034496619E+02 -0.60898300762E+02  0.10333028190E+03  0.82327479528E+02 0.  0.
         25    2    1    2    0    0 -0.21894626181E+02 -0.16063886457E+02  0.39017466788E+03  0.41063519704E+03  0.12509024940E+03 0.  0.
         24    2    1    2    0    0  0.26458849539E+02  0.29098383076E+02  0.71384851763E+03  0.71947822624E+03  0.80761533520E+02 0.  0.
        -11    1    5    5    0    0  0.12417783324E+02 -0.23473769181E+02  0.10905679650E+03  0.11224350336E+03  0.00000000000E+00 0.  1.
         12    1    5    5    0    0  0.14041066215E+02  0.52572152257E+02  0.60479172112E+03  0.60723472288E+03  0.00000000000E+00 0. -1.
         13    1    3    3    0    0  0.21761809396E+02 -0.20949772014E+02 -0.68452343120E+02  0.74821070390E+02  0.00000000000E+00 0. -1.
        -14    1    3    3    0    0 -0.26326032754E+02  0.79152753941E+01  0.75540423584E+01  0.28509211513E+02  0.00000000000E+00 0.  1.
          5    1    4    4  501    0  0.31609776924E+02 -0.51875457897E+02  0.14856081591E+03  0.16055537846E+03  0.41800000000E+01 0. -1.
         -5    1    4    4    0  501 -0.53504403105E+02  0.35811571440E+02  0.24161385197E+03  0.25007981858E+03  0.41800000000E+01 0. -1.
</event>
<event>
11    1  0.8041700E-009  0.1463519E+03  0.7561462E-02  0.1100666E+00
         22   -1    0    0    0    0  0.00000000000E+00  0.00000000000E+00  0.73657895643E+02  0.73657895643E+02  0.00000000000E+00 0. -1.
         22   -1    0    0    0    0 -0.00000000000E+00 -0.00000000000E+00 -0.79570131560E+03  0.79570131560E+03  0.00000000000E+00 0.  1.
         24    2    1    2    0    0  0.92848392702E+01 -0.62445184068E+02 -0.48129924969E+03  0.49196061087E+03  0.79941638966E+02 0.  0.
         25    2    1    2    0    0  0.16251244384E+02  0.11903797566E+03 -0.19853891651E+03  0.26362531839E+03  0.12508582866E+03 0.  0.
        -24    2    1    2    0    0 -0.25536083654E+02 -0.56592791594E+02 -0.42205253765E+02  0.11377328200E+03  0.85488248444E+02 0.  0.
        -11    1    3    3    0    0  0.19732057011E+01 -0.58791924117E+02 -0.48011084582E+03  0.48370115583E+03  0.00000000000E+00 0.  1.
         12    1    3    3    0    0  0.73116335691E+01 -0.36532599501E+01 -0.11884038713E+01  0.82594550349E+01  0.00000000000E+00 0. -1.
         11    1    5    5    0    0 -0.19464662547E+02 -0.42549224212E+02  0.19136632954E+02  0.50552154157E+02  0.00000000000E+00 0. -1.
        -12    1    5    5    0    0 -0.60714211075E+01 -0.14043567382E+02 -0.61341886719E+02  0.63221127840E+02  0.00000000000E+00 0.  1.
          5    1    4    4  501    0  0.51062185587E+02  0.23942151220E+02 -0.23250379485E+02  0.61144304299E+02  0.41800000000E+01 0. -1.
         -5    1    4    4    0  501 -0.34810941203E+02  0.95095824441E+02 -0.17528853702E+03  0.20248101409E+03  0.41800000000E+01 0. -1.
</event>
<event>
11    1  0.8041700E-009  0.1581273E+03  0.7561462E-02  0.1088852E+00
         22   -1    0    0    0    0  0.00000000000E+00  0.00000000000E+00  0.22749334067E+04  0.22749334067E+04  0.00000000000E+00 0.  1.
         22   -1    0    0    0    0 -0.00000000000E+00 -0.00000000000E+00 -0.34104688527E+03  0.34104688527E+03  0.00000000000E+00 0.  1.
         24    2    1    2    0    0 -0.31717769829E+02  0.91857534266E+02 -0.32064261985E+03  0.34462874664E+03  0.80706008602E+02 0.  0.
         25    2    1    2    0    0 -0.22959906665E+02 -0.77333221551E+02  0.81722466117E+03  0.83066933119E+03  0.12509119266E+03 0.  0.
        -24    2    1    2    0    0  0.54677676494E+02 -0.14524312715E+02  0.14373044801E+04  0.14406822142E+04  0.80749424845E+02 0.  0.
        -11    1    3    3    0    0 -0.18735198067E+02  0.10527521504E+03 -0.28486043408E+03  0.30426854167E+03  0.00000000000E+00 0.  1.
         12    1    3    3    0    0 -0.12982571762E+02 -0.13417680770E+02 -0.35782185770E+02  0.40360204971E+02  0.00000000000E+00 0. -1.
         11    1    5    5    0    0  0.19266824538E+02 -0.13812856748E+02  0.95092207854E+02  0.98002722073E+02  0.00000000000E+00 0. -1.
        -12    1    5    5    0    0  0.35410851955E+02 -0.71145596691E+00  0.13422122723E+04  0.13426794921E+04  0.00000000000E+00 0.  1.
          5    1    4    4  501    0 -0.83042994373E+01  0.31256098800E+02  0.31098915126E+03  0.31269414721E+03  0.41800000000E+01 0. -1.
         -5    1    4    4    0  501 -0.14655607227E+02 -0.10858932035E+03  0.50623550992E+03  0.51797518398E+03  0.41800000000E+01 0. -1.
</event>
<event>
11    1  0.8041700E-009  0.1609690E+03  0.7561462E-02  0.1086169E+00
         22   -1    0    0    0    0  0.00000000000E+00  0.00000000000E+00  0.44604762974E+03  0.44604762974E+03  0.00000000000E+00 0. -1.
         22   -1    0    0    0    0 -0.00000000000E+00 -0.00000000000E+00 -0.10363977370E+04  0.10363977370E+04  0.00000000000E+00 0. -1.
         24    2    1    2    0    0  0.10005799799E+03 -0.20173687926E+02 -0.97196727528E+03  0.98060015509E+03  0.80235274632E+02 0.  0.
         25    2    1    2    0    0 -0.81044211844E+02  0.18433170162E+02  0.47490221988E+02  0.15751733666E+03  0.12509374136E+03 0.  0.
        -24    2    1    2    0    0 -0.19013786150E+02  0.17405177644E+01  0.33412694608E+03  0.34432787494E+03  0.80971080640E+02 0.  0.
        -11    1    3    3    0    0  0.32719809710E+02 -0.23350032619E+02 -0.13332734740E+03  0.13925513109E+03  0.00000000000E+00 0.  1.
         12    1    3    3    0    0  0.67338188284E+02  0.31763446933E+01 -0.83863992788E+03  0.84134502400E+03  0.00000000000E+00 0. -1.
         11    1    5    5    0    0 -0.26508559870E+02 -0.22452042695E+02  0.29906153869E+03  0.30107241968E+03  0.00000000000E+00 0. -1.
        -12    1    5    5    0    0  0.74947737199E+01  0.24192560460E+02  0.35065407393E+02  0.43255455267E+02  0.00000000000E+00 0.  1.
          5    1    4    4  501    0 -0.70147315133E+02 -0.37747022431E+02 -0.47633312719E+01  0.79910232434E+02  0.41800000000E+01 0. -1.
         -5    1    4    4    0  501 -0.10896896710E+02  0.56180192593E+02  0.52253553260E+02  0.77607104224E+02  0.41800000000E+01 0. -1.
</event>
<event>
11    1  0.8041700E-009  0.1448065E+03  0.7561462E-02  0.1102307E+00
         22   -1    0    0    0    0  0.00000000000E+00  0.00000000000E+00  0.26813412092E+03  0.26813412092E+03  0.00000000000E+00 0.  1.
         22   -1    0    0    0    0 -0.00000000000E+00 -0.00000000000E+00 -0.23872951176E+04  0.23872951176E+04  0.00000000000E+00 0.  1.
         24    2    1    2    0    0 -0.66875770033E+02 -0.27122225403E+02 -0.19749559450E+04  0.19776564260E+04  0.73932204239E+02 0.  0.
         25    2    1    2    0    0  0.94155704063E+02 -0.18180658421E+02 -0.38495827394E+03  0.41597631517E+03  0.12509032402E+03 0.  0.
        -24    2    1    2    0    0 -0.27279934030E+02  0.45302883825E+02  0.24075322223E+03  0.26179649738E+03  0.88197199189E+02 0.  0.
        -11    1    3    3    0    0 -0.54472609949E+02 -0.40189040471E+02 -0.18654915816E+04  0.18667193858E+04  0.00000000000E+00 0.  1.
         12    1    3    3    0    0 -0.12403160084E+02  0.13066815067E+02 -0.10946436339E+03  0.11093704020E+03  0.00000000000E+00 0. -1.
         11    1    5    5    0    0 -0.26922797708E+02  0.35370669041E+02  0.37095565211E+02  0.57896478504E+02  0.00000000000E+00 0. -1.
        -12    1    5    5    0    0 -0.35713632209E+00  0.99322147839E+01  0.20365765702E+03  0.20390001888E+03  0.00000000000E+00 0.  1.
          5    1    4    4  501    0 -0.12646934624E+02  0.12526229512E+02 -0.19503250015E+03  0.19588772268E+03  0.41800000000E+01 0. -1.
         -5    1    4    4    0  501  0.10680263869E+03 -0.30706887933E+02 -0.18992577379E+03  0.22008859249E+03  0.41800000000E+01 0. -1.
</event>
<event>
11    1  0.8041700E-009  0.1385407E+03  0.7561462E-02  0.1109199E+00
         22   -1    0    0    0    0  0.00000000000E+00  0.00000000000E+00  0.22573969398E+04  0.22573969398E+04  0.00000000000E+00 0.  1.
         22   -1    0    0    0    0 -0.00000000000E+00 -0.00000000000E+00 -0.27536469839E+03  0.27536469839E+03  0.00000000000E+00 0. -1.
        -24    2    1    2    0    0  0.63170218184E+02 -0.78129525565E+01 -0.16945271750E+03  0.19878630895E+03  0.82159932220E+02 0.  0.
         25    2    1    2    0    0 -0.46916780324E+02 -0.24976102866E+02 -0.39255771469E+02  0.14146935159E+03  0.12509025484E+03 0.  0.
         24    2    1    2    0    0 -0.16253437860E+02  0.32789055423E+02  0.21907407304E+04  0.21925059777E+04  0.79988860915E+02 0.  0.
        -11    1    5    5    0    0 -0.41121589649E+02  0.10041072780E+02  0.17368234626E+04  0.17373392152E+04  0.00000000000E+00 0.  1.
         12    1    5    5    0    0  0.24868151789E+02  0.22747982643E+02  0.45391726777E+03  0.45516676248E+03  0.00000000000E+00 0. -1.
         11    1    3    3    0    0  0.55115892592E+02 -0.35365402580E+02 -0.15119154763E+03  0.16476455137E+03  0.00000000000E+00 0. -1.
        -12    1    3    3    0    0  0.80543255927E+01  0.27552450024E+02 -0.18261169876E+02  0.34021757572E+02  0.00000000000E+00 0.  1.
          5    1    4    4  501    0 -0.12730942082E+02 -0.71168799956E+02 -0.12217785346E+01  0.72429552783E+02  0.41800000000E+01 0. -1.
         -5    1    4    4    0  501 -0.34185838242E+02  0.46192697090E+02 -0.38033992935E+02  0.69039798807E+02  0.41800000000E+01 0. -1.
</event>
<event>
11    1  0.9338116E-009  0.1575512E+03  0.7561462E-02  0.1089403E+00
         22   -1    0    0    0    0  0.00000000000E+00  0.00000000000E+00  0.11875096904E+04  0.11875096904E+04  0.00000000000E+00 0. -1.
         22   -1    0    0    0    0 -0.00000000000E+00 -0.00000000000E+00 -0.55854823477E+03  0.55854823477E+03  0.00000000000E+00 0. -1.
         24    2    1    2    0    0 -0.14392753198E+02  0.26266942790E+01 -0.45532177128E+03  0.46430891834E+03  0.89726280321E+02 0.  0.
         25    2    1    2    0    0  0.95683857102E+02 -0.52367940778E+02 -0.22848410921E+02  0.16752954272E+03  0.12508515527E+03 0.  0.
        -24    2    1    2    0    0 -0.81291103905E+02  0.49741246499E+02  0.11071316378E+04  0.11142194641E+04  0.81621783508E+02 0.  0.
        -11    1    3    3    0    0  0.25981200111E+02 -0.35869667057E+01 -0.45983342018E+02  0.52937291511E+02  0.00000000000E+00 0.  1.
         12    1    3    3    0    0 -0.40373953309E+02  0.62136609847E+01 -0.40933842926E+03  0.41137162683E+03  0.00000000000E+00 0. -1.
         13    1    5    5    0    0 -0.45420564586E+02  0.25829549396E+02  0.94533957173E+03  0.94678249836E+03  0.00000000000E+00 0. -1.
        -14    1    5    5    0    0 -0.35870539319E+02  0.23911697103E+02  0.16179206610E+03  0.16743696576E+03  0.00000000000E+00 0.  1.
          5    1    4    4  501    0  0.26496809541E+02 -0.85077903190E+02 -0.15382241809E+02  0.90523015251E+02  0.41800000000E+01 0. -1.
         -5    1    4    4    0  501  0.69187047561E+02  0.32709962411E+02 -0.74661691123E+01  0.77006527466E+02  0.41800000000E+01 0. -1.
</event>
<event>
11    1  0.8041700E-009  0.1690245E+03  0.7561462E-02  0.1078884E+00
         22   -1    0    0    0    0  0.00000000000E+00  0.00000000000E+00  0.73478746396E+03  0.73478746396E+03  0.00000000000E+00 0. -1.
         22   -1    0    0    0    0 -0.00000000000E+00 -0.00000000000E+00 -0.55718874095E+03  0.55718874095E+03  0.00000000000E+00 0.  1.
        -24    2    1    2    0    0  0.13183792284E+03  0.25828445344E+02 -0.38002380358E+03  0.41111126841E+03  0.80907584542E+02 0.  0.
         25    2    1    2    0    0 -0.71554878431E+02  0.38337884396E+02 -0.12085296429E+03  0.19194583320E+03  0.12509144615E+03 0.  0.
         24    2    1    2    0    0 -0.60283044411E+02 -0.64166329740E+02  0.67847549088E+03  0.68891910329E+03  0.80803315740E+02 0.  0.
        -11    1    5    5    0    0 -0.53081315001E+02 -0.20066069541E+00  0.24450218127E+03  0.25019788750E+03  0.00000000000E+00 0.  1.
         12    1    5    5    0    0 -0.72017294098E+01 -0.63965669045E+02  0.43397330961E+03  0.43872121579E+03  0.00000000000E+00 0. -1.
         13    1    3    3    0    0  0.12934447256E+03  0.36384964637E+02 -0.28074920409E+03  0.31124584147E+03  0.00000000000E+00 0. -1.
        -14    1    3    3    0    0  0.24934502783E+01 -0.10556519293E+02 -0.99274599489E+02  0.99865426939E+02  0.00000000000E+00 0.  1.
          5    1    4    4  501    0  0.12652642281E+01  0.55810796765E+02 -0.81570351436E+01  0.56572568896E+02  0.41800000000E+01 0. -1.
         -5    1    4    4    0  501 -0.72820142659E+02 -0.17472912369E+02 -0.11269592914E+03  0.13537326431E+03  0.41800000000E+01 0. -1.
</event>
<event>
11    1  0.8041700E-009  0.1305237E+03  0.7561462E-02  0.1118627E+00
         22   -1    0    0    0    0  0.00000000000E+00  0.00000000000E+00  0.49702333430E+03  0.49702333430E+03  0.00000000000E+00 0.  1.
         22   -1    0    0    0    0 -0.00000000000E+00 -0.00000000000E+00 -0.16677404120E+04  0.16677404120E+04  0.00000000000E+00 0.  1.
        -24    2    1    2    0    0 -0.11824476486E+02 -0.20282363329E+01 -0.15881880753E+04  0.15902385886E+04  0.79834041121E+02 0.  0.
         25    2    1    2    0    0 -0.72406219785E+01 -0.30510890167E+02 -0.17848550539E+02  0.13018858222E+03  0.12508858924E+03 0.  0.
         24    2    1    2    0    0  0.19065098464E+02  0.32539126500E+02  0.43531954822E+03  0.44433657541E+03  0.80682156926E+02 0.  0.
        -11    1    5    5    0    0  0.20819915175E+02  0.28465581406E+02  0.43782455106E+03  0.43924263876E+03  0.00000000000E+00 0.  1.
         12    1    5    5    0    0 -0.17548167104E+01  0.40735450946E+01 -0.25050028395E+01  0.50939366457E+01  0.00000000000E+00 0. -1.
         13    1    3    3    0    0 -0.13234025341E+02 -0.35194309667E+02 -0.45052864183E+03  0.45209494132E+03  0.00000000000E+00 0. -1.
        -14    1    3    3    0    0  0.14095488547E+01  0.33166073334E+02 -0.11376594335E+04  0.11381436473E+04  0.00000000000E+00 0.  1.
          5    1    4    4  501    0 -0.36714091390E+02 -0.43820181028E+01 -0.61101209901E+02  0.71539896845E+02  0.41800000000E+01 0. -1.
         -5    1    4    4    0  501  0.29473469411E+02 -0.26128872064E+02  0.43252659362E+02  0.58648685376E+02  0.41800000000E+01 0. -1.
</event>
<event>
11    1  0.8041700E-009  0.1323816E+03  0.7561462E-02  0.1116377E+00
         22   -1    0    0    0    0  0.00000000000E+00  0.00000000000E+00  0.12630863793E+04  0.12630863793E+04  0.00000000000E+00 0. -1.
         22   -1    0    0    0    0 -0.00000000000E+00 -0.00000000000E+00 -0.31391231088E+03  0.31391231088E+03  0.00000000000E+00 0. -1.
        -24    2    1    2    0    0  0.46831150824E+02 -0.96912084186E+01 -0.25003759400E+03  0.26696092350E+03  0.80388183563E+02 0.  0.
         25    2    1    2    0    0 -0.64864700670E+01 -0.11777379714E+02  0.19973745546E+02  0.12738720183E+03  0.12509103770E+03 0.  0.
         24    2    1    2    0    0 -0.40344680757E+02  0.21468588133E+02  0.11792379169E+04  0.11826505649E+04  0.77276777827E+02 0.  0.
        -13    1    5    5    0    0  0.18972644596E+02 -0.11194858567E+02  0.27567811038E+03  0.27655687777E+03  0.00000000000E+00 0.  1.
         14    1    5    5    0    0 -0.59317325353E+02  0.32663446700E+02  0.90355980653E+03  0.90609368710E+03  0.00000000000E+00 0. -1.
         11    1    3    3    0    0  0.33679824382E+02  0.34022674967E+02 -0.12559736147E+03  0.13441194214E+03  0.00000000000E+00 0. -1.
        -12    1    3    3    0    0  0.13151326442E+02 -0.43713883385E+02 -0.12444023253E+03  0.13254898136E+03  0.00000000000E+00 0.  1.
          5    1    4    4  501    0  0.41912476700E+02  0.19186347451E+02 -0.26532502093E+02  0.53349955005E+02  0.41800000000E+01 0. -1.
         -5    1    4    4    0  501 -0.48398946768E+02 -0.30963727165E+02  0.46506247639E+02  0.74037246826E+02  0.41800000000E+01 0. -1.
</event>
<event>
11    1  0.8041700E-009  0.1447165E+03  0.7561462E-02  0.1102403E+00
         22   -1    0    0    0    0  0.00000000000E+00  0.00000000000E+00  0.14229784002E+03  0.14229784002E+03  0.00000000000E+00 0.  1.
         22   -1    0    0    0    0 -0.00000000000E+00 -0.00000000000E+00 -0.13929057403E+04  0.13929057403E+04  0.00000000000E+00 0. -1.
        -24    2    1    2    0    0 -0.39764500775E+02 -0.45107289250E+02 -0.46971569532E+03  0.48036251877E+03  0.80619054499E+02 0.  0.
         25    2    1    2    0    0  0.67530149511E+02  0.57285523943E+02 -0.89720315209E+03  0.91020168269E+03  0.12510657340E+03 0.  0.
         24    2    1    2    0    0 -0.27765648736E+02 -0.12178234692E+02  0.11631094714E+03  0.14463937885E+03  0.80455409008E+02 0.  0.
        -11    1    5    5    0    0 -0.28686173315E+02  0.27612160677E+02  0.85465131457E+02  0.94284763624E+02  0.00000000000E+00 0.  1.
         12    1    5    5    0    0  0.92052457956E+00 -0.39790395369E+02  0.30845815687E+02  0.50354615225E+02  0.00000000000E+00 0. -1.
         11    1    3    3    0    0 -0.37623444312E+02 -0.21413976329E+02 -0.44078905165E+03  0.44290977637E+03  0.00000000000E+00 0. -1.
        -12    1    3    3    0    0 -0.21410564631E+01 -0.23693312922E+02 -0.28926643663E+02  0.37452742404E+02  0.00000000000E+00 0.  1.
          5    1    4    4  501    0 -0.14965905321E+02 -0.29559852013E+02 -0.20255016859E+03  0.20528469590E+03  0.41800000000E+01 0.  1.
         -5    1    4    4    0  501  0.82496054832E+02  0.86845375956E+02 -0.69465298349E+03  0.70491698679E+03  0.41800000000E+01 0.  1.
</event>
<event>
11    1  0.8041700E-009  0.1540333E+03  0.7561462E-02  0.1092827E+00
         22   -1    0    0    0    0  0.00000000000E+00  0.00000000000E+00  0.27670330134E+03  0.27670330134E+03  0.00000000000E+00 0. -1.
         22   -1    0    0    0    0 -0.00000000000E+00 -0.00000000000E+00 -0.90878115489E+03  0.90878115489E+03  0.00000000000E+00 0. -1.
         24    2    1    2    0    0  0.38660025952E+02 -0.25433407876E+01 -0.81903878476E+03  0.82411495477E+03  0.82703455420E+02 0.  0.
         25    2    1    2    0    0  0.59448039128E+02  0.15009776983E+02  0.64842580200E+01  0.13946088653E+03  0.12509168840E+03 0.  0.
        -24    2    1    2    0    0 -0.98108065080E+02 -0.12466436195E+02  0.18047667319E+03  0.22190861494E+03  0.83012043437E+02 0.  0.
        -13    1    3    3    0    0 -0.35355433570E+01  0.90179685711E+01 -0.10100511928E+02  0.13994433364E+02  0.00000000000E+00 0.  1.
         14    1    3    3    0    0  0.42195569309E+02 -0.11561309359E+02 -0.80893827283E+03  0.81012052140E+03  0.00000000000E+00 0. -1.
         13    1    5    5    0    0 -0.96384822216E+02 -0.15314205054E+02  0.18902657047E+03  0.21273364373E+03  0.00000000000E+00 0. -1.
        -14    1    5    5    0    0 -0.17232428635E+01  0.28477688584E+01 -0.85498972765E+01  0.91749712193E+01  0.00000000000E+00 0.  1.
          5    1    4    4  501    0 -0.20303283973E+02  0.76087512260E+01 -0.40774726417E+02  0.46369894864E+02  0.41800000000E+01 0. -1.
         -5    1    4    4    0  501  0.79751323101E+02  0.74010257570E+01  0.47258984437E+02  0.93090991662E+02  0.41800000000E+01 0. -1.
</event>
<event>
11    1  0.8041700E-009  0.1290344E+03  0.7561462E-02  0.1120461E+00
         22   -1    0    0    0    0  0.00000000000E+00  0.00000000000E+00  0.15723115777E+04  0.15723115777E+04  0.00000000000E+00 0.  1.
         22   -1    0    0    0    0 -0.00000000000E+00 -0.00000000000E+00 -0.26129439569E+02  0.26129439569E+02  0.00000000000E+00 0.  1.
        -24    2    1    2    0    0 -0.25960420076E+02  0.22035103119E+02  0.13977109618E+03  0.16593322653E+03  0.82694541290E+02 0.  0.
         25    2    1    2    0    0  0.24995557068E+02 -0.10448223805E+02  0.34101654480E+03  0.36424416351E+03  0.12509030165E+03 0.  0.
         24    2    1    2    0    0  0.96486300771E+00 -0.11586879314E+02  0.10653944971E+04  0.10682636272E+04  0.77372837440E+02 0.  0.
        -13    1    5    5    0    0 -0.50067879918E+01 -0.11214719085E+02  0.10603962533E+04  0.10604673742E+04  0.00000000000E+00 0.  1.
         14    1    5    5    0    0  0.59716509995E+01 -0.37216022804E+00  0.49982438580E+01  0.77962529820E+01  0.00000000000E+00 0. -1.
         11    1    3    3    0    0  0.11842154705E+02 -0.23086927061E+02  0.21018681685E+02  0.33392032118E+02  0.00000000000E+00 0. -1.
        -12    1    3    3    0    0 -0.37802574782E+02  0.45122030180E+02  0.11875241449E+03  0.13254119441E+03  0.00000000000E+00 0.  1.
          5    1    4    4  501    0 -0.44007625597E+01  0.51911871914E+02  0.91820358540E+02  0.10565348929E+03  0.41800000000E+01 0.  1.
         -5    1    4    4    0  501  0.29396319628E+02 -0.62360095719E+02  0.24919618626E+03  0.25859067422E+03  0.41800000000E+01 0.  1.
</event>
<event>
11    1  0.8041700E-009  0.1409836E+03  0.7561462E-02  0.1106465E+00
         22   -1    0    0    0    0  0.00000000000E+00  0.00000000000E+00  0.81004593102E+03  0.81004593102E+03  0.00000000000E+00 0.  1.
         22   -1    0    0    0    0 -0.00000000000E+00 -0.00000000000E+00 -0.14781586080E+04  0.14781586080E+04  0.00000000000E+00 0.  1.
         24    2    1    2    0    0 -0.46667825310E+01 -0.56863908005E+02 -0.13766245512E+04  0.13801603461E+04  0.80573836078E+02 0.  0.
         25    2    1    2    0    0 -0.60119067867E+02  0.47541808737E+02 -0.40263137432E+02  0.15212930896E+03  0.12509068914E+03 0.  0.
        -24    2    1    2    0    0  0.64785850398E+02  0.93220992675E+01  0.74877501165E+03  0.75591488396E+03  0.80369059798E+02 0.  0.
        -11    1    3    3    0    0 -0.40306424830E+02 -0.24132482156E+02 -0.85732142386E+03  0.85860759861E+03  0.00000000000E+00 0.  1.
         12    1    3    3    0    0  0.35639642299E+02 -0.32731425849E+02 -0.51930312732E+03  0.52155274746E+03  0.00000000000E+00 0. -1.
         13    1    5    5    0    0  0.80434305731E+02 -0.58731564211E+01  0.53746708010E+03  0.54348416140E+03  0.00000000000E+00 0. -1.
        -14    1    5    5    0    0 -0.15648455333E+02  0.15195255689E+02  0.21130793155E+03  0.21243072256E+03  0.00000000000E+00 0.  1.
          5    1    4    4  501    0 -0.96255854007E+01  0.37713604480E+02  0.40472630504E+02  0.56306962954E+02  0.41800000000E+01 0. -1.
         -5    1    4    4    0  501 -0.50493482466E+02  0.98282042575E+01 -0.80735767935E+02  0.95822346009E+02  0.41800000000E+01 0. -1.
</event>
<event>
11    1  0.8041700E-009  0.2551688E+03  0.7561462E-02  0.1021181E+00
         22   -1    0    0    0    0  0.00000000000E+00  0.00000000000E+00  0.43547196266E+03  0.43547196266E+03  0.00000000000E+00 0.  1.
         22   -1    0    0    0    0 -0.00000000000E+00 -0.00000000000E+00 -0.12779989405E+04  0.12779989405E+04  0.00000000000E+00 0. -1.
        -24    2    1    2    0    0  0.20885678812E+03 -0.74331828538E+02 -0.11473039391E+04  0.11709873893E+04  0.75886485977E+02 0.  0.
         25    2    1    2    0    0 -0.22033583917E+03  0.72185241007E+02  0.41158939816E+02  0.26664007792E+03  0.12507710335E+03 0.  0.
         24    2    1    2    0    0  0.11479051052E+02  0.21465875305E+01  0.26361802138E+03  0.27584343591E+03  0.80366432585E+02 0.  0.
        -13    1    5    5    0    0  0.12150277453E+02 -0.31084259396E+02  0.21088485683E+03  0.21350944537E+03  0.00000000000E+00 0.  1.
         14    1    5    5    0    0 -0.67122640127E+00  0.33230846927E+02  0.52733164555E+02  0.62333990538E+02  0.00000000000E+00 0. -1.
         11    1    3    3    0    0  0.17692522982E+03 -0.65170013908E+02 -0.10751003210E+04  0.10915082995E+04  0.00000000000E+00 0. -1.
        -12    1    3    3    0    0  0.31931558304E+02 -0.91618146295E+01 -0.72203618093E+02  0.79479089884E+02  0.00000000000E+00 0.  1.
          5    1    4    4  501    0 -0.20566572911E+03  0.36013281541E+02 -0.12636776718E+01  0.20884065183E+03  0.41800000000E+01 0.  1.
         -5    1    4    4    0  501 -0.14670110063E+02  0.36171959466E+02  0.42422617487E+02  0.57799426082E+02  0.41800000000E+01 0.  1.
</event>
<event>
11    1  0.8041700E-009  0.1491750E+03  0.7561462E-02  0.1097725E+00
         22   -1    0    0    0    0  0.00000000000E+00  0.00000000000E+00  0.14009821901E+04  0.14009821901E+04  0.00000000000E+00 0. -1.
         22   -1    0    0    0    0 -0.00000000000E+00 -0.00000000000E+00 -0.25415986645E+03  0.25415986645E+03  0.00000000000E+00 0.  1.
        -24    2    1    2    0    0  0.83141447527E+02 -0.17983926069E+02 -0.21271102239E+03  0.24248754957E+03  0.79487802557E+02 0.  0.
         25    2    1    2    0    0 -0.27243801920E+02  0.36252550936E+02  0.15879889044E+03  0.20717418537E+03  0.12509030053E+03 0.  0.
         24    2    1    2    0    0 -0.55897645607E+02 -0.18268624868E+02  0.12007344556E+04  0.12054803216E+04  0.89226024594E+02 0.  0.
        -13    1    5    5    0    0 -0.40771431919E+02 -0.32751096461E+02  0.30149273187E+03  0.30599478974E+03  0.00000000000E+00 0.  1.
         14    1    5    5    0    0 -0.15126213689E+02  0.14482471594E+02  0.89924172374E+03  0.89948553187E+03  0.00000000000E+00 0. -1.
         11    1    3    3    0    0 -0.72954551713E+01  0.10099356021E+02 -0.70762088355E+02  0.71850496216E+02  0.00000000000E+00 0. -1.
        -12    1    3    3    0    0  0.90436902698E+02 -0.28083282090E+02 -0.14194893404E+03  0.17063705335E+03  0.00000000000E+00 0.  1.
          5    1    4    4  501    0  0.34546980879E+02 -0.23990656796E+02  0.29037604778E+02  0.51280604448E+02  0.41800000000E+01 0. -1.
         -5    1    4    4    0  501 -0.61790782799E+02  0.60243207732E+02  0.12976128566E+03  0.15589358093E+03  0.41800000000E+01 0. -1.
</event>
<event>
11    1  0.8041700E-009  0.1536477E+03  0.7561462E-02  0.1093209E+00
         22   -1    0    0    0    0  0.00000000000E+00  0.00000000000E+00  0.79950407635E+03  0.79950407635E+03  0.00000000000E+00 0. -1.
         22   -1    0    0    0    0 -0.00000000000E+00 -0.00000000000E+00 -0.99997359164E+02  0.99997359164E+02  0.00000000000E+00 0.  1.
        -24    2    1    2    0    0  0.24584648663E+02  0.81164649668E+02 -0.26203050447E+02  0.11417099821E+03  0.71807462527E+02 0.  0.
         25    2    1    2    0    0 -0.40526610786E+02 -0.11081924481E+03  0.26158213474E+03  0.31305096511E+03  0.12510948139E+03 0.  0.
         24    2    1    2    0    0  0.15941962122E+02  0.29654595144E+02  0.46412763289E+03  0.47227947220E+03  0.80621951575E+02 0.  0.
        -11    1    5    5    0    0 -0.26522073030E+02  0.12146699642E+02  0.75377979175E+02  0.80825753411E+02  0.00000000000E+00 0.  1.
         12    1    5    5    0    0  0.42464035153E+02  0.17507895502E+02  0.38874965372E+03  0.39145371878E+03  0.00000000000E+00 0. -1.
         11    1    3    3    0    0 -0.13264709740E+02  0.17100882715E+02  0.17539046390E+02  0.27856971522E+02  0.00000000000E+00 0. -1.
        -12    1    3    3    0    0  0.37849358403E+02  0.64063766954E+02 -0.43742096838E+02  0.86314026691E+02  0.00000000000E+00 0.  1.
          5    1    4    4  501    0 -0.61490111496E+02 -0.45922063187E+02  0.52476498157E+02  0.93065165115E+02  0.41800000000E+01 0.  1.
         -5    1    4    4    0  501  0.20963500710E+02 -0.64897181625E+02  0.20910563659E+03  0.21998579999E+03  0.41800000000E+01 0.  1.
</event>
<event>
11    1  0.8041700E-009  0.1496411E+03  0.7561462E-02  0.1097246E+00
         22   -1    0    0    0    0  0.00000000000E+00  0.00000000000E+00  0.47504449604E+03  0.47504449604E+03  0.00000000000E+00 0.  1.
         22   -1    0    0    0    0 -0.00000000000E+00 -0.00000000000E+00 -0.24746154432E+03  0.24746154432E+03  0.00000000000E+00 0.  1.
        -24    2    1    2    0    0  0.51189521016E+02 -0.65106397561E+02 -0.19742524233E+03  0.22911383690E+03  0.81591751337E+02 0.  0.
         25    2    1    2    0    0 -0.77753007533E+02  0.30002542284E+02  0.19804100447E+03  0.24862284012E+03  0.12508954575E+03 0.  0.
         24    2    1    2    0    0  0.26563486517E+02  0.35103855277E+02  0.22696718958E+03  0.24476936333E+03  0.80374352945E+02 0.  0.
        -11    1    5    5    0    0 -0.15520323206E+01  0.15790041652E+02  0.20169270439E+03  0.20231579578E+03  0.00000000000E+00 0.  1.
         12    1    5    5    0    0  0.28115518838E+02  0.19313813626E+02  0.25274485187E+02  0.42453567551E+02  0.00000000000E+00 0. -1.
         13    1    3    3    0    0  0.70087549286E+02 -0.30692671768E+02 -0.14011759095E+03  0.15964724852E+03  0.00000000000E+00 0. -1.
        -14    1    3    3    0    0 -0.18898028270E+02 -0.34413725793E+02 -0.57307651379E+02  0.69466588386E+02  0.00000000000E+00 0.  1.
          5    1    4    4  501    0 -0.19383178560E+02 -0.40594183617E+02  0.22265500084E+02  0.50366856648E+02  0.41800000000E+01 0. -1.
         -5    1    4    4    0  501 -0.58369828973E+02  0.70596725900E+02  0.17577550438E+03  0.19825598347E+03  0.41800000000E+01 0. -1.
</event>
<event>
11    1  0.8041700E-009  0.1454786E+03  0.7561462E-02  0.1101590E+00
         22   -1    0    0    0    0  0.00000000000E+00  0.00000000000E+00  0.10522460310E+04  0.10522460310E+04  0.00000000000E+00 0. -1.
         22   -1    0    0    0    0 -0.00000000000E+00 -0.00000000000E+00 -0.49562925774E+02  0.49562925774E+02  0.00000000000E+00 0. -1.
        -24    2    1    2    0    0  0.63709378551E+02 -0.44365148198E+02  0.67240497688E+02  0.13264027600E+03  0.83934539966E+02 0.  0.
         25    2    1    2    0    0 -0.73834503399E+02 -0.64880029323E+01  0.41937552208E+03  0.44386605469E+03  0.12509043896E+03 0.  0.
         24    2    1    2    0    0  0.10125124848E+02  0.50853151131E+02  0.51606708546E+03  0.52530262607E+03  0.83240922211E+02 0.  0.
        -13    1    5    5    0    0  0.27956284833E+02 -0.21507586899E+01  0.65101987873E+02  0.70883343951E+02  0.00000000000E+00 0.  1.
         14    1    5    5    0    0 -0.17831159985E+02  0.53003909820E+02  0.45096509758E+03  0.45441928212E+03  0.00000000000E+00 0. -1.
         13    1    3    3    0    0  0.16417439537E+02  0.38409873020E+01 -0.17488022859E+02  0.24292312528E+02  0.00000000000E+00 0. -1.
        -14    1    3    3    0    0  0.47291939013E+02 -0.48206135500E+02  0.84728520547E+02  0.10834796348E+03  0.00000000000E+00 0.  1.
          5    1    4    4  501    0  0.13637093406E+02  0.38435602922E+02  0.18815871753E+03  0.19257321016E+03  0.41800000000E+01 0. -1.
         -5    1    4    4    0  501 -0.87471596805E+02 -0.44923605854E+02  0.23121680455E+03  0.25129284454E+03  0.41800000000E+01 0. -1.
</event>
<event>
11    1  0.1767679E-008  0.1536823E+03  0.7561462E-02  0.1093174E+00
         22   -1    0    0    0    0  0.00000000000E+00  0.00000000000E+00  0.10602153118E+04  0.10602153118E+04  0.00000000000E+00 0.  1.
         22   -1    0    0    0    0 -0.00000000000E+00 -0.00000000000E+00 -0.97281493589E+03  0.97281493589E+03  0.00000000000E+00 0.  1.
        -24    2    1    2    0    0  0.13409083071E+02 -0.51404154231E+02 -0.73861377335E+03  0.74653527589E+03  0.94564376934E+02 0.  0.
         25    2    1    2    0    0 -0.67899218409E+02 -0.19945400256E+02 -0.20394957993E+03  0.24950128433E+03  0.12508931559E+03 0.  0.
         24    2    1    2    0    0  0.54490135338E+02  0.71349554487E+02  0.10299637292E+04  0.10369936875E+04  0.80440602949E+02 0.  0.
        -13    1    5    5    0    0  0.58414769740E+02  0.37236718839E+02  0.89688439137E+03  0.89955570702E+03  0.00000000000E+00 0.  1.
         14    1    5    5    0    0 -0.39246344023E+01  0.34112835648E+02  0.13307933783E+03  0.13743798044E+03  0.00000000000E+00 0. -1.
         11    1    3    3    0    0 -0.15774158129E+02  0.17773955749E+02 -0.74686383788E+02  0.78375975215E+02  0.00000000000E+00 0. -1.
        -12    1    3    3    0    0  0.29183241200E+02 -0.69178109980E+02 -0.66392738957E+03  0.66815930068E+03  0.00000000000E+00 0.  1.
          5    1    4    4  501    0 -0.22814922174E+02 -0.68509451399E+02 -0.13860985091E+03  0.15634650228E+03  0.41800000000E+01 0. -1.
         -5    1    4    4    0  501 -0.45084296234E+02  0.48564051143E+02 -0.65339729022E+02  0.93154782051E+02  0.41800000000E+01 0. -1.
</event>
<event>
11    1  0.8041700E-009  0.3473255E+03  0.7561462E-02  0.9819392E-01
         22   -1    0    0    0    0  0.00000000000E+00  0.00000000000E+00  0.10917729923E+04  0.10917729923E+04  0.00000000000E+00 0. -1.
         22   -1    0    0    0    0 -0.00000000000E+00 -0.00000000000E+00 -0.52465366305E+03  0.52465366305E+03  0.00000000000E+00 0.  1.
        -24    2    1    2    0    0 -0.30027264850E+03  0.13605683900E+03 -0.37100575498E+03  0.50278369107E+03  0.80442792727E+02 0.  0.
         25    2    1    2    0    0  0.25884913002E+03 -0.14913285399E+03  0.22418397702E+03  0.39389085987E+03  0.12509226071E+03 0.  0.
         24    2    1    2    0    0  0.41423518484E+02  0.13076014984E+02  0.71394110717E+03  0.71975210436E+03  0.80276379875E+02 0.  0.
        -11    1    5    5    0    0  0.31226035327E+02  0.25658474000E+02  0.14354437173E+03  0.14912548147E+03  0.00000000000E+00 0.  1.
         12    1    5    5    0    0  0.10197483156E+02 -0.12582459015E+02  0.57039673545E+03  0.57062662289E+03  0.00000000000E+00 0. -1.
         11    1    3    3    0    0 -0.14225543693E+03  0.24443211150E+02 -0.13516833342E+03  0.19774872507E+03  0.00000000000E+00 0. -1.
        -12    1    3    3    0    0 -0.15801721157E+03  0.11161362785E+03 -0.23583742157E+03  0.30503496601E+03  0.00000000000E+00 0.  1.
          5    1    4    4  501    0  0.12334817883E+02 -0.34290380418E+02  0.75453349404E+02  0.83896711841E+02  0.41800000000E+01 0.  1.
         -5    1    4    4    0  501  0.24651431214E+03 -0.11484247357E+03  0.14873062761E+03  0.30999414803E+03  0.41800000000E+01 0.  1.
</event>
<event>
11    1  0.8041700E-009  0.1343073E+03  0.7561462E-02  0.1114087E+00
         22   -1    0    0    0    0  0.00000000000E+00  0.00000000000E+00  0.88761592640E+03  0.88761592640E+03  0.00000000000E+00 0. -1.
         22   -1    0    0    0    0 -0.00000000000E+00 -0.00000000000E+00 -0.33664031910E+03  0.33664031910E+03  0.00000000000E+00 0. -1.
         24    2    1    2    0    0 -0.43157906535E+00  0.12737416339E+02 -0.25194123092E+03  0.26462008255E+03  0.79918559904E+02 0.  0.
         25    2    1    2    0    0 -0.35107628820E+02  0.21295464850E+02 -0.18394719221E+02  0.13293699141E+03  0.12509130892E+03 0.  0.
        -24    2    1    2    0    0  0.35539207885E+02 -0.34032881188E+02  0.82131155744E+03  0.82669917153E+03  0.80359028887E+02 0.  0.
        -13    1    3    3    0    0  0.81865128158E-01  0.30281918678E+02 -0.32286981469E+02  0.44265680534E+02  0.00000000000E+00 0.  1.
         14    1    3    3    0    0 -0.51344419351E+00 -0.17544502339E+02 -0.21965424945E+03  0.22035440202E+03  0.00000000000E+00 0. -1.
         11    1    5    5    0    0  0.34094989641E+02 -0.58337893840E+02  0.67522533797E+03  0.67859784498E+03  0.00000000000E+00 0. -1.
        -12    1    5    5    0    0  0.14442182449E+01  0.24305012651E+02  0.14608621948E+03  0.14810132656E+03  0.00000000000E+00 0.  1.
          5    1    4    4  501    0  0.12101141693E+02  0.64445990338E+02  0.18190864692E+01  0.65730546753E+02  0.41800000000E+01 0.  1.
         -5    1    4    4    0  501 -0.47208770514E+02 -0.43150525488E+02 -0.20213805691E+02  0.67206444660E+02  0.41800000000E+01 0.  1.
</event>
<event>
11    1  0.8041700E-009  0.1292264E+03  0.7561462E-02  0.1120223E+00
         22   -1    0    0    0    0  0.00000000000E+00  0.00000000000E+00  0.45792651831E+02  0.45792651831E+02  0.00000000000E+00 0.  1.
         22   -1    0    0    0    0 -0.00000000000E+00 -0.00000000000E+00 -0.13592714266E+04  0.13592714266E+04  0.00000000000E+00 0.  1.
        -24    2    1    2    0    0  0.13491253661E+02  0.24075506400E+02 -0.91502528722E+03  0.91881076571E+03  0.78614903128E+02 0.  0.
         25    2    1    2    0    0 -0.23244804684E+02  0.10622537093E+02 -0.34389462207E+03  0.36683018532E+03  0.12509082516E+03 0.  0.
         24    2    1    2    0    0  0.97535510233E+01 -0.34698043494E+02 -0.54558865527E+02  0.11942312745E+03  0.99930613835E+02 0.  0.
        -13    1    5    5    0    0  0.48630665182E+02 -0.31346684952E+02 -0.75806684780E+01  0.58352573106E+02  0.00000000000E+00 0.  1.
         14    1    5    5    0    0 -0.38877114158E+02 -0.33513585421E+01 -0.46978197049E+02  0.61070554340E+02  0.00000000000E+00 0. -1.
         11    1    3    3    0    0 -0.20935980329E+02  0.35469104175E+02 -0.31358779704E+03  0.31628101283E+03  0.00000000000E+00 0. -1.
        -12    1    3    3    0    0  0.34427233990E+02 -0.11393597774E+02 -0.60143749017E+03  0.60252975287E+03  0.00000000000E+00 0.  1.
          5    1    4    4  501    0  0.94178732612E+00  0.58564442535E+02 -0.26416774926E+03  0.27061550777E+03  0.41800000000E+01 0.  1.
         -5    1    4    4    0  501 -0.24186592010E+02 -0.47941905441E+02 -0.79726872804E+02  0.96214677557E+02  0.41800000000E+01 0.  1.
</event>
<event>
11    1  0.8041700E-009  0.1643296E+03  0.7561462E-02  0.1083074E+00
         22   -1    0    0    0    0  0.00000000000E+00  0.00000000000E+00  0.60986964432E+03  0.60986964432E+03  0.00000000000E+00 0.  1.
         22   -1    0    0    0    0 -0.00000000000E+00 -0.00000000000E+00 -0.24556031391E+03  0.24556031391E+03  0.00000000000E+00 0. -1.
        -24    2    1    2    0    0  0.59539259989E+02 -0.24650108477E+02 -0.18535911077E+03  0.21207660770E+03  0.80411045638E+02 0.  0.
         25    2    1    2    0    0 -0.14972521380E+03  0.13120544504E+01  0.23652416556E+03  0.30661112064E+03  0.12508931718E+03 0.  0.
         24    2    1    2    0    0  0.90185953807E+02  0.23338054026E+02  0.31314427561E+03  0.33674222989E+03  0.81595471745E+02 0.  0.
        -11    1    5    5    0    0  0.60214866644E+02 -0.22864875376E+01  0.27623601682E+03  0.28273202008E+03  0.00000000000E+00 0.  1.
         12    1    5    5    0    0  0.29971087163E+02  0.25624541564E+02  0.36908258795E+02  0.54010209807E+02  0.00000000000E+00 0. -1.
         11    1    3    3    0    0  0.39185916623E+02  0.74373294285E+01 -0.16338326961E+03  0.16818127934E+03  0.00000000000E+00 0. -1.
        -12    1    3    3    0    0  0.20353343367E+02 -0.32087437905E+02 -0.21975841157E+02  0.43895328363E+02  0.00000000000E+00 0.  1.
          5    1    4    4  501    0  0.12811546994E+02 -0.82510453947E+00 -0.58754613073E+01  0.14724468732E+02  0.41800000000E+01 0. -1.
         -5    1    4    4    0  501 -0.16253676079E+03  0.21371589898E+01  0.24239962687E+03  0.29188665191E+03  0.41800000000E+01 0. -1.
</event>
<event>
11    1  0.8041700E-009  0.2429428E+03  0.7561462E-02  0.1027727E+00
         22   -1    0    0    0    0  0.00000000000E+00  0.00000000000E+00  0.90128426567E+03  0.90128426567E+03  0.00000000000E+00 0.  1.
         22   -1    0    0    0    0 -0.00000000000E+00 -0.00000000000E+00 -0.13746440037E+04  0.13746440037E+04  0.00000000000E+00 0. -1.
        -24    2    1    2    0    0 -0.96622349866E+02 -0.18161019051E+02 -0.13069742521E+04  0.13129875633E+04  0.78031690895E+02 0.  0.
         25    2    1    2    0    0  0.11633733796E+03 -0.18900903252E+03  0.38047223089E+03  0.45789193277E+03  0.12508842088E+03 0.  0.
         24    2    1    2    0    0 -0.19714988097E+02  0.20717005157E+03  0.45314228314E+03  0.50504877329E+03  0.80176203508E+02 0.  0.
        -13    1    5    5    0    0 -0.30571357849E+02  0.56670634303E+02  0.20251012074E+03  0.21250062991E+03  0.00000000000E+00 0.  1.
         14    1    5    5    0    0  0.10856369752E+02  0.15049941726E+03  0.25063216240E+03  0.29254814337E+03  0.00000000000E+00 0. -1.
         11    1    3    3    0    0 -0.64602406184E+02 -0.48696957112E+02 -0.89199966649E+03  0.89566080049E+03  0.00000000000E+00 0. -1.
        -12    1    3    3    0    0 -0.32019943681E+02  0.30535938060E+02 -0.41497458557E+03  0.41732676284E+03  0.00000000000E+00 0.  1.
          5    1    4    4  501    0  0.17390924894E+02 -0.12485022746E+03  0.13060725771E+03  0.18156473152E+03  0.41800000000E+01 0. -1.
         -5    1    4    4    0  501  0.98946413069E+02 -0.64158805052E+02  0.24986497318E+03  0.27632720125E+03  0.41800000000E+01 0. -1.
</event>
<event>
11    1  0.8041700E-009  0.1436487E+03  0.7561462E-02  0.1103551E+00
         22   -1    0    0    0    0  0.00000000000E+00  0.00000000000E+00  0.17064343952E+03  0.17064343952E+03  0.00000000000E+00 0.  1.
         22   -1    0    0    0    0 -0.00000000000E+00 -0.00000000000E+00 -0.75658170597E+03  0.75658170597E+03  0.00000000000E+00 0. -1.
        -24    2    1    2    0    0 -0.43662184258E+02  0.18154641934E+02 -0.44918394309E+03  0.45859978163E+03  0.79445375050E+02 0.  0.
         25    2    1    2    0    0  0.69167160877E+02 -0.81707024134E+02 -0.25942396802E+03  0.30725796166E+03  0.12508607389E+03 0.  0.
         24    2    1    2    0    0 -0.25504976618E+02  0.63552382200E+02  0.12266964467E+03  0.16136740220E+03  0.79386319068E+02 0.  0.
        -11    1    5    5    0    0 -0.22389283983E+02  0.47236922720E+02  0.13224010546E+03  0.14219723063E+03  0.00000000000E+00 0.  1.
         12    1    5    5    0    0 -0.31156926352E+01  0.16315459479E+02 -0.95704607907E+01  0.19170171579E+02  0.00000000000E+00 0. -1.
         13    1    3    3    0    0 -0.62657172069E+02  0.28398272367E+02 -0.29512098215E+03  0.30303263387E+03  0.00000000000E+00 0. -1.
        -14    1    3    3    0    0  0.18994987811E+02 -0.10243630433E+02 -0.15406296094E+03  0.15556714775E+03  0.00000000000E+00 0.  1.
          5    1    4    4  501    0  0.24137116792E+02 -0.10937571253E+02  0.71527197290E+01  0.27764449778E+02  0.41800000000E+01 0.  1.
         -5    1    4    4    0  501  0.45030044085E+02 -0.70769452881E+02 -0.26657668775E+03  0.27949351188E+03  0.41800000000E+01 0.  1.
</event>
<event>
11    1  0.8041700E-009  0.1748760E+03  0.7561462E-02  0.1073865E+00
         22   -1    0    0    0    0  0.00000000000E+00  0.00000000000E+00  0.18634804081E+04  0.18634804081E+04  0.00000000000E+00 0. -1.
         22   -1    0    0    0    0 -0.00000000000E+00 -0.00000000000E+00 -0.92387297626E+02  0.92387297626E+02  0.00000000000E+00 0.  1.
        -24    2    1    2    0    0  0.13055587225E+01  0.12167687907E+03 -0.50563936708E+01  0.14771892514E+03  0.83596329737E+02 0.  0.
         25    2    1    2    0    0  0.98709035884E+02 -0.12621394749E+03  0.82516637730E+03  0.84983510918E+03  0.12508688282E+03 0.  0.
         24    2    1    2    0    0 -0.10001459461E+03  0.45370684257E+01  0.95098312686E+03  0.95831367142E+03  0.63029208605E+02 0.  0.
        -13    1    5    5    0    0 -0.22502688815E+02 -0.16809029482E+02  0.45414042868E+03  0.45500817953E+03  0.00000000000E+00 0.  1.
         14    1    5    5    0    0 -0.77511905791E+02  0.21346097908E+02  0.49684269817E+03  0.50330549189E+03  0.00000000000E+00 0. -1.
         11    1    3    3    0    0  0.94604804960E+01  0.52177074037E+02  0.38287936845E+02  0.65405763157E+02  0.00000000000E+00 0. -1.
        -12    1    3    3    0    0 -0.81549217735E+01  0.69499805031E+02 -0.43344330516E+02  0.82313161987E+02  0.00000000000E+00 0.  1.
          5    1    4    4  501    0  0.85508123847E+02 -0.10433981287E+03  0.36855426881E+03  0.39248969063E+03  0.41800000000E+01 0. -1.
         -5    1    4    4    0  501  0.13200912037E+02 -0.21874134624E+02  0.45661210849E+03  0.45734541855E+03  0.41800000000E+01 0. -1.
</event>
<event>
11    1  0.8041700E-009  0.1484388E+03  0.7561462E-02  0.1098485E+00
         22   -1    0    0    0    0  0.00000000000E+00  0.00000000000E+00  0.11930351148E+03  0.11930351148E+03  0.00000000000E+00 0. -1.
         22   -1    0    0    0    0 -0.00000000000E+00 -0.00000000000E+00 -0.34136817046E+03  0.34136817046E+03  0.00000000000E+00 0. -1.
         24    2    1    2    0    0  0.24229416857E+02 -0.95984234708E+02 -0.13102307921E+03  0.18267579098E+03  0.80020993305E+02 0.  0.
         25    2    1    2    0    0 -0.30388999995E+02  0.49551644768E+02 -0.11724089441E+03  0.18103501125E+03  0.12509752659E+03 0.  0.
        -24    2    1    2    0    0  0.61595831372E+01  0.46432589940E+02  0.26199314642E+02  0.96960879712E+02  0.80753218102E+02 0.  0.
        -13    1    3    3    0    0  0.30474932131E+02 -0.16242699598E+02 -0.72167358660E+01  0.35279286489E+02  0.00000000000E+00 0.  1.
         14    1    3    3    0    0 -0.62455152737E+01 -0.79741535110E+02 -0.12380634335E+03  0.14739650449E+03  0.00000000000E+00 0. -1.
         11    1    5    5    0    0 -0.16988389952E+01  0.43726194422E+02  0.53098816223E+02  0.68806616083E+02  0.00000000000E+00 0. -1.
        -12    1    5    5    0    0  0.78584221324E+01  0.27063955181E+01 -0.26899501581E+02  0.28154263628E+02  0.00000000000E+00 0.  1.
          5    1    4    4  501    0 -0.46201465217E+01 -0.37539142532E+02 -0.79570512766E+01  0.38875699877E+02  0.41800000000E+01 0. -1.
         -5    1    4    4    0  501 -0.25768853473E+02  0.87090787300E+02 -0.10928384313E+03  0.14215931138E+03  0.41800000000E+01 0. -1.
</event>
<event>
11    1  0.8041700E-009  0.1713123E+03  0.7561462E-02  0.1076895E+00
         22   -1    0    0    0    0  0.00000000000E+00  0.00000000000E+00  0.13381701806E+03  0.13381701806E+03  0.00000000000E+00 0. -1.
         22   -1    0    0    0    0 -0.00000000000E+00 -0.00000000000E+00 -0.19605874242E+04  0.19605874242E+04  0.00000000000E+00 0. -1.
        -24    2    1    2    0    0 -0.13598313932E+02 -0.11598065662E+03 -0.18173233660E+04  0.18228840721E+04  0.81275440088E+02 0.  0.
         25    2    1    2    0    0  0.47712361573E+02  0.11961222510E+03 -0.30125631493E+02  0.18204011866E+03  0.12508995678E+03 0.  0.
         24    2    1    2    0    0 -0.34114047641E+02 -0.36315684795E+01  0.20678591327E+02  0.89480251451E+02  0.80013465895E+02 0.  0.
        -13    1    5    5    0    0  0.13040796271E+02  0.25104814259E+02 -0.47498592971E+01  0.28685801883E+02  0.00000000000E+00 0.  1.
         14    1    5    5    0    0 -0.47154843912E+02 -0.28736382738E+02  0.25428450624E+02  0.60794449568E+02  0.00000000000E+00 0. -1.
         11    1    3    3    0    0 -0.17143452508E+02 -0.12808321768E+03 -0.16920973195E+04  0.16970246160E+04  0.00000000000E+00 0. -1.
        -12    1    3    3    0    0  0.35451385754E+01  0.12102561057E+02 -0.12522604648E+03  0.12585945617E+03  0.00000000000E+00 0.  1.
          5    1    4    4  501    0  0.84423049025E+02  0.97520853194E+02 -0.44723008595E+02  0.13658399581E+03  0.41800000000E+01 0. -1.
         -5    1    4    4    0  501 -0.36710687452E+02  0.22091371910E+02  0.14597377101E+02  0.45456122847E+02  0.41800000000E+01 0. -1.
</event>
<event>
11    1  0.8041700E-009  0.1314152E+03  0.7561462E-02  0.1117542E+00
         22   -1    0    0    0    0  0.00000000000E+00  0.00000000000E+00  0.17699415407E+04  0.17699415407E+04  0.00000000000E+00 0.  1.
         22   -1    0    0    0    0 -0.00000000000E+00 -0.00000000000E+00 -0.92355131371E+02  0.92355131371E+02  0.00000000000E+00 0.  1.
        -24    2    1    2    0    0  0.45955724776E+01 -0.33936664111E+01 -0.55594513171E+02  0.97451952456E+02  0.79834183685E+02 0.  0.
         25    2    1    2    0    0  0.33764137360E+02  0.16571540863E+02  0.28032913977E+03  0.30926737786E+03  0.12508897420E+03 0.  0.
         24    2    1    2    0    0 -0.38359709838E+02 -0.13177874452E+02  0.14528517827E+04  0.14555773417E+04  0.79258889293E+02 0.  0.
        -11    1    5    5    0    0 -0.45512716588E+02  0.19328446874E+02  0.58446335197E+03  0.58655128167E+03  0.00000000000E+00 0.  1.
         12    1    5    5    0    0  0.71530067504E+01 -0.32506321326E+02  0.86838843071E+03  0.86902606004E+03  0.00000000000E+00 0. -1.
         11    1    3    3    0    0 -0.30082177380E+02 -0.25009079528E+02 -0.29002293736E+02  0.48698300758E+02  0.00000000000E+00 0. -1.
        -12    1    3    3    0    0  0.34677749858E+02  0.21615413117E+02 -0.26592219434E+02  0.48753651698E+02  0.00000000000E+00 0.  1.
          5    1    4    4  501    0  0.17395209966E+02 -0.54119110227E+02  0.10507146000E+03  0.11953641925E+03  0.41800000000E+01 0. -1.
         -5    1    4    4    0  501  0.16368927394E+02  0.70690651090E+02  0.17525767977E+03  0.18973095861E+03  0.41800000000E+01 0. -1.
</event>
<event>
11    1  0.8041700E-009  0.1332156E+03  0.7561462E-02  0.1115380E+00
         22   -1    0    0    0    0  0.00000000000E+00  0.00000000000E+00  0.13778684772E+03  0.13778684772E+03  0.00000000000E+00 0. -1.
         22   -1    0    0    0    0 -0.00000000000E+00 -0.00000000000E+00 -0.31512066725E+03  0.31512066725E+03  0.00000000000E+00 0. -1.
         24    2    1    2    0    0  0.45837141442E+02  0.71506135992E+02 -0.72349257429E+02  0.13760278326E+03  0.80535333174E+02 0.  0.
         25    2    1    2    0    0  0.80755352862E+01 -0.23504956315E+02 -0.15105069471E+03  0.19768635667E+03  0.12508351609E+03 0.  0.
        -24    2    1    2    0    0 -0.53912676728E+02 -0.48001179677E+02  0.46066132621E+02  0.11761837505E+03  0.80630661730E+02 0.  0.
        -11    1    3    3    0    0 -0.21753677445E+02  0.19441387970E+02 -0.31743427043E+02  0.43114211219E+02  0.00000000000E+00 0.  1.
         12    1    3    3    0    0  0.67590818888E+02  0.52064748022E+02 -0.40605830387E+02  0.94488572039E+02  0.00000000000E+00 0. -1.
         13    1    5    5    0    0 -0.45940618146E+02 -0.96856628130E+01 -0.11189383200E+02  0.48265461317E+02  0.00000000000E+00 0. -1.
        -14    1    5    5    0    0 -0.79720585829E+01 -0.38315516865E+02  0.57255515821E+02  0.69352913728E+02  0.00000000000E+00 0.  1.
          5    1    4    4  501    0 -0.54356064464E+02 -0.24360725871E+02 -0.45863464840E+02  0.75292473170E+02  0.41800000000E+01 0.  1.
         -5    1    4    4    0  501  0.62431599750E+02  0.85576955574E+00 -0.10518722987E+03  0.12239388350E+03  0.41800000000E+01 0.  1.
</event>
<event>
11    1  0.8041700E-009  0.1352466E+03  0.7561462E-02  0.1112986E+00
         22   -1    0    0    0    0  0.00000000000E+00  0.00000000000E+00  0.65589089942E+03  0.65589089942E+03  0.00000000000E+00 0.  1.
         22   -1    0    0    0    0 -0.00000000000E+00 -0.00000000000E+00 -0.78752728688E+03  0.78752728688E+03  0.00000000000E+00 0. -1.
         24    2    1    2    0    0  0.20013097191E+02 -0.21546931938E+02 -0.34627436847E+03  0.35692000815E+03  0.81370508307E+02 0.  0.
         25    2    1    2    0    0 -0.39777882606E+01 -0.27542176838E+02 -0.42283652123E+03  0.44182867379E+03  0.12508980370E+03 0.  0.
        -24    2    1    2    0    0 -0.16035308930E+02  0.49089108775E+02  0.63747450224E+03  0.64466950436E+03  0.80982449387E+02 0.  0.
        -11    1    3    3    0    0  0.35294228449E+02  0.33405339650E+01 -0.64202487397E+02  0.73340310315E+02  0.00000000000E+00 0.  1.
         12    1    3    3    0    0 -0.15281131259E+02 -0.24887465903E+02 -0.28207188108E+03  0.28357969784E+03  0.00000000000E+00 0. -1.
         11    1    5    5    0    0 -0.32880692620E+02 -0.65790640106E+01  0.14797354108E+03  0.15172538644E+03  0.00000000000E+00 0. -1.
        -12    1    5    5    0    0  0.16845383690E+02  0.55668172786E+02  0.48950096116E+03  0.49294411792E+03  0.00000000000E+00 0.  1.
          5    1    4    4  501    0 -0.10723505089E+02 -0.46971622414E+02 -0.54374466053E+02  0.72769374274E+02  0.41800000000E+01 0. -1.
         -5    1    4    4    0  501  0.67457168281E+01  0.19429445577E+02 -0.36846205518E+03  0.36905929952E+03  0.41800000000E+01 0. -1.
</event>
<event>
11    1  0.8134353E-009  0.1987992E+03  0.7561462E-02  0.1055376E+00
         22   -1    0    0    0    0  0.00000000000E+00  0.00000000000E+00  0.49988549706E+03  0.49988549706E+03  0.00000000000E+00 0.  1.
         22   -1    0    0    0    0 -0.00000000000E+00 -0.00000000000E+00 -0.14513524348E+04  0.14513524348E+04  0.00000000000E+00 0.  1.
         24    2    1    2    0    0  0.94213014805E+02 -0.12342331443E+03 -0.11283235303E+04  0.11418894234E+04  0.81780557640E+02 0.  0.
         25    2    1    2    0    0  0.64511828052E+02  0.10015857452E+03 -0.27416214145E+03  0.32404669121E+03  0.12509141567E+03 0.  0.
        -24    2    1    2    0    0 -0.15872484286E+03  0.23264739914E+02  0.45101873396E+03  0.48530181727E+03  0.79781774888E+02 0.  0.
        -13    1    3    3    0    0  0.85288588608E+02 -0.11519712486E+03 -0.11136975993E+04  0.11228832813E+04  0.00000000000E+00 0.  1.
         14    1    3    3    0    0  0.89244261971E+01 -0.82261895760E+01 -0.14625930998E+02  0.19006142045E+02  0.00000000000E+00 0. -1.
         11    1    5    5    0    0 -0.93156170641E+02 -0.25237589793E+02  0.21756076585E+03  0.23800776228E+03  0.00000000000E+00 0. -1.
        -12    1    5    5    0    0 -0.65568672216E+02  0.48502329707E+02  0.23345796811E+03  0.24729405500E+03  0.00000000000E+00 0.  1.
          5    1    4    4  501    0  0.99099520001E+02  0.48445948006E+02 -0.17386114692E+03  0.20594391360E+03  0.41800000000E+01 0.  1.
         -5    1    4    4    0  501 -0.34587691949E+02  0.51712626513E+02 -0.10030099453E+03  0.11810277761E+03  0.41800000000E+01 0.  1.
</event>
<event>
11    1  0.8041700E-009  0.1547960E+03  0.7561462E-02  0.1092077E+00
         22   -1    0    0    0    0  0.00000000000E+00  0.00000000000E+00  0.29012892012E+03  0.29012892012E+03  0.00000000000E+00 0. -1.
         22   -1    0    0    0    0 -0.00000000000E+00 -0.00000000000E+00 -0.45796612648E+03  0.45796612648E+03  0.00000000000E+00 0. -1.
         24    2    1    2    0    0 -0.34474576535E+02 -0.92942561163E+02 -0.29030283770E+03  0.31752777455E+03  0.81983741868E+02 0.  0.
         25    2    1    2    0    0  0.20858012122E+02  0.67559436321E+02 -0.11085270842E+03  0.18147313606E+03  0.12507934299E+03 0.  0.
        -24    2    1    2    0    0  0.13616564413E+02  0.25383124843E+02  0.23331833976E+03  0.24909413598E+03  0.82345170216E+02 0.  0.
        -11    1    3    3    0    0 -0.54803365353E+02 -0.31391027909E+02 -0.12721090437E+03  0.14202612323E+03  0.00000000000E+00 0.  1.
         12    1    3    3    0    0  0.20328788819E+02 -0.61551533254E+02 -0.16309193333E+03  0.17550165132E+03  0.00000000000E+00 0. -1.
         11    1    5    5    0    0  0.79748919170E+01 -0.93531719587E+01  0.20080918909E+03  0.20118501721E+03  0.00000000000E+00 0. -1.
        -12    1    5    5    0    0  0.56416724959E+01  0.34736296801E+02  0.32509150671E+02  0.47909118770E+02  0.00000000000E+00 0.  1.
          5    1    4    4  501    0  0.22381352341E+01  0.10294663541E+03 -0.85836921176E+02  0.13412109613E+03  0.41800000000E+01 0. -1.
         -5    1    4    4    0  501  0.18619876888E+02 -0.35387199085E+02 -0.25015787241E+02  0.47352039931E+02  0.41800000000E+01 0. -1.
</event>
<event>
11    1  0.8041700E-009  0.1628696E+03  0.7561462E-02  0.1084409E+00
         22   -1    0    0    0    0  0.00000000000E+00  0.00000000000E+00  0.17926883971E+04  0.17926883971E+04  0.00000000000E+00 0.  1.
         22   -1    0    0    0    0 -0.00000000000E+00 -0.00000000000E+00 -0.31528374303E+03  0.31528374303E+03  0.00000000000E+00 0.  1.
        -24    2    1    2    0    0 -0.50333137736E+02 -0.16568872914E+02 -0.26800959222E+03  0.28523787845E+03  0.81997277238E+02 0.  0.
         25    2    1    2    0    0 -0.57572917427E+02  0.17344831937E+02  0.98317984709E+02  0.17008287410E+03  0.12508506677E+03 0.  0.
         24    2    1    2    0    0  0.10790605516E+03 -0.77595902304E+00  0.16470962616E+04  0.16526513876E+04  0.81769157500E+02 0.  0.
        -13    1    5    5    0    0  0.10858229633E+03  0.23452661660E+02  0.13713563256E+04  0.13758482162E+04  0.00000000000E+00 0.  1.
         14    1    5    5    0    0 -0.67624116251E+00 -0.24228620683E+02  0.27573993605E+03  0.27680317139E+03  0.00000000000E+00 0. -1.
         11    1    3    3    0    0 -0.44123206519E+02 -0.43249495875E+02 -0.12280209056E+03  0.13746901357E+03  0.00000000000E+00 0. -1.
        -12    1    3    3    0    0 -0.62099312169E+01  0.26680622961E+02 -0.14520750166E+03  0.14776886487E+03  0.00000000000E+00 0.  1.
          5    1    4    4  501    0 -0.40436214415E+02  0.24600715155E+02 -0.19037388438E+02  0.51187666297E+02  0.41800000000E+01 0. -1.
         -5    1    4    4    0  501 -0.17136703012E+02 -0.72558832181E+01  0.11735537315E+03  0.11889520780E+03  0.41800000000E+01 0. -1.
</event>
<event>
11    1  0.8041700E-009  0.1376090E+03  0.7561462E-02  0.1110258E+00
         22   -1    0    0    0    0  0.00000000000E+00  0.00000000000E+00  0.29261652235E+03  0.29261652235E+03  0.00000000000E+00 0.  1.
         22   -1    0    0    0    0 -0.00000000000E+00 -0.00000000000E+00 -0.24358561065E+03  0.24358561065E+03  0.00000000000E+00 0. -1.
         24    2    1    2    0    0 -0.49093177750E+02 -0.16197119913E+02 -0.10373933305E+03  0.14020561988E+03  0.78887767289E+02 0.  0.
         25    2    1    2    0    0  0.10131931249E+03  0.23739012683E+02 -0.50922481963E+02  0.17050227660E+03  0.12509509722E+03 0.  0.
        -24    2    1    2    0    0 -0.52226134743E+02 -0.75418927702E+01  0.20369272672E+03  0.22549423653E+03  0.81070799267E+02 0.  0.
        -13    1    3    3    0    0 -0.10884423957E+02  0.31410511929E+02 -0.38281885818E+02  0.50701022931E+02  0.00000000000E+00 0.  1.
         14    1    3    3    0    0 -0.38208753794E+02 -0.47607631841E+02 -0.65457447236E+02  0.89504596947E+02  0.00000000000E+00 0. -1.
         11    1    5    5    0    0  0.96206892844E+00 -0.35680413401E+02  0.61747984047E+02  0.71322023323E+02  0.00000000000E+00 0. -1.
        -12    1    5    5    0    0 -0.53188203671E+02  0.28138520631E+02  0.14194474267E+03  0.15417221321E+03  0.00000000000E+00 0.  1.
          5    1    4    4  501    0  0.15981831584E+02  0.34644548816E+02  0.32723372445E+02  0.50437636817E+02  0.41800000000E+01 0.  1.
         -5    1    4    4    0  501  0.85337480909E+02 -0.10905536134E+02 -0.83645854408E+02  0.12006463978E+03  0.41800000000E+01 0.  1.
</event>
<event>
11    1  0.8041700E-009  0.2774672E+03  0.7561462E-02  0.1010206E+00
         22   -1    0    0    0    0  0.00000000000E+00  0.00000000000E+00  0.54230883475E+03  0.54230883475E+03  0.00000000000E+00 0. -1.
         22   -1    0    0    0    0 -0.00000000000E+00 -0.00000000000E+00 -0.50895511437E+04  0.50895511437E+04  0.00000000000E+00 0. -1.
        -24    2    1    2    0    0  0.23223528740E+03  0.87898347178E+02 -0.46030749423E+04  0.46104656506E+04  0.80219964924E+02 0.  0.
         25    2    1    2    0    0 -0.20673263056E+03 -0.13265446697E+03 -0.43843462789E+03  0.51788845512E+03  0.12509172982E+03 0.  0.
         24    2    1    2    0    0 -0.25502656839E+02  0.44756119790E+02  0.49426726122E+03  0.50350587275E+03  0.81021865024E+02 0.  0.
        -11    1    5    5    0    0  0.29111049816E+02  0.14419429600E+02  0.20606902223E+03  0.20861403379E+03  0.00000000000E+00 0.  1.
         12    1    5    5    0    0 -0.54613706654E+02  0.30336690190E+02  0.28819823899E+03  0.29489183896E+03  0.00000000000E+00 0. -1.
         11    1    3    3    0    0  0.23843870560E+03  0.82020697102E+02 -0.44843495554E+04  0.44914331060E+04  0.00000000000E+00 0. -1.
        -12    1    3    3    0    0 -0.62034182044E+01  0.58776500757E+01 -0.11872538687E+03  0.11903254452E+03  0.00000000000E+00 0.  1.
          5    1    4    4  501    0 -0.18150152345E+03 -0.12497736954E+03 -0.27567863179E+03  0.35295655021E+03  0.41800000000E+01 0.  1.
         -5    1    4    4    0  501 -0.25231107114E+02 -0.76770974266E+01 -0.16275599610E+03  0.16493190491E+03  0.41800000000E+01 0.  1.
</event>
<event>
11    1  0.8041700E-009  0.1333061E+03  0.7561462E-02  0.1115272E+00
         22   -1    0    0    0    0  0.00000000000E+00  0.00000000000E+00  0.11046981505E+04  0.11046981505E+04  0.00000000000E+00 0. -1.
         22   -1    0    0    0    0 -0.00000000000E+00 -0.00000000000E+00 -0.43930982716E+03  0.43930982716E+03  0.00000000000E+00 0.  1.
        -24    2    1    2    0    0 -0.17867297580E+02 -0.19686508656E+02 -0.40288602823E+03  0.41181462023E+03  0.81039069265E+02 0.  0.
         25    2    1    2    0    0 -0.18469515703E+02 -0.11569131754E+02  0.10594429470E+03  0.16536849250E+03  0.12509027505E+03 0.  0.
         24    2    1    2    0    0  0.36336813283E+02  0.31255640411E+02  0.96233005689E+03  0.96682486495E+03  0.79836721030E+02 0.  0.
        -13    1    5    5    0    0  0.15807462818E+02  0.10117885150E+01  0.31320939600E+02  0.35098445182E+02  0.00000000000E+00 0.  1.
         14    1    5    5    0    0  0.20529350465E+02  0.30243851896E+02  0.93100911729E+03  0.93172641977E+03  0.00000000000E+00 0. -1.
         13    1    3    3    0    0  0.12485429603E+02 -0.27999897781E+02 -0.58982659879E+02  0.66474313796E+02  0.00000000000E+00 0. -1.
        -14    1    3    3    0    0 -0.30352727183E+02  0.83133891249E+01 -0.34390336835E+03  0.34534030644E+03  0.00000000000E+00 0.  1.
          5    1    4    4  501    0  0.11645393774E+02 -0.27765359108E+01  0.12682125083E+03  0.12745362455E+03  0.41800000000E+01 0.  1.
         -5    1    4    4    0  501 -0.30114909478E+02 -0.87925958435E+01 -0.20876956129E+02  0.37914867951E+02  0.41800000000E+01 0.  1.
</event>
<event>
11    1  0.8041700E-009  0.1811152E+03  0.7561462E-02  0.1068744E+00
         22   -1    0    0    0    0  0.00000000000E+00  0.00000000000E+00  0.29946819908E+03  0.29946819908E+03  0.00000000000E+00 0. -1.
         22   -1    0    0    0    0 -0.00000000000E+00 -0.00000000000E+00 -0.30586529257E+03  0.30586529257E+03  0.00000000000E+00 0. -1.
         24    2    1    2    0    0  0.84304694128E+02  0.82283873526E+02 -0.14578961282E+03  0.20120613786E+03  0.73153136724E+02 0.  0.
         25    2    1    2    0    0 -0.12379079572E+03 -0.13006544988E+03 -0.15332802170E+02  0.21937251322E+03  0.12509205562E+03 0.  0.
        -24    2    1    2    0    0  0.39486101593E+02  0.47781576350E+02  0.15472532150E+03  0.18475484056E+03  0.79700657083E+02 0.  0.
        -11    1    3    3    0    0 -0.40562738069E+01  0.69642298205E+01 -0.50115255856E+02  0.50759163938E+02  0.00000000000E+00 0.  1.
         12    1    3    3    0    0  0.88360967935E+02  0.75319643706E+02 -0.95674356964E+02  0.15044697392E+03  0.00000000000E+00 0. -1.
         11    1    5    5    0    0  0.14324306115E+01 -0.39298489898E+01  0.10086299735E+03  0.10094968947E+03  0.00000000000E+00 0. -1.
        -12    1    5    5    0    0  0.38053670982E+02  0.51711425339E+02  0.53862324154E+02  0.83805151089E+02  0.00000000000E+00 0.  1.
          5    1    4    4  501    0 -0.53160025236E+00  0.13358283106E+02  0.22466184016E+02  0.26475047698E+02  0.41800000000E+01 0.  1.
         -5    1    4    4    0  501 -0.12325919547E+03 -0.14342373298E+03 -0.37798986186E+02  0.19289746553E+03  0.41800000000E+01 0.  1.
</event>
<event>
11    1  0.8041700E-009  0.1788765E+03  0.7561462E-02  0.1070555E+00
         22   -1    0    0    0    0  0.00000000000E+00  0.00000000000E+00  0.29212210474E+04  0.29212210474E+04  0.00000000000E+00 0.  1.
         22   -1    0    0    0    0 -0.00000000000E+00 -0.00000000000E+00 -0.10259726040E+03  0.10259726040E+03  0.00000000000E+00 0. -1.
        -24    2    1    2    0    0  0.54170173316E+02 -0.15912413879E+02 -0.66034792854E+02  0.11975130380E+03  0.82414612180E+02 0.  0.
         25    2    1    2    0    0 -0.14219114129E+03  0.72285508395E+02  0.18426986638E+04  0.18538151263E+04  0.12509453006E+03 0.  0.
         24    2    1    2    0    0  0.88020967974E+02 -0.56373094517E+02  0.10419599161E+04  0.10502518777E+04  0.80143143236E+02 0.  0.
        -13    1    5    5    0    0  0.83643221692E+02 -0.73545003333E+02  0.95728102636E+03  0.96373856386E+03  0.00000000000E+00 0.  1.
         14    1    5    5    0    0  0.43777462816E+01  0.17171908817E+02  0.84678889699E+02  0.86513313863E+02  0.00000000000E+00 0. -1.
         11    1    3    3    0    0  0.61195043412E+02 -0.22864155959E+02 -0.14030977114E+02  0.66816699146E+02  0.00000000000E+00 0. -1.
        -12    1    3    3    0    0 -0.70248700962E+01  0.69517420798E+01 -0.52003815741E+02  0.52934604650E+02  0.00000000000E+00 0.  1.
          5    1    4    4  501    0 -0.10504502550E+03 -0.16313963602E+02  0.93062703644E+03  0.93668818512E+03  0.41800000000E+01 0. -1.
         -5    1    4    4    0  501 -0.37146115791E+02  0.88599471998E+02  0.91207162738E+03  0.91712694117E+03  0.41800000000E+01 0. -1.
</event>
<event>
11    1  0.8041700E-009  0.1513505E+03  0.7561462E-02  0.1095507E+00
         22   -1    0    0    0    0  0.00000000000E+00  0.00000000000E+00  0.88857777112E+03  0.88857777112E+03  0.00000000000E+00 0. -1.
         22   -1    0    0    0    0 -0.00000000000E+00 -0.00000000000E+00 -0.12112467916E+03  0.12112467916E+03  0.00000000000E+00 0. -1.
         24    2    1    2    0    0 -0.32275445351E+02 -0.52004066130E+02 -0.65196045269E+02  0.11943292423E+03  0.79167997356E+02 0.  0.
         25    2    1    2    0    0 -0.54585135556E+02  0.69552027963E+02  0.22908717515E+03  0.27557751346E+03  0.12508001635E+03 0.  0.
        -24    2    1    2    0    0  0.86860580906E+02 -0.17547961833E+02  0.60356196208E+03  0.61469201259E+03  0.75541622916E+02 0.  0.
        -13    1    3    3    0    0  0.22469279049E+01 -0.24236103306E+02  0.14441029707E+02  0.28301602913E+02  0.00000000000E+00 0.  1.
         14    1    3    3    0    0 -0.34522373256E+02 -0.27767962824E+02 -0.79637074976E+02  0.91131321319E+02  0.00000000000E+00 0. -1.
         11    1    5    5    0    0  0.88353966629E+02 -0.37369192166E+02  0.52208427012E+03  0.53082470275E+03  0.00000000000E+00 0. -1.
        -12    1    5    5    0    0 -0.14933857225E+01  0.19821230333E+02  0.81477691954E+02  0.83867309836E+02  0.00000000000E+00 0.  1.
          5    1    4    4  501    0 -0.52641362307E+02  0.10166074731E+03  0.14077770006E+03  0.18149890854E+03  0.41800000000E+01 0.  1.
         -5    1    4    4    0  501 -0.19437732489E+01 -0.32108719344E+02  0.88309475095E+02  0.94078604921E+02  0.41800000000E+01 0.  1.
</event>
<event>
11    1  0.8041700E-009  0.1319080E+03  0.7561462E-02  0.1116947E+00
         22   -1    0    0    0    0  0.00000000000E+00  0.00000000000E+00  0.36231814708E+03  0.36231814708E+03  0.00000000000E+00 0. -1.
         22   -1    0    0    0    0 -0.00000000000E+00 -0.00000000000E+00 -0.10679445073E+04  0.10679445073E+04  0.00000000000E+00 0. -1.
         24    2    1    2    0    0 -0.12387647904E+02  0.39215159443E+02 -0.99341138567E+03  0.99763027950E+03  0.81906720421E+02 0.  0.
         25    2    1    2    0    0  0.16277259672E+02 -0.66877032042E+02  0.11229440958E+02  0.14321744209E+03  0.12509056231E+03 0.  0.
        -24    2    1    2    0    0 -0.38896117682E+01  0.27661872599E+02  0.27655558446E+03  0.28941493281E+03  0.80608335537E+02 0.  0.
        -13    1    3    3    0    0  0.15020646446E+02 -0.91192030126E+01 -0.60597702536E+03  0.60623175019E+03  0.00000000000E+00 0.  1.
         14    1    3    3    0    0 -0.27408294350E+02  0.48334362455E+02 -0.38743436031E+03  0.39139852931E+03  0.00000000000E+00 0. -1.
         13    1    5    5    0    0 -0.94353182322E+01  0.10359190271E+02  0.26959300328E+03  0.26995689558E+03  0.00000000000E+00 0. -1.
        -14    1    5    5    0    0  0.55457064640E+01  0.17302682328E+02  0.69625811811E+01  0.19458037225E+02  0.00000000000E+00 0.  1.
          5    1    4    4  501    0  0.31493311468E+02 -0.90989446878E+02 -0.22384972565E+02  0.98941737943E+02  0.41800000000E+01 0.  1.
         -5    1    4    4    0  501 -0.15216051795E+02  0.24112414837E+02  0.33614413523E+02  0.44275704150E+02  0.41800000000E+01 0.  1.
</event>
<event>
11    1  0.8041700E-009  0.1463150E+03  0.7561462E-02  0.1100705E+00
         22   -1    0    0    0    0  0.00000000000E+00  0.00000000000E+00  0.11612725603E+04  0.11612725603E+04  0.00000000000E+00 0. -1.
         22   -1    0    0    0    0 -0.00000000000E+00 -0.00000000000E+00 -0.40398838462E+03  0.40398838462E+03  0.00000000000E+00 0.  1.
         24    2    1    2    0    0 -0.39699229334E+02  0.62257768068E+02 -0.34537846432E+03  0.36246326890E+03  0.81494043925E+02 0.  0.
         25    2    1    2    0    0  0.67652870652E+02 -0.88514659326E+02  0.97821687367E+02  0.19398133928E+03  0.12509165298E+03 0.  0.
        -24    2    1    2    0    0 -0.27953641318E+02  0.26256891257E+02  0.10048409527E+04  0.10088163368E+04  0.80834589100E+02 0.  0.
        -11    1    3    3    0    0 -0.43815270070E+02  0.72355835005E+02 -0.33988554691E+03  0.35025323660E+03  0.00000000000E+00 0.  1.
         12    1    3    3    0    0  0.41160407356E+01 -0.10098066936E+02 -0.54929174066E+01  0.12210032302E+02  0.00000000000E+00 0. -1.
         13    1    5    5    0    0  0.62055878250E+00  0.48101500927E+02  0.73742287382E+03  0.73899028026E+03  0.00000000000E+00 0. -1.
        -14    1    5    5    0    0 -0.28574200100E+02 -0.21844609670E+02  0.26741807883E+03  0.26982605650E+03  0.00000000000E+00 0.  1.
          5    1    4    4  501    0  0.82739263799E+01  0.23937404684E+02  0.53339051425E+02  0.59194459265E+02  0.41800000000E+01 0.  1.
         -5    1    4    4    0  501  0.59378944272E+02 -0.11245206401E+03  0.44482635942E+02  0.13478688001E+03  0.41800000000E+01 0.  1.
</event>
<event>
11    1  0.8041700E-009  0.1392484E+03  0.7561462E-02  0.1108401E+00
         22   -1    0    0    0    0  0.00000000000E+00  0.00000000000E+00  0.10405771620E+04  0.10405771620E+04  0.00000000000E+00 0.  1.
         22   -1    0    0    0    0 -0.00000000000E+00 -0.00000000000E+00 -0.45999399081E+03  0.45999399081E+03  0.00000000000E+00 0. -1.
         24    2    1    2    0    0  0.11855769257E+01  0.19213281300E+02 -0.44049444091E+03  0.44816453825E+03  0.80284152254E+02 0.  0.
         25    2    1    2    0    0 -0.62043224415E+02 -0.13425737283E+02  0.42102896376E+03  0.44378099770E+03  0.12508626414E+03 0.  0.
        -24    2    1    2    0    0  0.60857647489E+02 -0.57875440162E+01  0.60004864829E+03  0.60862561681E+03  0.81422430572E+02 0.  0.
        -11    1    3    3    0    0 -0.68332297569E+00  0.67200289651E+01  0.69858101877E+00  0.67907094637E+01  0.00000000000E+00 0.  1.
         12    1    3    3    0    0  0.18688999014E+01  0.12493252335E+02 -0.44119302193E+03  0.44137382879E+03  0.00000000000E+00 0. -1.
         13    1    5    5    0    0  0.67960503440E+00 -0.33469311517E+02  0.14723577001E+03  0.15099347220E+03  0.00000000000E+00 0. -1.
        -14    1    5    5    0    0  0.60178042454E+02  0.27681767501E+02  0.45281287828E+03  0.45763214461E+03  0.00000000000E+00 0.  1.
          5    1    4    4  501    0 -0.66041419486E+02  0.44999797432E+02  0.27451876290E+03  0.28594488008E+03  0.41800000000E+01 0.  1.
         -5    1    4    4    0  501  0.39981950717E+01 -0.58425534716E+02  0.14651020086E+03  0.15783611762E+03  0.41800000000E+01 0.  1.
</event>
<event>
11    1  0.8041700E-009  0.4604767E+03  0.7561462E-02  0.9486450E-01
         22   -1    0    0    0    0  0.00000000000E+00  0.00000000000E+00  0.14415044635E+04  0.14415044635E+04  0.00000000000E+00 0.  1.
         22   -1    0    0    0    0 -0.00000000000E+00 -0.00000000000E+00 -0.16956885106E+04  0.16956885106E+04  0.00000000000E+00 0. -1.
        -24    2    1    2    0    0 -0.17173643903E+03  0.31229646609E+03 -0.48327480814E+03  0.60563078747E+03  0.78813852345E+02 0.  0.
         25    2    1    2    0    0  0.29698605423E+03 -0.44949750359E+03 -0.10765780819E+04  0.12103374777E+04  0.12509085221E+03 0.  0.
         24    2    1    2    0    0 -0.12524961520E+03  0.13720103750E+03  0.13056688430E+04  0.13212247090E+04  0.79699518886E+02 0.  0.
        -11    1    5    5    0    0 -0.10560188376E+03  0.14044056026E+03  0.12458082881E+04  0.12581389428E+04  0.00000000000E+00 0.  1.
         12    1    5    5    0    0 -0.19647731446E+02 -0.32395227626E+01  0.59860554923E+02  0.63085766179E+02  0.00000000000E+00 0. -1.
         13    1    3    3    0    0 -0.34212080396E+02  0.97297517586E+02 -0.19511978926E+03  0.22070116795E+03  0.00000000000E+00 0. -1.
        -14    1    3    3    0    0 -0.13752435864E+03  0.21499894850E+03 -0.28815501888E+03  0.38492961952E+03  0.00000000000E+00 0.  1.
          5    1    4    4  501    0  0.22038739657E+03 -0.41273221899E+03 -0.91934615191E+03  0.10315683732E+04  0.41800000000E+01 0. -1.
         -5    1    4    4    0  501  0.76598657663E+02 -0.36765284600E+02 -0.15723192997E+03  0.17876910446E+03  0.41800000000E+01 0. -1.
</event>
<event>
11    1  0.8041700E-009  0.1362839E+03  0.7561462E-02  0.1111780E+00
         22   -1    0    0    0    0  0.00000000000E+00  0.00000000000E+00  0.57068979751E+03  0.57068979751E+03  0.00000000000E+00 0. -1.
         22   -1    0    0    0    0 -0.00000000000E+00 -0.00000000000E+00 -0.17610819628E+03  0.17610819628E+03  0.00000000000E+00 0.  1.
         24    2    1    2    0    0  0.31713582422E+01 -0.54229107677E+02 -0.13282849416E+03  0.16510895661E+03  0.81649893216E+02 0.  0.
         25    2    1    2    0    0 -0.47457589529E+02  0.72906171443E+01  0.22499212761E+03  0.26186736177E+03  0.12509069419E+03 0.  0.
        -24    2    1    2    0    0  0.44286231287E+02  0.46938490532E+02  0.30241796778E+03  0.31982167540E+03  0.81638132292E+02 0.  0.
        -11    1    3    3    0    0  0.29537017002E+02 -0.62903572512E+02 -0.84802389126E+02  0.10963913539E+03  0.00000000000E+00 0.  1.
         12    1    3    3    0    0 -0.26365658760E+02  0.86744648355E+01 -0.48026105030E+02  0.55469821222E+02  0.00000000000E+00 0. -1.
         13    1    5    5    0    0  0.47783476890E+02 -0.12512816561E+01  0.21180666736E+03  0.21713334776E+03  0.00000000000E+00 0. -1.
        -14    1    5    5    0    0 -0.34972456034E+01  0.48189772189E+02  0.90611300417E+02  0.10268832764E+03  0.00000000000E+00 0.  1.
          5    1    4    4  501    0  0.13503942854E+02 -0.36058745360E+02  0.15349805342E+03  0.15830892076E+03  0.41800000000E+01 0. -1.
         -5    1    4    4    0  501 -0.60961532383E+02  0.43349362504E+02  0.71494074191E+02  0.10355844101E+03  0.41800000000E+01 0. -1.
</event>
<event>
11    1  0.8041700E-009  0.1474103E+03  0.7561462E-02  0.1099555E+00
         22   -1    0    0    0    0  0.00000000000E+00  0.00000000000E+00  0.17606157237E+04  0.17606157237E+04  0.00000000000E+00 0. -1.
         22   -1    0    0    0    0 -0.00000000000E+00 -0.00000000000E+00 -0.14250188211E+04  0.14250188211E+04  0.00000000000E+00 0. -1.
        -24    2    1    2    0    0 -0.77594750149E+02 -0.92295224641E+01 -0.14098744195E+04  0.14144323021E+04  0.82260130943E+02 0.  0.
         25    2    1    2    0    0  0.45353433278E+02  0.38805465599E+02  0.41213819469E+03  0.43481969883E+03  0.12508989127E+03 0.  0.
         24    2    1    2    0    0  0.32241316872E+02 -0.29575943134E+02  0.13333331273E+04  0.13363825439E+04  0.78910304934E+02 0.  0.
        -11    1    5    5    0    0 -0.32524395553E+01 -0.20870283438E+02  0.87493064968E+02  0.90006574823E+02  0.00000000000E+00 0.  1.
         12    1    5    5    0    0  0.35493756427E+02 -0.87056596963E+01  0.12458400624E+04  0.12463759691E+04  0.00000000000E+00 0. -1.
         11    1    3    3    0    0 -0.32780216504E+02 -0.33154202769E+02 -0.10448641800E+04  0.10459038667E+04  0.00000000000E+00 0. -1.
        -12    1    3    3    0    0 -0.44814533646E+02  0.23924680305E+02 -0.36501023946E+03  0.36852843535E+03  0.00000000000E+00 0.  1.
          5    1    4    4  501    0  0.71415601455E+02  0.10983852584E+02  0.37325020507E+03  0.38020260538E+03  0.41800000000E+01 0. -1.
         -5    1    4    4    0  501 -0.26062168178E+02  0.27821613015E+02  0.38887989621E+02  0.54617093457E+02  0.41800000000E+01 0. -1.
</event>
<event>
11    1  0.8041700E-009  0.1478277E+03  0.7561462E-02  0.1099119E+00
         22   -1    0    0    0    0  0.00000000000E+00  0.00000000000E+00  0.38463413892E+03  0.38463413892E+03  0.00000000000E+00 0. -1.
         22   -1    0    0    0    0 -0.00000000000E+00 -0.00000000000E+00 -0.11173755919E+04  0.11173755919E+04  0.00000000000E+00 0.  1.
         24    2    1    2    0    0  0.35543745502E+02 -0.39954298317E+02 -0.10071537164E+04  0.10117562671E+04  0.80202443091E+02 0.  0.
         25    2    1    2    0    0  0.38461996779E+02  0.70922899058E+02 -0.41572506701E+02  0.15454919490E+03  0.12509115686E+03 0.  0.
        -24    2    1    2    0    0 -0.74005742281E+02 -0.30968600741E+02  0.31598477012E+03  0.33570426877E+03  0.80094175817E+02 0.  0.
        -13    1    3    3    0    0  0.44136241278E+02 -0.46965822517E+02 -0.98373870377E+03  0.98584767260E+03  0.00000000000E+00 0.  1.
         14    1    3    3    0    0 -0.85924957751E+01  0.70115242001E+01 -0.23415012589E+02  0.25908594516E+02  0.00000000000E+00 0. -1.
         13    1    5    5    0    0 -0.86978218912E+02 -0.41708683956E+02  0.26503987045E+03  0.28204779349E+03  0.00000000000E+00 0. -1.
        -14    1    5    5    0    0  0.12972476631E+02  0.10740083215E+02  0.50944899670E+02  0.53656475283E+02  0.00000000000E+00 0.  1.
          5    1    4    4  501    0  0.74056333719E+00 -0.93245666830E+01 -0.62509844102E+02  0.63343894635E+02  0.41800000000E+01 0. -1.
         -5    1    4    4    0  501  0.37721433442E+02  0.80247465741E+02  0.20937337401E+02  0.91205300264E+02  0.41800000000E+01 0. -1.
</event>
<event>
11    1  0.8041700E-009  0.1461183E+03  0.7561462E-02  0.1100912E+00
         22   -1    0    0    0    0  0.00000000000E+00  0.00000000000E+00  0.23461735839E+04  0.23461735839E+04  0.00000000000E+00 0. -1.
         22   -1    0    0    0    0 -0.00000000000E+00 -0.00000000000E+00 -0.27216987041E+03  0.27216987041E+03  0.00000000000E+00 0. -1.
        -24    2    1    2    0    0 -0.72623179189E+02 -0.19133781210E+02 -0.23554990809E+03  0.25974887093E+03  0.79658577752E+02 0.  0.
         25    2    1    2    0    0  0.67985966174E+02  0.72515575004E+02  0.24880114954E+03  0.29568476741E+03  0.12508744722E+03 0.  0.
         24    2    1    2    0    0  0.46372130152E+01 -0.53381793794E+02  0.20607524720E+04  0.20629098160E+04  0.77621119410E+02 0.  0.
        -13    1    5    5    0    0  0.18665177683E+02 -0.14177834337E+02  0.16062519143E+03  0.16232637483E+03  0.00000000000E+00 0.  1.
         14    1    5    5    0    0 -0.14027964668E+02 -0.39203959457E+02  0.19001272806E+04  0.19005834411E+04  0.00000000000E+00 0. -1.
         11    1    3    3    0    0 -0.44407228632E+02 -0.46422160063E+02 -0.18442126191E+03  0.19529009382E+03  0.00000000000E+00 0. -1.
        -12    1    3    3    0    0 -0.28215950557E+02  0.27288378854E+02 -0.51128646174E+02  0.64458777105E+02  0.00000000000E+00 0.  1.
          5    1    4    4  501    0 -0.15065718537E+02  0.33914045037E+02  0.82357048357E+01  0.38241829976E+02  0.41800000000E+01 0.  1.
         -5    1    4    4    0  501  0.83051684710E+02  0.38601529967E+02  0.24056544470E+03  0.25744293743E+03  0.41800000000E+01 0.  1.
</event>
<event>
11    1  0.8041700E-009  0.1336089E+03  0.7561462E-02  0.1114913E+00
         22   -1    0    0    0    0  0.00000000000E+00  0.00000000000E+00  0.17177439870E+04  0.17177439870E+04  0.00000000000E+00 0.  1.
         22   -1    0    0    0    0 -0.00000000000E+00 -0.00000000000E+00 -0.10359280682E+03  0.10359280682E+03  0.00000000000E+00 0. -1.
         24    2    1    2    0    0 -0.47802682758E+01  0.11034747930E+02 -0.55810914245E+02  0.10073760236E+03  0.82997528597E+02 0.  0.
         25    2    1    2    0    0  0.47404424972E+02  0.86873093235E+01  0.16398624523E+03  0.21180369052E+03  0.12508663334E+03 0.  0.
        -24    2    1    2    0    0 -0.42624156696E+02 -0.19722057253E+02  0.15059758492E+04  0.15087955009E+04  0.79339946130E+02 0.  0.
        -11    1    3    3    0    0  0.29648035149E+02 -0.16332381581E+02 -0.43400974555E+02  0.55039960652E+02  0.00000000000E+00 0.  1.
         12    1    3    3    0    0 -0.34428303425E+02  0.27367129511E+02 -0.12409939690E+02  0.45697641706E+02  0.00000000000E+00 0. -1.
         11    1    5    5    0    0 -0.12631737372E+02  0.30708415617E+02  0.48546747988E+03  0.48660172790E+03  0.00000000000E+00 0. -1.
        -12    1    5    5    0    0 -0.29992419325E+02 -0.50430472870E+02  0.10205083693E+04  0.10221937730E+04  0.00000000000E+00 0.  1.
          5    1    4    4  501    0  0.64903436374E+01 -0.26328369398E+02 -0.10325162791E+02  0.29315336982E+02  0.41800000000E+01 0.  1.
         -5    1    4    4    0  501  0.40914081335E+02  0.35015678722E+02  0.17431140802E+03  0.18248835353E+03  0.41800000000E+01 0.  1.
</event>
<event>
11    1  0.8041700E-009  0.1512675E+03  0.7561462E-02  0.1095591E+00
         22   -1    0    0    0    0  0.00000000000E+00  0.00000000000E+00  0.37203047005E+03  0.37203047005E+03  0.00000000000E+00 0.  1.
         22   -1    0    0    0    0 -0.00000000000E+00 -0.00000000000E+00 -0.13037039950E+04  0.13037039950E+04  0.00000000000E+00 0.  1.
         24    2    1    2    0    0  0.74797920551E+02  0.39803898687E+02 -0.12411019921E+04  0.12465540399E+04  0.79898312244E+02 0.  0.
         25    2    1    2    0    0 -0.77930448026E+02 -0.67098013210E+02  0.71414556530E+02  0.17697753411E+03  0.12508281492E+03 0.  0.
        -24    2    1    2    0    0  0.31325274750E+01  0.27294114523E+02  0.23801391066E+03  0.25220289101E+03  0.78745762764E+02 0.  0.
        -11    1    3    3    0    0  0.87121176906E+02  0.14534165464E+02 -0.95118245908E+03  0.95527452174E+03  0.00000000000E+00 0.  1.
         12    1    3    3    0    0 -0.12323256355E+02  0.25269733223E+02 -0.28991953307E+03  0.29127951819E+03  0.00000000000E+00 0. -1.
         11    1    5    5    0    0 -0.22943459317E+02 -0.95227716207E+01  0.28146019057E+02  0.37540430120E+02  0.00000000000E+00 0. -1.
        -12    1    5    5    0    0  0.26075986792E+02  0.36816886144E+02  0.20986789160E+03  0.21466246089E+03  0.00000000000E+00 0.  1.
          5    1    4    4  501    0 -0.46734473683E+02 -0.83591256889E+02  0.94495700790E+02  0.13460504867E+03  0.41800000000E+01 0.  1.
         -5    1    4    4    0  501 -0.31195974343E+02  0.16493243678E+02 -0.23081144261E+02  0.42372485443E+02  0.41800000000E+01 0.  1.
</event>
<event>
11    1  0.8041700E-009  0.1555644E+03  0.7561462E-02  0.1091325E+00
         22   -1    0    0    0    0  0.00000000000E+00  0.00000000000E+00  0.19565983505E+03  0.19565983505E+03  0.00000000000E+00 0. -1.
         22   -1    0    0    0    0 -0.00000000000E+00 -0.00000000000E+00 -0.38526181321E+03  0.38526181321E+03  0.00000000000E+00 0. -1.
         24    2    1    2    0    0  0.21870378036E+02  0.35207995394E+02 -0.25041005545E+03  0.26626607347E+03  0.80464337665E+02 0.  0.
         25    2    1    2    0    0 -0.10333206792E+03  0.53381936905E+01 -0.27504040878E+02  0.16464869388E+03  0.12508680010E+03 0.  0.
        -24    2    1    2    0    0  0.81461689886E+02 -0.40546189085E+02  0.88312118174E+02  0.15000688091E+03  0.80143831545E+02 0.  0.
        -11    1    3    3    0    0 -0.19951169725E+02  0.41577622758E+02 -0.10192796617E+03  0.11187519017E+03  0.00000000000E+00 0.  1.
         12    1    3    3    0    0  0.41821547761E+02 -0.63696273636E+01 -0.14848208928E+03  0.15439088331E+03  0.00000000000E+00 0. -1.
         11    1    5    5    0    0  0.81079516743E+02 -0.16227737940E+02  0.93832246447E+02  0.12506685407E+03  0.00000000000E+00 0. -1.
        -12    1    5    5    0    0  0.38217314248E+00 -0.24318451145E+02 -0.55201282731E+01  0.24940026836E+02  0.00000000000E+00 0.  1.
          5    1    4    4  501    0 -0.58879977550E+02  0.64751609464E+02 -0.20606884487E+02  0.90009659330E+02  0.41800000000E+01 0.  1.
         -5    1    4    4    0  501 -0.44452090372E+02 -0.59413415774E+02 -0.68971563910E+01  0.74639034550E+02  0.41800000000E+01 0.  1.
</event>
<event>
11    1  0.8041700E-009  0.1681364E+03  0.7561462E-02  0.1079665E+00
         22   -1    0    0    0    0  0.00000000000E+00  0.00000000000E+00  0.11032761572E+03  0.11032761572E+03  0.00000000000E+00 0. -1.
         22   -1    0    0    0    0 -0.00000000000E+00 -0.00000000000E+00 -0.25505710393E+04  0.25505710393E+04  0.00000000000E+00 0. -1.
        -24    2    1    2    0    0  0.40027604372E+02 -0.37126104763E+01 -0.17940163438E+04  0.17965821711E+04  0.87159986443E+02 0.  0.
         25    2    1    2    0    0  0.64380022528E+02 -0.43955284002E+02 -0.69922981355E+03  0.71459573782E+03  0.12509149475E+03 0.  0.
         24    2    1    2    0    0 -0.10440762690E+03  0.47667894478E+02  0.53002733822E+02  0.14972074602E+03  0.80211166786E+02 0.  0.
        -13    1    5    5    0    0 -0.49534198806E+02 -0.19533059949E+02  0.21388719815E+02  0.57381657502E+02  0.00000000000E+00 0.  1.
         14    1    5    5    0    0 -0.54873428094E+02  0.67200954426E+02  0.31614014008E+02  0.92339088518E+02  0.00000000000E+00 0. -1.
         11    1    3    3    0    0  0.36448436139E+02 -0.25913308680E+02 -0.16663818838E+04  0.16669818747E+04  0.00000000000E+00 0. -1.
        -12    1    3    3    0    0  0.35791682323E+01  0.22200698204E+02 -0.12763446000E+03  0.12960029640E+03  0.00000000000E+00 0.  1.
          5    1    4    4  501    0  0.43519417237E+02 -0.37627527931E+02 -0.68667752795E+03  0.68909598049E+03  0.41800000000E+01 0.  1.
         -5    1    4    4    0  501  0.20860605292E+02 -0.63277560706E+01 -0.12552285598E+02  0.25499757327E+02  0.41800000000E+01 0.  1.
</event>
<event>
11    1  0.8041700E-009  0.1333424E+03  0.7561462E-02  0.1115229E+00
         22   -1    0    0    0    0  0.00000000000E+00  0.00000000000E+00  0.55094768132E+03  0.55094768132E+03  0.00000000000E+00 0. -1.
         22   -1    0    0    0    0 -0.00000000000E+00 -0.00000000000E+00 -0.83734210521E+03  0.83734210521E+03  0.00000000000E+00 0.  1.
         24    2    1    2    0    0 -0.24619194441E+02 -0.40404624151E+02 -0.77533061064E+03  0.78184945368E+03  0.88951526362E+02 0.  0.
         25    2    1    2    0    0  0.25382614742E+02  0.77433968312E+01  0.21278278090E+02  0.12963200976E+03  0.12508978980E+03 0.  0.
        -24    2    1    2    0    0 -0.76342030118E+00  0.32661227320E+02  0.46765790865E+03  0.47680832308E+03  0.87034009744E+02 0.  0.
        -11    1    3    3    0    0 -0.43594749223E+02 -0.58286060046E+02 -0.63085391275E+03  0.63503891707E+03  0.00000000000E+00 0.  1.
         12    1    3    3    0    0  0.18975554781E+02  0.17881435895E+02 -0.14447669788E+03  0.14681053661E+03  0.00000000000E+00 0. -1.
         11    1    5    5    0    0  0.33239932877E+01  0.10941799390E+02  0.44503467806E+03  0.44518157709E+03  0.00000000000E+00 0. -1.
        -12    1    5    5    0    0 -0.40874135889E+01  0.21719427930E+02  0.22623230598E+02  0.31626745994E+02  0.00000000000E+00 0.  1.
          5    1    4    4  501    0  0.68973958143E+02  0.83660977774E+01 -0.16792716182E+02  0.71602138311E+02  0.41800000000E+01 0. -1.
         -5    1    4    4    0  501 -0.43591343400E+02 -0.62270094622E+00  0.38070994272E+02  0.58029871452E+02  0.41800000000E+01 0. -1.
</event>
<event>
11    1  0.8041700E-009  0.1625027E+03  0.7561462E-02  0.1084747E+00
         22   -1    0    0    0    0  0.00000000000E+00  0.00000000000E+00  0.82124286621E+02  0.82124286621E+02  0.00000000000E+00 0.  1.
         22   -1    0    0    0    0 -0.00000000000E+00 -0.00000000000E+00 -0.24702169139E+04  0.24702169139E+04  0.00000000000E+00 0. -1.
         24    2    1    2    0    0  0.81250235055E+02  0.47951057731E+02 -0.17596647245E+04  0.17639989144E+04  0.79820564516E+02 0.  0.
         25    2    1    2    0    0 -0.84574437649E+02 -0.14679250072E+03 -0.62700677374E+03  0.66142586533E+03  0.12508320125E+03 0.  0.
        -24    2    1    2    0    0  0.33242025934E+01  0.98841442993E+02 -0.14211290074E+01  0.12691642082E+03  0.79530353263E+02 0.  0.
        -13    1    3    3    0    0  0.48686638946E+02  0.25136103102E+02 -0.39801268329E+03  0.40176648511E+03  0.00000000000E+00 0.  1.
         14    1    3    3    0    0  0.32563596110E+02  0.22814954629E+02 -0.13616520412E+04  0.13622324293E+04  0.00000000000E+00 0. -1.
         13    1    5    5    0    0 -0.12486118700E+02 -0.28390879401E+01  0.18107311545E+02  0.22177427982E+02  0.00000000000E+00 0. -1.
        -14    1    5    5    0    0  0.15810321293E+02  0.10168053093E+03 -0.19528440552E+02  0.10473899284E+03  0.00000000000E+00 0.  1.
          5    1    4    4  501    0 -0.34165595055E+02 -0.15089069014E+03 -0.52735918744E+03  0.54960028496E+03  0.41800000000E+01 0.  1.
         -5    1    4    4    0  501 -0.50408842594E+02  0.40981894121E+01 -0.99647586304E+02  0.11182558037E+03  0.41800000000E+01 0.  1.
</event>
<event>
11    1  0.8041700E-009  0.1595701E+03  0.7561462E-02  0.1087482E+00
         22   -1    0    0    0    0  0.00000000000E+00  0.00000000000E+00  0.12310913782E+04  0.12310913782E+04  0.00000000000E+00 0. -1.
         22   -1    0    0    0    0 -0.00000000000E+00 -0.00000000000E+00 -0.60319033610E+03  0.60319033610E+03  0.00000000000E+00 0. -1.
        -24    2    1    2    0    0 -0.84113130029E+02  0.66349527962E+02 -0.50527790789E+03  0.52395581785E+03  0.88015091629E+02 0.  0.
         25    2    1    2    0    0  0.23772944268E+02 -0.52615060815E+02 -0.31647408588E+02  0.14135511527E+03  0.12508482178E+03 0.  0.
         24    2    1    2    0    0  0.60340185761E+02 -0.13734467146E+02  0.11648263585E+04  0.11689707811E+04  0.76437346909E+02 0.  0.
        -13    1    5    5    0    0  0.30975584635E+02  0.13775317751E+01  0.13108847441E+03  0.13470550309E+03  0.00000000000E+00 0.  1.
         14    1    5    5    0    0  0.29364601125E+02 -0.15111998922E+02  0.10337378841E+04  0.10342652781E+04  0.00000000000E+00 0. -1.
         11    1    3    3    0    0 -0.74669215772E+02  0.90794746960E+01 -0.35448255538E+03  0.36237523469E+03  0.00000000000E+00 0. -1.
        -12    1    3    3    0    0 -0.94439142567E+01  0.57270053266E+02 -0.15079535251E+03  0.16158058317E+03  0.00000000000E+00 0.  1.
          5    1    4    4  501    0  0.37140833379E+02  0.31051787586E+02 -0.28781390195E+02  0.56475621625E+02  0.41800000000E+01 0.  1.
         -5    1    4    4    0  501 -0.13367889111E+02 -0.83666848401E+02 -0.28660183929E+01  0.84879493649E+02  0.41800000000E+01 0.  1.
</event>
<event>
11    1  0.8041700E-009  0.1648207E+03  0.7561462E-02  0.1082629E+00
         22   -1    0    0    0    0  0.00000000000E+00  0.00000000000E+00  0.93422108834E+03  0.93422108834E+03  0.00000000000E+00 0. -1.
         22   -1    0    0    0    0 -0.00000000000E+00 -0.00000000000E+00 -0.14702978135E+04  0.14702978135E+04  0.00000000000E+00 0.  1.
         24    2    1    2    0    0 -0.54554892965E+01 -0.10438558490E+03 -0.13149217918E+04  0.13215343704E+04  0.80670073288E+02 0.  0.
         25    2    1    2    0    0  0.19893965260E+02  0.17074488687E+03 -0.72921461633E+02  0.22475337278E+03  0.12508778024E+03 0.  0.
        -24    2    1    2    0    0 -0.14438475964E+02 -0.66359301971E+02  0.85176652836E+03  0.85823115864E+03  0.80265037806E+02 0.  0.
        -11    1    3    3    0    0 -0.21123331314E+01 -0.11780706956E+03 -0.11429560711E+04  0.11490132932E+04  0.00000000000E+00 0.  1.
         12    1    3    3    0    0 -0.33431561651E+01  0.13421484665E+02 -0.17196572076E+03  0.17252107714E+03  0.00000000000E+00 0. -1.
         11    1    5    5    0    0 -0.31541976319E+02 -0.77029443462E+02  0.61487471555E+03  0.62048315630E+03  0.00000000000E+00 0. -1.
        -12    1    5    5    0    0  0.17103500355E+02  0.10670141491E+02  0.23689181280E+03  0.23774800234E+03  0.00000000000E+00 0.  1.
          5    1    4    4  501    0  0.64539009329E+01  0.25859087441E+02  0.34532576803E+02  0.43821416011E+02  0.41800000000E+01 0. -1.
         -5    1    4    4    0  501  0.13440064327E+02  0.14488579943E+03 -0.10745403844E+03  0.18093195677E+03  0.41800000000E+01 0. -1.
</event>
<event>
11    1  0.8041700E-009  0.6846439E+03  0.7561462E-02  0.9055245E-01
         22   -1    0    0    0    0  0.00000000000E+00  0.00000000000E+00  0.48335959415E+03  0.48335959415E+03  0.00000000000E+00 0. -1.
         22   -1    0    0    0    0 -0.00000000000E+00 -0.00000000000E+00 -0.24454285116E+04  0.24454285116E+04  0.00000000000E+00 0.  1.
         24    2    1    2    0    0 -0.46067146568E+03 -0.49352428618E+03 -0.18236265222E+04  0.19463625770E+04  0.83241626439E+02 0.  0.
         25    2    1    2    0    0  0.54165806028E+03  0.40210718133E+03 -0.31405985105E+03  0.75456265158E+03  0.12509022974E+03 0.  0.
        -24    2    1    2    0    0 -0.80986594600E+02  0.91417104851E+02  0.17561745575E+03  0.22786287720E+03  0.78511683709E+02 0.  0.
        -13    1    3    3    0    0 -0.32315953678E+03 -0.29835317778E+03 -0.12455090144E+04  0.13208858428E+04  0.00000000000E+00 0.  1.
         14    1    3    3    0    0 -0.13751192890E+03 -0.19517110841E+03 -0.57811750779E+03  0.62547673415E+03  0.00000000000E+00 0. -1.
         13    1    5    5    0    0 -0.81700724657E+02  0.68191171181E+02  0.17475764557E+03  0.20461006554E+03  0.00000000000E+00 0. -1.
        -14    1    5    5    0    0  0.71413005716E+00  0.23225933670E+02  0.85981018144E+00  0.23252811660E+02  0.00000000000E+00 0.  1.
          5    1    4    4  501    0  0.20214263883E+03  0.17203197182E+03 -0.18863316068E+03  0.32566330385E+03  0.41800000000E+01 0. -1.
         -5    1    4    4    0  501  0.33951542144E+03  0.23007520951E+03 -0.12542669037E+03  0.42889934774E+03  0.41800000000E+01 0. -1.
</event>
<event>
11    1  0.8041700E-009  0.1422952E+03  0.7561462E-02  0.1105022E+00
         22   -1    0    0    0    0  0.00000000000E+00  0.00000000000E+00  0.47844065123E+03  0.47844065123E+03  0.00000000000E+00 0. -1.
         22   -1    0    0    0    0 -0.00000000000E+00 -0.00000000000E+00 -0.76846391364E+03  0.76846391364E+03  0.00000000000E+00 0.  1.
         24    2    1    2    0    0 -0.23442215020E+02 -0.17895998379E+02 -0.58503296649E+03  0.59089590841E+03  0.77618287122E+02 0.  0.
         25    2    1    2    0    0  0.90127417143E+02  0.10650582503E+02 -0.13992700156E+03  0.20847877008E+03  0.12508975010E+03 0.  0.
        -24    2    1    2    0    0 -0.66685202123E+02  0.72454158759E+01  0.43493670564E+03  0.44752988637E+03  0.81324344764E+02 0.  0.
        -11    1    3    3    0    0 -0.32506635716E+02  0.18360304167E+02 -0.42134990958E+03  0.42300062463E+03  0.00000000000E+00 0.  1.
         12    1    3    3    0    0  0.90644206961E+01 -0.36256302546E+02 -0.16368305691E+03  0.16789528378E+03  0.00000000000E+00 0. -1.
         11    1    5    5    0    0 -0.19692893903E+02 -0.18141267730E+02  0.31621923792E+03  0.31735078714E+03  0.00000000000E+00 0. -1.
        -12    1    5    5    0    0 -0.46992308220E+02  0.25386683606E+02  0.11871746771E+03  0.13017909923E+03  0.00000000000E+00 0.  1.
          5    1    4    4  501    0  0.93394264700E+02  0.44113794198E+02 -0.14069577639E+03  0.17458891549E+03  0.41800000000E+01 0. -1.
         -5    1    4    4    0  501 -0.32668475574E+01 -0.33463211695E+02  0.76877482236E+00  0.33889854597E+02  0.41800000000E+01 0. -1.
</event>
<event>
11    1  0.8041700E-009  0.1447596E+03  0.7561462E-02  0.1102357E+00
         22   -1    0    0    0    0  0.00000000000E+00  0.00000000000E+00  0.16608001000E+04  0.16608001000E+04  0.00000000000E+00 0.  1.
         22   -1    0    0    0    0 -0.00000000000E+00 -0.00000000000E+00 -0.55620449523E+02  0.55620449523E+02  0.00000000000E+00 0. -1.
        -24    2    1    2    0    0 -0.48992908413E+02 -0.36647567026E+02  0.70638840716E+02  0.12337484567E+03  0.80549099832E+02 0.  0.
         25    2    1    2    0    0  0.95952103978E+02  0.39146867951E+02  0.21164149757E+03  0.26679371298E+03  0.12508988075E+03 0.  0.
         24    2    1    2    0    0 -0.46959195565E+02 -0.24993009255E+01  0.13228993122E+04  0.13262519908E+04  0.81672152667E+02 0.  0.
        -11    1    5    5    0    0 -0.46353258978E+02  0.44324060688E+01  0.13145884535E+04  0.13154128906E+04  0.00000000000E+00 0.  1.
         12    1    5    5    0    0 -0.60593658640E+00 -0.69317069942E+01  0.83108586865E+01  0.10839100198E+02  0.00000000000E+00 0. -1.
         11    1    3    3    0    0 -0.52646265961E+02 -0.48673359586E+02  0.24835462030E+02  0.75878359413E+02  0.00000000000E+00 0. -1.
        -12    1    3    3    0    0  0.36533575479E+01  0.12025792560E+02  0.45803378686E+02  0.47496486261E+02  0.00000000000E+00 0.  1.
          5    1    4    4  501    0  0.12340570637E+03  0.18199917520E+02  0.18413146469E+03  0.22244566539E+03  0.41800000000E+01 0. -1.
         -5    1    4    4    0  501 -0.27453602388E+02  0.20946950431E+02  0.27510032881E+02  0.44348047596E+02  0.41800000000E+01 0. -1.
</event>
<event>
11    1  0.8041700E-009  0.1326009E+03  0.7561462E-02  0.1116114E+00
         22   -1    0    0    0    0  0.00000000000E+00  0.00000000000E+00  0.10777154939E+04  0.10777154939E+04  0.00000000000E+00 0.  1.
         22   -1    0    0    0    0 -0.00000000000E+00 -0.00000000000E+00 -0.71589194880E+02  0.71589194880E+02  0.00000000000E+00 0. -1.
         24    2    1    2    0    0  0.12177882893E+02  0.43209748607E+02 -0.25409501255E+02  0.96256267760E+02  0.81266494465E+02 0.  0.
         25    2    1    2    0    0  0.25595249295E+01 -0.29889459971E+02  0.57800470102E+03  0.59215024129E+03  0.12511012298E+03 0.  0.
        -24    2    1    2    0    0 -0.14737407822E+02 -0.13320288636E+02  0.45353109930E+03  0.46089817977E+03  0.79637006531E+02 0.  0.
        -13    1    3    3    0    0 -0.70187104532E+01  0.17930021864E+02  0.28085851189E+02  0.34052357004E+02  0.00000000000E+00 0.  1.
         14    1    3    3    0    0  0.19196593346E+02  0.25279726743E+02 -0.53495352444E+02  0.62203910756E+02  0.00000000000E+00 0. -1.
         13    1    5    5    0    0 -0.47517372905E+02 -0.27415628429E+01  0.26983837128E+03  0.27400394798E+03  0.00000000000E+00 0. -1.
        -14    1    5    5    0    0  0.32779965083E+02 -0.10578725793E+02  0.18369272802E+03  0.18689423179E+03  0.00000000000E+00 0.  1.
          5    1    4    4  501    0  0.95297039370E+00  0.47818231403E+02  0.28332843543E+03  0.28736730177E+03  0.41800000000E+01 0.  1.
         -5    1    4    4    0  501  0.16065545358E+01 -0.77707691374E+02  0.29467626560E+03  0.30478293952E+03  0.41800000000E+01 0.  1.
</event>
<event>
11    1  0.8041700E-009  0.2508385E+03  0.7561462E-02  0.1023453E+00
         22   -1    0    0    0    0  0.00000000000E+00  0.00000000000E+00  0.47455959084E+03  0.47455959084E+03  0.00000000000E+00 0. -1.
         22   -1    0    0    0    0 -0.00000000000E+00 -0.00000000000E+00 -0.34479828662E+03  0.34479828662E+03  0.00000000000E+00 0.  1.
         24    2    1    2    0    0  0.11718481884E+03  0.17977410961E+03 -0.10812560748E+03  0.25381484634E+03  0.81730147303E+02 0.  0.
         25    2    1    2    0    0 -0.18863064166E+03 -0.13410843566E+03 -0.38077398896E+02  0.26582711086E+03  0.12509025970E+03 0.  0.
        -24    2    1    2    0    0  0.71445822819E+02 -0.45665673951E+02  0.27596431059E+03  0.29971592027E+03  0.80520014690E+02 0.  0.
        -11    1    3    3    0    0  0.90773323117E+02  0.65755648904E+02 -0.44473694082E+02  0.12058818772E+03  0.00000000000E+00 0.  1.
         12    1    3    3    0    0  0.26411495723E+02  0.11401846071E+03 -0.63651913393E+02  0.13322665862E+03  0.00000000000E+00 0. -1.
         13    1    5    5    0    0  0.62305734499E+02 -0.57673891052E+02  0.27074976720E+03  0.28374939418E+03  0.00000000000E+00 0. -1.
        -14    1    5    5    0    0  0.91400883197E+01  0.12008217101E+02  0.52145433933E+01  0.15966526085E+02  0.00000000000E+00 0.  1.
          5    1    4    4  501    0 -0.17209758998E+03 -0.13313427914E+03 -0.70853831608E+02  0.22886689279E+03  0.41800000000E+01 0.  1.
         -5    1    4    4    0  501 -0.16533051674E+02 -0.97415652285E+00  0.32776432712E+02  0.36960218071E+02  0.41800000000E+01 0.  1.
</event>
<event>
11    1  0.8041700E-009  0.1641738E+03  0.7561462E-02  0.1083216E+00
         22   -1    0    0    0    0  0.00000000000E+00  0.00000000000E+00  0.72800110989E+03  0.72800110989E+03  0.00000000000E+00 0.  1.
         22   -1    0    0    0    0 -0.00000000000E+00 -0.00000000000E+00 -0.15851602657E+04  0.15851602657E+04  0.00000000000E+00 0. -1.
         24    2    1    2    0    0  0.84444279745E+02 -0.79467636566E+01 -0.14006128137E+04  0.14053935849E+04  0.78872600444E+02 0.  0.
         25    2    1    2    0    0 -0.14413896905E+03 -0.78172338277E+02 -0.11501475913E+03  0.23614500613E+03  0.12509641174E+03 0.  0.
        -24    2    1    2    0    0  0.59694689303E+02  0.86119101934E+02  0.65846841707E+03  0.67162278453E+03  0.80725168206E+02 0.  0.
        -11    1    3    3    0    0 -0.98099965682E+01  0.11763229134E+02 -0.94234652396E+02  0.95471353318E+02  0.00000000000E+00 0.  1.
         12    1    3    3    0    0  0.94254276314E+02 -0.19709992790E+02 -0.13063781613E+04  0.13099222316E+04  0.00000000000E+00 0. -1.
         11    1    5    5    0    0 -0.10693088192E+02  0.43159472049E+02  0.32901990384E+03  0.33201081200E+03  0.00000000000E+00 0. -1.
        -12    1    5    5    0    0  0.70387777495E+02  0.42959629885E+02  0.32944851323E+03  0.33961197254E+03  0.00000000000E+00 0.  1.
          5    1    4    4  501    0  0.74648792931E+01  0.83951205389E+01 -0.47385871371E+02  0.48878376378E+02  0.41800000000E+01 0. -1.
         -5    1    4    4    0  501 -0.15160384834E+03 -0.86567458816E+02 -0.67628887756E+02  0.18726662975E+03  0.41800000000E+01 0. -1.
</event>
<event>
11    1  0.8041700E-009  0.1691902E+03  0.7561462E-02  0.1078739E+00
         22   -1    0    0    0    0  0.00000000000E+00  0.00000000000E+00  0.32306333515E+03  0.32306333515E+03  0.00000000000E+00 0.  1.
         22   -1    0    0    0    0 -0.00000000000E+00 -0.00000000000E+00 -0.45805174756E+03  0.45805174756E+03  0.00000000000E+00 0. -1.
        -24    2    1    2    0    0  0.56731744965E+02  0.71780556749E+02 -0.30247059603E+03  0.32615805905E+03  0.80744528001E+02 0.  0.
         25    2    1    2    0    0 -0.52104535377E+02 -0.17567825055E+03 -0.24314403555E+02  0.22319417374E+03  0.12508684443E+03 0.  0.
         24    2    1    2    0    0 -0.46272095887E+01  0.10389769380E+03  0.19179658718E+03  0.23176284993E+03  0.78178935182E+02 0.  0.
        -13    1    5    5    0    0 -0.11820558223E+02  0.11250500908E+03  0.18889184583E+03  0.22017545750E+03  0.00000000000E+00 0.  1.
         14    1    5    5    0    0  0.71933486340E+01 -0.86073152782E+01  0.29047413478E+01  0.11587392423E+02  0.00000000000E+00 0. -1.
         13    1    3    3    0    0  0.70172769928E+02  0.71233666664E+02 -0.29330276189E+03  0.30987894900E+03  0.00000000000E+00 0. -1.
        -14    1    3    3    0    0 -0.13441024962E+02  0.54689008498E+00 -0.91678341448E+01  0.16279110040E+02  0.00000000000E+00 0.  1.
          5    1    4    4  501    0 -0.56583215879E+02 -0.20544137470E+02 -0.30911433606E+02  0.67799048896E+02  0.41800000000E+01 0. -1.
         -5    1    4    4    0  501  0.44786805025E+01 -0.15513411308E+03  0.65970300513E+01  0.15539512485E+03  0.41800000000E+01 0. -1.
</event>
<event>
11    1  0.8041700E-009  0.1358960E+03  0.7561462E-02  0.1112230E+00
         22   -1    0    0    0    0  0.00000000000E+00  0.00000000000E+00  0.13533763011E+03  0.13533763011E+03  0.00000000000E+00 0.  1.
         22   -1    0    0    0    0 -0.00000000000E+00 -0.00000000000E+00 -0.16512463420E+04  0.16512463420E+04  0.00000000000E+00 0.  1.
         24    2    1    2    0    0 -0.17213108734E+02  0.29473336244E+02 -0.12219160473E+04  0.12250127837E+04  0.80078241044E+02 0.  0.
         25    2    1    2    0    0 -0.36623229120E+02 -0.30258201132E+02 -0.39772511126E+03  0.41962985984E+03  0.12508851064E+03 0.  0.
        -24    2    1    2    0    0  0.53836337854E+02  0.78486488818E+00  0.10373244671E+03  0.14194132862E+03  0.80547830421E+02 0.  0.
        -11    1    3    3    0    0  0.11559957948E+00  0.37400686935E+02 -0.11502088951E+04  0.11508168086E+04  0.00000000000E+00 0.  1.
         12    1    3    3    0    0 -0.17328708313E+02 -0.79273506910E+01 -0.71707152281E+02  0.74195975019E+02  0.00000000000E+00 0. -1.
         13    1    5    5    0    0 -0.96075452952E+01 -0.19625346629E+02  0.43476998917E+01  0.22279175282E+02  0.00000000000E+00 0. -1.
        -14    1    5    5    0    0  0.63443883149E+02  0.20410211517E+02  0.99384746814E+02  0.11966215334E+03  0.00000000000E+00 0.  1.
          5    1    4    4  501    0  0.17283373978E+02 -0.51507688328E+02 -0.81012563783E+02  0.97633318410E+02  0.41800000000E+01 0.  1.
         -5    1    4    4    0  501 -0.53906603099E+02  0.21249487196E+02 -0.31671254748E+03  0.32199654143E+03  0.41800000000E+01 0.  1.
</event>
<event>
11    1  0.8041700E-009  0.1804357E+03  0.7561462E-02  0.1069291E+00
         22   -1    0    0    0    0  0.00000000000E+00  0.00000000000E+00  0.90258289695E+02  0.90258289695E+02  0.00000000000E+00 0. -1.
         22   -1    0    0    0    0 -0.00000000000E+00 -0.00000000000E+00 -0.23687562722E+04  0.23687562722E+04  0.00000000000E+00 0.  1.
         24    2    1    2    0    0  0.23859670252E+02 -0.12620739907E+03 -0.18932707017E+04  0.18993311236E+04  0.80543004623E+02 0.  0.
         25    2    1    2    0    0  0.28419316411E+02  0.14800603289E+03 -0.41386211127E+03  0.45786860794E+03  0.12509345176E+03 0.  0.
        -24    2    1    2    0    0 -0.52278986663E+02 -0.21798633826E+02  0.28634830523E+02  0.10181483033E+03  0.79611765920E+02 0.  0.
        -13    1    3    3    0    0  0.24019713488E+02 -0.10958529537E+03 -0.10647983226E+04  0.10706919965E+04  0.00000000000E+00 0.  1.
         14    1    3    3    0    0 -0.16004323594E+00 -0.16622103698E+02 -0.82847237909E+03  0.82863912704E+03  0.00000000000E+00 0. -1.
         13    1    5    5    0    0 -0.73408829134E+02 -0.19476252737E+02  0.26551202155E+02  0.80455869589E+02  0.00000000000E+00 0. -1.
        -14    1    5    5    0    0  0.21129842471E+02 -0.23223810887E+01  0.20836283681E+01  0.21358960741E+02  0.00000000000E+00 0.  1.
          5    1    4    4  501    0 -0.20419213055E+01  0.35379242870E+02 -0.27114163840E+03  0.27347965325E+03  0.41800000000E+01 0. -1.
         -5    1    4    4    0  501  0.30461237717E+02  0.11262679003E+03 -0.14272047288E+03  0.18438895469E+03  0.41800000000E+01 0. -1.
</event>
<event>
11    1  0.8041700E-009  0.2093145E+03  0.7561462E-02  0.1048126E+00
         22   -1    0    0    0    0  0.00000000000E+00  0.00000000000E+00  0.13645268233E+04  0.13645268233E+04  0.00000000000E+00 0.  1.
         22   -1    0    0    0    0 -0.00000000000E+00 -0.00000000000E+00 -0.49333853937E+03  0.49333853937E+03  0.00000000000E+00 0.  1.
        -24    2    1    2    0    0  0.10337292890E+03  0.11728805593E+03 -0.33200552458E+03  0.37661890785E+03  0.84685789264E+02 0.  0.
         25    2    1    2    0    0 -0.15599352066E+03 -0.17500011966E+03 -0.70373371319E+01  0.26581243515E+03  0.12509079182E+03 0.  0.
         24    2    1    2    0    0  0.52620591757E+02  0.57712063726E+02  0.12102311456E+04  0.12154340196E+04  0.80751602658E+02 0.  0.
        -13    1    5    5    0    0  0.36436634196E+02 -0.20618539311E+01  0.77050360623E+03  0.77136741361E+03  0.00000000000E+00 0.  1.
         14    1    5    5    0    0  0.16183957561E+02  0.59773917657E+02  0.43972753937E+03  0.44406660603E+03  0.00000000000E+00 0. -1.
         11    1    3    3    0    0 -0.45446307823E+01 -0.43821444706E+01 -0.55292266478E+02  0.55651519219E+02  0.00000000000E+00 0. -1.
        -12    1    3    3    0    0  0.10791755968E+03  0.12167020040E+03 -0.27671325810E+03  0.32096738863E+03  0.00000000000E+00 0.  1.
          5    1    4    4  501    0 -0.13648805092E+02 -0.27354081686E+02  0.44646074783E+02  0.54270434482E+02  0.41800000000E+01 0.  1.
         -5    1    4    4    0  501 -0.14234471557E+03 -0.14764603797E+03 -0.51683411915E+02  0.21154200067E+03  0.41800000000E+01 0.  1.
</event>
<event>
11    1  0.8041700E-009  0.1415192E+03  0.7561462E-02  0.1105874E+00
         22   -1    0    0    0    0  0.00000000000E+00  0.00000000000E+00  0.57195921657E+03  0.57195921657E+03  0.00000000000E+00 0. -1.
         22   -1    0    0    0    0 -0.00000000000E+00 -0.00000000000E+00 -0.78596897698E+03  0.78596897698E+03  0.00000000000E+00 0.  1.
         24    2    1    2    0    0 -0.43009362580E+02 -0.38651400075E+01 -0.68706534649E+03  0.69304369933E+03  0.79912666426E+02 0.  0.
         25    2    1    2    0    0 -0.25646957598E+02  0.50501116545E+01 -0.45136693950E+02  0.13553527217E+03  0.12509683769E+03 0.  0.
        -24    2    1    2    0    0  0.68656320178E+02 -0.11849716470E+01  0.51819228003E+03  0.52934922205E+03  0.83500091878E+02 0.  0.
        -11    1    3    3    0    0 -0.16910099224E+02  0.28736782573E+02 -0.51126445349E+03  0.51235055921E+03  0.00000000000E+00 0.  1.
         12    1    3    3    0    0 -0.26099263356E+02 -0.32601922581E+02 -0.17580089300E+03  0.18069314012E+03  0.00000000000E+00 0. -1.
         13    1    5    5    0    0  0.29371236349E+02  0.26417032737E+02  0.39749339451E+03  0.39945153376E+03  0.00000000000E+00 0. -1.
        -14    1    5    5    0    0  0.39285083829E+02 -0.27602004384E+02  0.12069888552E+03  0.12989768829E+03  0.00000000000E+00 0.  1.
          5    1    4    4  501    0  0.19407368050E+02  0.41015141902E+02  0.18846344425E+02  0.49310697603E+02  0.41800000000E+01 0.  1.
         -5    1    4    4    0  501 -0.45054325648E+02 -0.35965030248E+02 -0.63983038375E+02  0.86224574571E+02  0.41800000000E+01 0.  1.
</event>
<event>
11    1  0.1048440E-008  0.1596543E+03  0.7561462E-02  0.1087403E+00
         22   -1    0    0    0    0  0.00000000000E+00  0.00000000000E+00  0.60859028824E+03  0.60859028824E+03  0.00000000000E+00 0.  1.
         22   -1    0    0    0    0 -0.00000000000E+00 -0.00000000000E+00 -0.73422660564E+03  0.73422660564E+03  0.00000000000E+00 0. -1.
        -24    2    1    2    0    0 -0.51133737359E+02  0.92807733598E+02 -0.57601618948E+03  0.59119805274E+03  0.80576376823E+02 0.  0.
         25    2    1    2    0    0  0.75359690519E+02 -0.30113819127E+02 -0.10748924828E+03  0.18383791980E+03  0.12512600530E+03 0.  0.
         24    2    1    2    0    0 -0.24225953160E+02 -0.62693914471E+02  0.55786912035E+03  0.56778092135E+03  0.81484940242E+02 0.  0.
        -13    1    5    5    0    0 -0.58516080877E+01 -0.63663252326E+02  0.53312928183E+03  0.53694886364E+03  0.00000000000E+00 0.  1.
         14    1    5    5    0    0 -0.18374345072E+02  0.96933785449E+00  0.24739838519E+02  0.30832057711E+02  0.00000000000E+00 0. -1.
         11    1    3    3    0    0 -0.15133986900E+02  0.87798307952E+02 -0.48638940078E+03  0.49448177887E+03  0.00000000000E+00 0. -1.
        -12    1    3    3    0    0 -0.35999750459E+02  0.50094256461E+01 -0.89626788701E+02  0.96716273870E+02  0.00000000000E+00 0.  1.
          5    1    4    4  501    0  0.48130392929E+02 -0.57941188286E+02 -0.67324178479E+01  0.75739777353E+02  0.41800000000E+01 0. -1.
         -5    1    4    4    0  501  0.27229297590E+02  0.27827369159E+02 -0.10075683043E+03  0.10809814244E+03  0.41800000000E+01 0. -1.
</event>
<event>
11    1  0.8041700E-009  0.1419964E+03  0.7561462E-02  0.1105349E+00
         22   -1    0    0    0    0  0.00000000000E+00  0.00000000000E+00  0.21760811184E+03  0.21760811184E+03  0.00000000000E+00 0.  1.
         22   -1    0    0    0    0 -0.00000000000E+00 -0.00000000000E+00 -0.16676223574E+04  0.16676223574E+04  0.00000000000E+00 0. -1.
        -24    2    1    2    0    0 -0.17054398812E+02  0.39338163976E+02 -0.14682471682E+04  0.14710752749E+04  0.80463493180E+02 0.  0.
         25    2    1    2    0    0  0.82381605654E+02 -0.27395081905E+02 -0.15176046853E+03  0.21497950758E+03  0.12509088459E+03 0.  0.
         24    2    1    2    0    0 -0.65327206842E+02 -0.11943082071E+02  0.16999339123E+03  0.19917568674E+03  0.79767913123E+02 0.  0.
        -13    1    5    5    0    0 -0.39570099424E+02  0.38438364003E+01  0.16351496721E+03  0.16827867467E+03  0.00000000000E+00 0.  1.
         14    1    5    5    0    0 -0.25757107418E+02 -0.15786918471E+02  0.64784240230E+01  0.30897012076E+02  0.00000000000E+00 0. -1.
         11    1    3    3    0    0 -0.45748965083E+01  0.62088216151E+02 -0.84616288259E+03  0.84845005754E+03  0.00000000000E+00 0. -1.
        -12    1    3    3    0    0 -0.12479502304E+02 -0.22750052175E+02 -0.62208428562E+03  0.62262521734E+03  0.00000000000E+00 0.  1.
          5    1    4    4  501    0  0.10324554008E+03 -0.25126845861E+02 -0.15994388245E+03  0.19206904452E+03  0.41800000000E+01 0.  1.
         -5    1    4    4    0  501 -0.20863934423E+02 -0.22682360442E+01  0.81834139169E+01  0.22910463061E+02  0.41800000000E+01 0.  1.
</event>
<event>
11    1  0.8041700E-009  0.1976292E+03  0.7561462E-02  0.1056213E+00
         22   -1    0    0    0    0  0.00000000000E+00  0.00000000000E+00  0.17852486435E+04  0.17852486435E+04  0.00000000000E+00 0.  1.
         22   -1    0    0    0    0 -0.00000000000E+00 -0.00000000000E+00 -0.10777259828E+04  0.10777259828E+04  0.00000000000E+00 0. -1.
         24    2    1    2    0    0  0.71133386637E+02 -0.19851138127E+02 -0.10219689422E+04  0.10277156888E+04  0.79529816801E+02 0.  0.
         25    2    1    2    0    0  0.75507642349E+02  0.79454189402E+02  0.95879875793E+02  0.19197481273E+03  0.12508799252E+03 0.  0.
        -24    2    1    2    0    0 -0.14664102899E+03 -0.59603051275E+02  0.16336117271E+04  0.16432841248E+04  0.81482051635E+02 0.  0.
        -11    1    3    3    0    0  0.24161823971E+02  0.30988339849E+02 -0.36074132589E+03  0.36287515091E+03  0.00000000000E+00 0.  1.
         12    1    3    3    0    0  0.46971562666E+02 -0.50839477976E+02 -0.66122761634E+03  0.66484053789E+03  0.00000000000E+00 0. -1.
         11    1    5    5    0    0 -0.74850401034E+02 -0.50054708453E+02  0.55625814418E+03  0.56349904999E+03  0.00000000000E+00 0. -1.
        -12    1    5    5    0    0 -0.71790627952E+02 -0.95483428216E+01  0.10773535830E+04  0.10797850748E+04  0.00000000000E+00 0.  1.
          5    1    4    4  501    0  0.27326407759E+02  0.79518484284E+02  0.11278739324E+03  0.14074228354E+03  0.41800000000E+01 0. -1.
         -5    1    4    4    0  501  0.48181234590E+02 -0.64294882887E-01 -0.16907517443E+02  0.51232529183E+02  0.41800000000E+01 0. -1.
</event>
<event>
11    1  0.8041700E-009  0.1519839E+03  0.7561462E-02  0.1094869E+00
         22   -1    0    0    0    0  0.00000000000E+00  0.00000000000E+00  0.12309929307E+03  0.12309929307E+03  0.00000000000E+00 0. -1.
         22   -1    0    0    0    0 -0.00000000000E+00 -0.00000000000E+00 -0.70911007272E+03  0.70911007272E+03  0.00000000000E+00 0. -1.
         24    2    1    2    0    0  0.76874826517E+02 -0.38889815952E+02 -0.43013188943E+03  0.44600797884E+03  0.80545131134E+02 0.  0.
         25    2    1    2    0    0 -0.10111322866E+03 -0.18611787483E+02 -0.21217874522E+03  0.26690418890E+03  0.12509093686E+03 0.  0.
        -24    2    1    2    0    0  0.24238402145E+02  0.57501603436E+02  0.56299854998E+02  0.11929719805E+03  0.84665301358E+02 0.  0.
        -11    1    3    3    0    0  0.17230632245E+02 -0.52273777560E+02 -0.16567774232E+03  0.17458108949E+03  0.00000000000E+00 0.  1.
         12    1    3    3    0    0  0.59644194272E+02  0.13383961608E+02 -0.26445414711E+03  0.27142688935E+03  0.00000000000E+00 0. -1.
         13    1    5    5    0    0  0.49253351433E+02  0.15640558429E+02  0.11206883271E+02  0.52878293543E+02  0.00000000000E+00 0. -1.
        -14    1    5    5    0    0 -0.25014949289E+02  0.41861045007E+02  0.45092971727E+02  0.66418904509E+02  0.00000000000E+00 0.  1.
          5    1    4    4  501    0 -0.70167454480E+01 -0.14488213805E+02 -0.15656125861E+03  0.15744218988E+03  0.41800000000E+01 0. -1.
         -5    1    4    4    0  501 -0.94096483214E+02 -0.41235736783E+01 -0.55617486612E+02  0.10946199902E+03  0.41800000000E+01 0. -1.
</event>
<event>
11    1  0.1201880E-008  0.1715182E+03  0.7561462E-02  0.1076718E+00
         22   -1    0    0    0    0  0.00000000000E+00  0.00000000000E+00  0.15070580137E+04  0.15070580137E+04  0.00000000000E+00 0.  1.
         22   -1    0    0    0    0 -0.00000000000E+00 -0.00000000000E+00 -0.69984786156E+03  0.69984786156E+03  0.00000000000E+00 0. -1.
         24    2    1    2    0    0  0.27750880848E+02 -0.11297240982E+03 -0.57433892697E+03  0.59150763185E+03  0.80518313047E+02 0.  0.
         25    2    1    2    0    0  0.50149760294E+02  0.14042597307E+03 -0.31902069836E+02  0.19723245988E+03  0.12509376004E+03 0.  0.
        -24    2    1    2    0    0 -0.77900641142E+02 -0.27453563254E+02  0.14134511489E+04  0.14181657835E+04  0.80794994354E+02 0.  0.
        -11    1    3    3    0    0  0.34808955596E+02 -0.76678356191E+01 -0.12902400169E+03  0.13385683436E+03  0.00000000000E+00 0.  1.
         12    1    3    3    0    0 -0.70580747477E+01 -0.10530457420E+03 -0.44531492528E+03  0.45765079749E+03  0.00000000000E+00 0. -1.
         11    1    5    5    0    0 -0.30393368681E+02  0.10265245414E+02  0.15662320705E+03  0.15987482951E+03  0.00000000000E+00 0. -1.
        -12    1    5    5    0    0 -0.47507272461E+02 -0.37718808668E+02  0.12568279418E+04  0.12582909540E+04  0.00000000000E+00 0.  1.
          5    1    4    4  501    0  0.61739114740E+02  0.64717907209E+02 -0.68023314926E+02  0.11244896432E+03  0.41800000000E+01 0.  1.
         -5    1    4    4    0  501 -0.11589354446E+02  0.75708065864E+02  0.36121245090E+02  0.84783495564E+02  0.41800000000E+01 0.  1.
</event>
<event>
11    1  0.8041700E-009  0.1351941E+03  0.7561462E-02  0.1113047E+00
         22   -1    0    0    0    0  0.00000000000E+00  0.00000000000E+00  0.16724276417E+03  0.16724276417E+03  0.00000000000E+00 0. -1.
         22   -1    0    0    0    0 -0.00000000000E+00 -0.00000000000E+00 -0.12032598605E+04  0.12032598605E+04  0.00000000000E+00 0. -1.
        -24    2    1    2    0    0  0.45172657786E+02  0.34157778767E+02 -0.10715822288E+04  0.10784443374E+04  0.10745414374E+03 0.  0.
         25    2    1    2    0    0  0.14094960546E+01  0.71972758845E+01 -0.71591269530E+02  0.14431506997E+03  0.12509093527E+03 0.  0.
         24    2    1    2    0    0 -0.46582153840E+02 -0.41355054651E+02  0.10715640199E+03  0.14774321728E+03  0.80407873758E+02 0.  0.
        -13    1    5    5    0    0 -0.24120452171E+02  0.99206108411E+01 -0.84660124991E+00  0.26094663555E+02  0.00000000000E+00 0.  1.
         14    1    5    5    0    0 -0.22461701670E+02 -0.51275665492E+02  0.10800300324E+03  0.12164855372E+03  0.00000000000E+00 0. -1.
         11    1    3    3    0    0  0.64687214558E+02  0.56588078572E+02 -0.91773960024E+03  0.92175518453E+03  0.00000000000E+00 0. -1.
        -12    1    3    3    0    0 -0.19514556772E+02 -0.22430299805E+02 -0.15384262852E+03  0.15668915287E+03  0.00000000000E+00 0.  1.
          5    1    4    4  501    0 -0.10522879007E+01 -0.46439518861E+02 -0.77172453471E+02  0.90170927669E+02  0.41800000000E+01 0.  1.
         -5    1    4    4    0  501  0.24617839553E+01  0.53636794746E+02  0.55811839413E+01  0.54144142297E+02  0.41800000000E+01 0.  1.
</event>
<event>
11    1  0.8041700E-009  0.1731280E+03  0.7561462E-02  0.1075341E+00
         22   -1    0    0    0    0  0.00000000000E+00  0.00000000000E+00  0.86603705992E+03  0.86603705992E+03  0.00000000000E+00 0. -1.
         22   -1    0    0    0    0 -0.00000000000E+00 -0.00000000000E+00 -0.11508730240E+04  0.11508730240E+04  0.00000000000E+00 0.  1.
         24    2    1    2    0    0 -0.98147115896E+02 -0.68009272293E+02 -0.10694084016E+04  0.10790917982E+04  0.80911445280E+02 0.  0.
         25    2    1    2    0    0  0.46236298384E+02  0.15642271006E+03  0.78263487549E+02  0.21995020640E+03  0.12508821007E+03 0.  0.
        -24    2    1    2    0    0  0.51910817512E+02 -0.88413437771E+02  0.70630895004E+03  0.71786807928E+03  0.77139985684E+02 0.  0.
        -13    1    3    3    0    0 -0.90128142288E+02 -0.43894461358E+02 -0.10028276162E+04  0.10078258944E+04  0.00000000000E+00 0.  1.
         14    1    3    3    0    0 -0.80189736079E+01 -0.24114810935E+02 -0.66580785466E+02  0.71265903751E+02  0.00000000000E+00 0. -1.
         11    1    5    5    0    0 -0.72219176688E+01 -0.35907694941E+02  0.39415618870E+03  0.39585429105E+03  0.00000000000E+00 0. -1.
        -12    1    5    5    0    0  0.59132735181E+02 -0.52505742830E+02  0.31215276134E+03  0.32201378823E+03  0.00000000000E+00 0.  1.
          5    1    4    4  501    0 -0.40989185690E+02  0.66442129120E+02  0.45076253236E+02  0.90244173614E+02  0.41800000000E+01 0.  1.
         -5    1    4    4    0  501  0.87225484074E+02  0.89980580943E+02  0.33187234313E+02  0.12970603278E+03  0.41800000000E+01 0.  1.
</event>
<event>
11    1  0.8041700E-009  0.1561494E+03  0.7561462E-02  0.1090756E+00
         22   -1    0    0    0    0  0.00000000000E+00  0.00000000000E+00  0.20588174684E+04  0.20588174684E+04  0.00000000000E+00 0. -1.
         22   -1    0    0    0    0 -0.00000000000E+00 -0.00000000000E+00 -0.30364575350E+03  0.30364575350E+03  0.00000000000E+00 0.  1.
         24    2    1    2    0    0  0.18895717599E+02 -0.90813020654E+02 -0.27643869607E+03  0.30486314433E+03  0.88989500621E+02 0.  0.
         25    2    1    2    0    0 -0.41674772173E+02  0.12204866498E+03  0.68958330336E+03  0.71260504456E+03  0.12509258170E+03 0.  0.
        -24    2    1    2    0    0  0.22779054574E+02 -0.31235644327E+02  0.13420271077E+04  0.13449950331E+04  0.80500499797E+02 0.  0.
        -11    1    3    3    0    0  0.20450672253E+02 -0.84140737584E+02 -0.28264963826E+03  0.29561581778E+03  0.00000000000E+00 0.  1.
         12    1    3    3    0    0 -0.15549546540E+01 -0.66722830703E+01  0.62109421881E+01  0.92473265440E+01  0.00000000000E+00 0. -1.
         11    1    5    5    0    0  0.14244967206E+02 -0.18137021101E+02  0.12991845754E+04  0.12993892533E+04  0.00000000000E+00 0. -1.
        -12    1    5    5    0    0  0.85340873683E+01 -0.13098623226E+02  0.42842532244E+02  0.45605779751E+02  0.00000000000E+00 0.  1.
          5    1    4    4  501    0  0.42213444798E+02  0.18489104067E+02  0.17001489126E+03  0.17619976601E+03  0.41800000000E+01 0.  1.
         -5    1    4    4    0  501 -0.83888216971E+02  0.10355956091E+03  0.51956841210E+03  0.53640527855E+03  0.41800000000E+01 0.  1.
</event>
<event>
11    1  0.8041700E-009  0.1421102E+03  0.7561462E-02  0.1105225E+00
         22   -1    0    0    0    0  0.00000000000E+00  0.00000000000E+00  0.65738073382E+03  0.65738073382E+03  0.00000000000E+00 0.  1.
         22   -1    0    0    0    0 -0.00000000000E+00 -0.00000000000E+00 -0.14093804201E+04  0.14093804201E+04  0.00000000000E+00 0. -1.
         24    2    1    2    0    0  0.13409542805E+02  0.36515206872E+02 -0.13515467498E+04  0.13545500907E+04  0.81327455477E+02 0.  0.
         25    2    1    2    0    0 -0.76378468157E+02 -0.54111850980E+02  0.67289556818E+02  0.17011460184E+03  0.12509728409E+03 0.  0.
        -24    2    1    2    0    0  0.62968925352E+02  0.17596644108E+02  0.53225750679E+03  0.54209646136E+03  0.79346029787E+02 0.  0.
        -11    1    3    3    0    0 -0.17746070934E+01  0.48239870797E+02 -0.41364772038E+03  0.41645488464E+03  0.00000000000E+00 0.  1.
         12    1    3    3    0    0  0.15184149898E+02 -0.11724663925E+02 -0.93789902947E+03  0.93809520606E+03  0.00000000000E+00 0. -1.
         13    1    5    5    0    0  0.13557973470E+02  0.10629556760E+02  0.16252699296E+02  0.23684517220E+02  0.00000000000E+00 0. -1.
        -14    1    5    5    0    0  0.49410951882E+02  0.69670873484E+01  0.51600480749E+03  0.51841194414E+03  0.00000000000E+00 0.  1.
          5    1    4    4  501    0 -0.54837503240E+01 -0.27654429894E+02  0.87214241350E+02  0.91753121498E+02  0.41800000000E+01 0. -1.
         -5    1    4    4    0  501 -0.70894717833E+02 -0.26457421086E+02 -0.19924684531E+02  0.78361480338E+02  0.41800000000E+01 0. -1.
</event>
<event>
11    1  0.8041700E-009  0.1608473E+03  0.7561462E-02  0.1086283E+00
         22   -1    0    0    0    0  0.00000000000E+00  0.00000000000E+00  0.78610861154E+03  0.78610861154E+03  0.00000000000E+00 0.  1.
         22   -1    0    0    0    0 -0.00000000000E+00 -0.00000000000E+00 -0.83917511566E+03  0.83917511566E+03  0.00000000000E+00 0. -1.
         24    2    1    2    0    0 -0.38972744149E+02  0.78082367267E+02 -0.78263654337E+03  0.79156482681E+03  0.80244533598E+02 0.  0.
         25    2    1    2    0    0  0.12086317294E+03 -0.11573766016E+03  0.20439111125E+03  0.29227751364E+03  0.12508919245E+03 0.  0.
        -24    2    1    2    0    0 -0.81890428788E+02  0.37655292895E+02  0.52517892800E+03  0.54144138675E+03  0.96030752695E+02 0.  0.
        -13    1    3    3    0    0 -0.38902627124E+02  0.81118558276E+02 -0.44950481321E+03  0.45841925352E+03  0.00000000000E+00 0.  1.
         14    1    3    3    0    0 -0.70117024652E-01 -0.30361910083E+01 -0.33313173015E+03  0.33314557329E+03  0.00000000000E+00 0. -1.
         13    1    5    5    0    0 -0.38123569898E+02  0.35483964723E+02  0.89397122120E+02  0.10346189529E+03  0.00000000000E+00 0. -1.
        -14    1    5    5    0    0 -0.43766858890E+02  0.21713281710E+01  0.43578180588E+03  0.43797949146E+03  0.00000000000E+00 0.  1.
          5    1    4    4  501    0  0.10762652026E+03 -0.58380726728E+02  0.19811073043E+03  0.23293155867E+03  0.41800000000E+01 0. -1.
         -5    1    4    4    0  501  0.13236652679E+02 -0.57356933433E+02  0.62803808196E+01  0.59345954961E+02  0.41800000000E+01 0. -1.
</event>
<event>
11    1  0.8041700E-009  0.1547789E+03  0.7561462E-02  0.1092093E+00
         22   -1    0    0    0    0  0.00000000000E+00  0.00000000000E+00  0.34692513064E+03  0.34692513064E+03  0.00000000000E+00 0.  1.
         22   -1    0    0    0    0 -0.00000000000E+00 -0.00000000000E+00 -0.27133564024E+03  0.27133564024E+03  0.00000000000E+00 0.  1.
         24    2    1    2    0    0 -0.65479000619E+02  0.29289068081E+02 -0.16752790577E+03  0.19971640926E+03  0.81704931828E+02 0.  0.
         25    2    1    2    0    0  0.21289038807E+02 -0.10922073468E+03  0.25159499259E+02  0.16930284840E+03  0.12509221405E+03 0.  0.
        -24    2    1    2    0    0  0.44189961812E+02  0.79931666602E+02  0.21795789691E+03  0.24924151321E+03  0.79207720776E+02 0.  0.
        -11    1    3    3    0    0 -0.39557770655E+02  0.53181712608E+02 -0.14031556802E+03  0.15518237788E+03  0.00000000000E+00 0.  1.
         12    1    3    3    0    0 -0.25921229964E+02 -0.23892644527E+02 -0.27212337750E+02  0.44534031382E+02  0.00000000000E+00 0. -1.
         13    1    5    5    0    0  0.22010974453E+02  0.14813595782E+02  0.71279559123E+01  0.27472411103E+02  0.00000000000E+00 0. -1.
        -14    1    5    5    0    0  0.22178987359E+02  0.65118070821E+02  0.21082994100E+03  0.22176910211E+03  0.00000000000E+00 0.  1.
          5    1    4    4  501    0 -0.24729824318E+02 -0.36370207356E+02 -0.41242091973E+02  0.60437891627E+02  0.41800000000E+01 0. -1.
         -5    1    4    4    0  501  0.46018863125E+02 -0.72850527327E+02  0.66401591232E+02  0.10886495677E+03  0.41800000000E+01 0. -1.
</event>
<event>
11    1  0.8041700E-009  0.1944156E+03  0.7561462E-02  0.1058544E+00
         22   -1    0    0    0    0  0.00000000000E+00  0.00000000000E+00  0.10540309978E+04  0.10540309978E+04  0.00000000000E+00 0. -1.
         22   -1    0    0    0    0 -0.00000000000E+00 -0.00000000000E+00 -0.25906217848E+03  0.25906217848E+03  0.00000000000E+00 0. -1.
        -24    2    1    2    0    0 -0.98515801689E+02 -0.11790061904E+03 -0.14614840514E+03  0.22964647494E+03  0.88160240310E+02 0.  0.
         25    2    1    2    0    0 -0.19977792859E+02  0.17096841904E+03  0.11217976797E+03  0.24054350050E+03  0.12509021854E+03 0.  0.
         24    2    1    2    0    0  0.11849359455E+03 -0.53067800000E+02  0.82893745653E+03  0.84290320087E+03  0.80570316269E+02 0.  0.
        -13    1    5    5    0    0  0.27381644881E+02 -0.53008656305E+02  0.26333857966E+03  0.27001273980E+03  0.00000000000E+00 0.  1.
         14    1    5    5    0    0  0.91111949667E+02 -0.59143694557E-01  0.56559887687E+03  0.57289046107E+03  0.00000000000E+00 0. -1.
         13    1    3    3    0    0 -0.77806049118E+02 -0.87038069549E+02 -0.15237948073E+03  0.19196070686E+03  0.00000000000E+00 0. -1.
        -14    1    3    3    0    0 -0.20709752571E+02 -0.30862549491E+02  0.62310755848E+01  0.37685768077E+02  0.00000000000E+00 0.  1.
          5    1    4    4  501    0  0.21717948288E+02  0.71866968635E+01 -0.16135752938E+02  0.28304642950E+02  0.41800000000E+01 0. -1.
         -5    1    4    4    0  501 -0.41695741146E+02  0.16378172218E+03  0.12831552091E+03  0.21223885755E+03  0.41800000000E+01 0. -1.
</event>
<event>
11    1  0.8041700E-009  0.1296546E+03  0.7561462E-02  0.1119694E+00
         22   -1    0    0    0    0  0.00000000000E+00  0.00000000000E+00  0.87957047467E+03  0.87957047467E+03  0.00000000000E+00 0. -1.
         22   -1    0    0    0    0 -0.00000000000E+00 -0.00000000000E+00 -0.47764392750E+03  0.47764392750E+03  0.00000000000E+00 0. -1.
        -24    2    1    2    0    0 -0.16842613918E+02 -0.31633796094E+02 -0.29156020449E+03  0.30651647321E+03  0.87524995344E+02 0.  0.
         25    2    1    2    0    0  0.49691469690E+02 -0.21309923073E+01 -0.15027477385E+03  0.20174629456E+03  0.12508107941E+03 0.  0.
         24    2    1    2    0    0 -0.32848855772E+02  0.33764788401E+02  0.84376152551E+03  0.84895163439E+03  0.81032446301E+02 0.  0.
        -13    1    5    5    0    0  0.59099630190E+01  0.13870493761E+02  0.26187032119E+02  0.30217195622E+02  0.00000000000E+00 0.  1.
         14    1    5    5    0    0 -0.38758818791E+02  0.19894294640E+02  0.81757449339E+03  0.81873443877E+03  0.00000000000E+00 0. -1.
         13    1    3    3    0    0 -0.79588606451E+01 -0.38615945195E+02 -0.29253061105E+03  0.29517569867E+03  0.00000000000E+00 0. -1.
        -14    1    3    3    0    0 -0.88837532731E+01  0.69821491015E+01  0.97040655912E+00  0.11340774541E+02  0.00000000000E+00 0.  1.
          5    1    4    4  501    0 -0.43119074760E+01  0.54865909998E+02 -0.72842124002E+02  0.91390962656E+02  0.41800000000E+01 0.  1.
         -5    1    4    4    0  501  0.54003377166E+02 -0.56996902305E+02 -0.77432649844E+02  0.11035533190E+03  0.41800000000E+01 0.  1.
</event>
<event>
11    1  0.8041700E-009  0.1766177E+03  0.7561462E-02  0.1072412E+00
         22   -1    0    0    0    0  0.00000000000E+00  0.00000000000E+00  0.20802055726E+04  0.20802055726E+04  0.00000000000E+00 0. -1.
         22   -1    0    0    0    0 -0.00000000000E+00 -0.00000000000E+00 -0.40945773308E+03  0.40945773308E+03  0.00000000000E+00 0. -1.
         24    2    1    2    0    0  0.12005596980E+03  0.32285478161E+02 -0.37457504790E+03  0.40307847138E+03  0.81914587161E+02 0.  0.
         25    2    1    2    0    0 -0.13257985095E+03 -0.28186185625E+02  0.41415885003E+03  0.45337626706E+03  0.12510239218E+03 0.  0.
        -24    2    1    2    0    0  0.12523881158E+02 -0.40992925360E+01  0.16311640374E+04  0.16332085673E+04  0.80625401915E+02 0.  0.
        -13    1    3    3    0    0  0.41571293218E+02 -0.24428363952E+02 -0.84760630625E+02  0.97515546910E+02  0.00000000000E+00 0.  1.
         14    1    3    3    0    0  0.78484676579E+02  0.56713842113E+02 -0.28981441728E+03  0.30556292447E+03  0.00000000000E+00 0. -1.
         13    1    5    5    0    0  0.30473992863E+02 -0.11508099445E+01  0.15370600585E+04  0.15373625506E+04  0.00000000000E+00 0. -1.
        -14    1    5    5    0    0 -0.17950111704E+02 -0.29484825915E+01  0.94103978959E+02  0.95846016692E+02  0.00000000000E+00 0.  1.
          5    1    4    4  501    0 -0.79972878178E+02  0.32684271006E+02  0.11706126517E+03  0.14554976818E+03  0.41800000000E+01 0.  1.
         -5    1    4    4    0  501 -0.52606972777E+02 -0.60870456631E+02  0.29709758487E+03  0.30782649887E+03  0.41800000000E+01 0.  1.
</event>
<event>
11    1  0.8041700E-009  0.1548751E+03  0.7561462E-02  0.1091999E+00
         22   -1    0    0    0    0  0.00000000000E+00  0.00000000000E+00  0.22018172381E+03  0.22018172381E+03  0.00000000000E+00 0.  1.
         22   -1    0    0    0    0 -0.00000000000E+00 -0.00000000000E+00 -0.80756509315E+03  0.80756509315E+03  0.00000000000E+00 0. -1.
        -24    2    1    2    0    0 -0.87464897435E+02  0.12287648922E+02 -0.65194578973E+03  0.66299024499E+03  0.81985715837E+02 0.  0.
         25    2    1    2    0    0  0.12458352190E+03  0.37201145682E+01 -0.74188871065E+02  0.19153924558E+03  0.12509356828E+03 0.  0.
         24    2    1    2    0    0 -0.37118624467E+02 -0.16007763490E+02  0.13875129145E+03  0.17321732639E+03  0.95489687974E+02 0.  0.
        -13    1    5    5    0    0 -0.12027789173E+02 -0.47350807855E+02  0.11865637355E+03  0.12832030899E+03  0.00000000000E+00 0.  1.
         14    1    5    5    0    0 -0.25090835293E+02  0.31343044365E+02  0.20094917902E+02  0.44897017398E+02  0.00000000000E+00 0. -1.
         11    1    3    3    0    0 -0.93412820908E+02 -0.12381091212E+02 -0.47754167731E+03  0.48674973045E+03  0.00000000000E+00 0. -1.
        -12    1    3    3    0    0  0.59479234734E+01  0.24668740134E+02 -0.17440411242E+03  0.17624051453E+03  0.00000000000E+00 0.  1.
          5    1    4    4  501    0  0.12064003614E+03  0.36281320769E+01 -0.37074020325E+01  0.12082383412E+03  0.41800000000E+01 0.  1.
         -5    1    4    4    0  501  0.39434857619E+01  0.91982491244E-01 -0.70481469033E+02  0.70715411458E+02  0.41800000000E+01 0.  1.
</event>
<event>
11    1  0.8041700E-009  0.3192337E+03  0.7561462E-02  0.9923644E-01
         22   -1    0    0    0    0  0.00000000000E+00  0.00000000000E+00  0.10108714320E+04  0.10108714320E+04  0.00000000000E+00 0. -1.
         22   -1    0    0    0    0 -0.00000000000E+00 -0.00000000000E+00 -0.93252529234E+03  0.93252529234E+03  0.00000000000E+00 0.  1.
        -24    2    1    2    0    0  0.24572875507E+03  0.16299265187E+03 -0.86210741826E+03  0.91481587944E+03  0.81912557199E+02 0.  0.
         25    2    1    2    0    0 -0.26085196912E+03 -0.81099727047E+02  0.66491656431E+03  0.72964939332E+03  0.12511308547E+03 0.  0.
         24    2    1    2    0    0  0.15123214057E+02 -0.81892924824E+02  0.27553699361E+03  0.29893145158E+03  0.80648714546E+02 0.  0.
        -13    1    5    5    0    0  0.22154272441E+02 -0.52466715213E+02  0.65802550492E+02  0.87026108978E+02  0.00000000000E+00 0.  1.
         14    1    5    5    0    0 -0.70310583837E+01 -0.29426209610E+02  0.20973444312E+03  0.21190534261E+03  0.00000000000E+00 0. -1.
         11    1    3    3    0    0 -0.43117085105E+01  0.95944974707E+01 -0.14733187129E+02  0.18102817874E+02  0.00000000000E+00 0. -1.
        -12    1    3    3    0    0  0.25004046358E+03  0.15339815440E+03 -0.84737423113E+03  0.89671306157E+03  0.00000000000E+00 0.  1.
          5    1    4    4  501    0 -0.96829801248E+02  0.29216670722E+02  0.26089493011E+03  0.27984506645E+03  0.41800000000E+01 0.  1.
         -5    1    4    4    0  501 -0.16402216788E+03 -0.11031639777E+03  0.40402163421E+03  0.44980432688E+03  0.41800000000E+01 0.  1.
</event>
<event>
11    1  0.8041700E-009  0.1508696E+03  0.7561462E-02  0.1095994E+00
         22   -1    0    0    0    0  0.00000000000E+00  0.00000000000E+00  0.27446221966E+03  0.27446221966E+03  0.00000000000E+00 0. -1.
         22   -1    0    0    0    0 -0.00000000000E+00 -0.00000000000E+00 -0.68344019639E+03  0.68344019639E+03  0.00000000000E+00 0. -1.
         24    2    1    2    0    0  0.74423281738E+02 -0.36148344192E+02 -0.50988113097E+03  0.52316574151E+03  0.82934297627E+02 0.  0.
         25    2    1    2    0    0 -0.64628960739E+02  0.79072230416E+02 -0.11633607801E+03  0.19903427611E+03  0.12510491529E+03 0.  0.
        -24    2    1    2    0    0 -0.97943209991E+01 -0.42923886224E+02  0.21723923225E+03  0.23570239844E+03  0.80152029726E+02 0.  0.
        -13    1    3    3    0    0 -0.13975187953E+02 -0.23246394943E+02 -0.96346331270E+02  0.10009153963E+03  0.00000000000E+00 0.  1.
         14    1    3    3    0    0  0.88398469690E+02 -0.12901949249E+02 -0.41353479970E+03  0.42307420188E+03  0.00000000000E+00 0. -1.
         11    1    5    5    0    0  0.35026418699E+01  0.12480501439E+02  0.13518858983E+03  0.13580863829E+03  0.00000000000E+00 0. -1.
        -12    1    5    5    0    0 -0.13296962869E+02 -0.55404387663E+02  0.82050642425E+02  0.99893760146E+02  0.00000000000E+00 0.  1.
          5    1    4    4  501    0  0.30502126901E+02  0.10730674890E+01 -0.51248376482E+02  0.59794646176E+02  0.41800000000E+01 0.  1.
         -5    1    4    4    0  501 -0.95131087639E+02  0.77999162927E+02 -0.65087701529E+02  0.13923962993E+03  0.41800000000E+01 0.  1.
</event>
<event>
11    1  0.8041700E-009  0.1465894E+03  0.7561462E-02  0.1100416E+00
         22   -1    0    0    0    0  0.00000000000E+00  0.00000000000E+00  0.18180264956E+04  0.18180264956E+04  0.00000000000E+00 0.  1.
         22   -1    0    0    0    0 -0.00000000000E+00 -0.00000000000E+00 -0.30872674289E+03  0.30872674289E+03  0.00000000000E+00 0. -1.
        -24    2    1    2    0    0 -0.77171767505E+02 -0.61388076264E+01 -0.27021703449E+03  0.29240484968E+03  0.80561676545E+02 0.  0.
         25    2    1    2    0    0  0.60934293049E+02 -0.11155514746E+02  0.15860862846E+03  0.21128525863E+03  0.12508928776E+03 0.  0.
         24    2    1    2    0    0  0.16237474456E+02  0.17294322373E+02  0.16209081587E+04  0.16230631301E+04  0.80174287098E+02 0.  0.
        -11    1    5    5    0    0  0.71026236899E+01  0.26994968848E+02  0.15753270509E+04  0.15755743375E+04  0.00000000000E+00 0.  1.
         12    1    5    5    0    0  0.91348507665E+01 -0.97006464752E+01  0.45581107805E+02  0.47488792670E+02  0.00000000000E+00 0. -1.
         11    1    3    3    0    0 -0.89936810775E+02  0.24116960397E+01 -0.25645418424E+03  0.27177784094E+03  0.00000000000E+00 0. -1.
        -12    1    3    3    0    0  0.12765043270E+02 -0.85505036661E+01 -0.13762850253E+02  0.20627008744E+02  0.00000000000E+00 0.  1.
          5    1    4    4  501    0  0.61870803482E+02 -0.61568566928E+02  0.11538895761E+03  0.14474380365E+03  0.41800000000E+01 0. -1.
         -5    1    4    4    0  501 -0.93651043319E+00  0.50413052182E+02  0.43219670848E+02  0.66541454975E+02  0.41800000000E+01 0. -1.
</event>
<event>
11    1  0.8041700E-009  0.1274059E+03  0.7561462E-02  0.1122498E+00
         22   -1    0    0    0    0  0.00000000000E+00  0.00000000000E+00  0.16567536689E+03  0.16567536689E+03  0.00000000000E+00 0. -1.
         22   -1    0    0    0    0 -0.00000000000E+00 -0.00000000000E+00 -0.15233202057E+04  0.15233202057E+04  0.00000000000E+00 0. -1.
        -24    2    1    2    0    0 -0.21961618369E+02  0.15357610659E+01 -0.12194843692E+04  0.12223458379E+04  0.80638387820E+02 0.  0.
         25    2    1    2    0    0 -0.27274599373E+01 -0.56686820577E+01 -0.27707778337E+03  0.30406987890E+03  0.12508725045E+03 0.  0.
         24    2    1    2    0    0  0.24689078306E+02  0.41329209918E+01  0.13891731376E+03  0.16257985573E+03  0.80669435377E+02 0.  0.
        -13    1    5    5    0    0 -0.96497911490E+01  0.32662744484E+02  0.32071330174E+02  0.46781872190E+02  0.00000000000E+00 0.  1.
         14    1    5    5    0    0  0.34338869455E+02 -0.28529823492E+02  0.10684598359E+03  0.11579798354E+03  0.00000000000E+00 0. -1.
         13    1    3    3    0    0 -0.33233604119E+02  0.22561566797E+02 -0.10862509131E+04  0.10869933500E+04  0.00000000000E+00 0. -1.
        -14    1    3    3    0    0  0.11271985750E+02 -0.21025805731E+02 -0.13323345605E+03  0.13535248790E+03  0.00000000000E+00 0.  1.
          5    1    4    4  501    0 -0.61122157229E+02 -0.14973812869E+02 -0.11013159081E+03  0.12691167350E+03  0.41800000000E+01 0.  1.
         -5    1    4    4    0  501  0.58394697292E+02  0.93051308113E+01 -0.16694619256E+03  0.17715820540E+03  0.41800000000E+01 0.  1.
</event>
<event>
11    1  0.8041700E-009  0.2892538E+03  0.7561462E-02  0.1004845E+00
         22   -1    0    0    0    0  0.00000000000E+00  0.00000000000E+00  0.11830319468E+04  0.11830319468E+04  0.00000000000E+00 0. -1.
         22   -1    0    0    0    0 -0.00000000000E+00 -0.00000000000E+00 -0.20168547972E+04  0.20168547972E+04  0.00000000000E+00 0. -1.
        -24    2    1    2    0    0  0.10288743830E+02  0.14790514527E+03 -0.16124452677E+04  0.16219237485E+04  0.93140294453E+02 0.  0.
         25    2    1    2    0    0 -0.25320007205E+03 -0.47882501240E+02 -0.32936801506E+03  0.43650277658E+03  0.12509346191E+03 0.  0.
         24    2    1    2    0    0  0.24291132822E+03 -0.10002264403E+03  0.11079904324E+04  0.11414602189E+04  0.79235033407E+02 0.  0.
        -13    1    5    5    0    0  0.10301772122E+02  0.24507616338E+01  0.14835950050E+03  0.14873692928E+03  0.00000000000E+00 0.  1.
         14    1    5    5    0    0  0.23260955609E+03 -0.10247340566E+03  0.95963093186E+03  0.99272328967E+03  0.00000000000E+00 0. -1.
         13    1    3    3    0    0  0.32435358240E+02  0.73461951534E+02 -0.11668757900E+04  0.11696357638E+04  0.00000000000E+00 0. -1.
        -14    1    3    3    0    0 -0.22146614410E+02  0.74443193735E+02 -0.44556947772E+03  0.45228798469E+03  0.00000000000E+00 0.  1.
          5    1    4    4  501    0 -0.72583125477E+02  0.98513816955E+01 -0.18226325957E+03  0.19647576953E+03  0.41800000000E+01 0.  1.
         -5    1    4    4    0  501 -0.18061694657E+03 -0.57733882936E+02 -0.14710475549E+03  0.24002700705E+03  0.41800000000E+01 0.  1.
</event>
<event>
11    1  0.8041700E-009  0.1378745E+03  0.7561462E-02  0.1109955E+00
         22   -1    0    0    0    0  0.00000000000E+00  0.00000000000E+00  0.59891700841E+03  0.59891700841E+03  0.00000000000E+00 0.  1.
         22   -1    0    0    0    0 -0.00000000000E+00 -0.00000000000E+00 -0.87652195707E+03  0.87652195707E+03  0.00000000000E+00 0.  1.
        -24    2    1    2    0    0 -0.81895255529E+01  0.38618851147E+02 -0.70611644200E+03  0.71220031527E+03  0.84085524384E+02 0.  0.
         25    2    1    2    0    0 -0.90081241712E+01 -0.92956455600E+02 -0.12515329366E+03  0.20008552452E+03  0.12509524879E+03 0.  0.
         24    2    1    2    0    0  0.17197649724E+02  0.54337604453E+02  0.55366478700E+03  0.56315312569E+03  0.85722880238E+02 0.  0.
        -13    1    5    5    0    0 -0.55564124157E+01  0.30366478334E+02  0.49385450076E+03  0.49481841583E+03  0.00000000000E+00 0.  1.
         14    1    5    5    0    0  0.22754062140E+02  0.23971126119E+02  0.59810286244E+02  0.68334709862E+02  0.00000000000E+00 0. -1.
         11    1    3    3    0    0 -0.35405715473E+02 -0.60306978977E+01 -0.18404153492E+03  0.18751325441E+03  0.00000000000E+00 0. -1.
        -12    1    3    3    0    0  0.27216189920E+02  0.44649549045E+02 -0.52207490709E+03  0.52468706086E+03  0.00000000000E+00 0.  1.
          5    1    4    4  501    0 -0.52915745840E+02 -0.90280426917E+02 -0.11339947458E+03  0.15436173385E+03  0.41800000000E+01 0. -1.
         -5    1    4    4    0  501  0.43907621668E+02 -0.26760286836E+01 -0.11753819079E+02  0.45723790668E+02  0.41800000000E+01 0. -1.
</event>
<event>
11    1  0.8041700E-009  0.1781783E+03  0.7561462E-02  0.1071126E+00
         22   -1    0    0    0    0  0.00000000000E+00  0.00000000000E+00  0.53698801855E+02  0.53698801855E+02  0.00000000000E+00 0. -1.
         22   -1    0    0    0    0 -0.00000000000E+00 -0.00000000000E+00 -0.20757044290E+04  0.20757044290E+04  0.00000000000E+00 0. -1.
         24    2    1    2    0    0  0.40235407672E+01  0.46692868809E+02 -0.14992801807E+04  0.15022805803E+04  0.82519505548E+02 0.  0.
         25    2    1    2    0    0  0.12037521991E+03 -0.62441357869E+02 -0.36854892873E+03  0.41214645438E+03  0.12508904928E+03 0.  0.
        -24    2    1    2    0    0 -0.12439876068E+03  0.15748489060E+02 -0.15417651777E+03  0.21497619624E+03  0.81983533414E+02 0.  0.
        -13    1    3    3    0    0 -0.16674150372E+02 -0.45346257377E+01 -0.76469150515E+02  0.78397200854E+02  0.00000000000E+00 0.  1.
         14    1    3    3    0    0  0.20697691140E+02  0.51227494546E+02 -0.14228110302E+04  0.14238833794E+04  0.00000000000E+00 0. -1.
         13    1    5    5    0    0 -0.67445716508E+02  0.39550086887E+02 -0.46802637336E+02  0.91124205948E+02  0.00000000000E+00 0. -1.
        -14    1    5    5    0    0 -0.56953044172E+02 -0.23801597827E+02 -0.10737388043E+03  0.12385199029E+03  0.00000000000E+00 0.  1.
          5    1    4    4  501    0  0.30855940035E+02 -0.79385987514E+02 -0.23864149411E+03  0.25341953192E+03  0.41800000000E+01 0. -1.
         -5    1    4    4    0  501  0.89519279878E+02  0.16944629645E+02 -0.12990743462E+03  0.15872692246E+03  0.41800000000E+01 0. -1.
</event>
<event>
11    1  0.8041700E-009  0.1407447E+03  0.7561462E-02  0.1106730E+00
         22   -1    0    0    0    0  0.00000000000E+00  0.00000000000E+00  0.60768780795E+03  0.60768780795E+03  0.00000000000E+00 0. -1.
         22   -1    0    0    0    0 -0.00000000000E+00 -0.00000000000E+00 -0.19244268690E+03  0.19244268690E+03  0.00000000000E+00 0. -1.
        -24    2    1    2    0    0 -0.52792664104E+02 -0.21594721425E+02 -0.87524372165E+02  0.13275000686E+03  0.81906356421E+02 0.  0.
         25    2    1    2    0    0  0.44935546544E+02 -0.44106526465E+02 -0.13604591318E+02  0.14070240458E+03  0.12508993856E+03 0.  0.
         24    2    1    2    0    0  0.78571175592E+01  0.65701247890E+02  0.51637408453E+03  0.52667808341E+03  0.79807393709E+02 0.  0.
        -13    1    5    5    0    0  0.13789580909E+02  0.76901008367E+01  0.14529447407E+02  0.21456817902E+02  0.00000000000E+00 0.  1.
         14    1    5    5    0    0 -0.59324633500E+01  0.58011147053E+02  0.50184463713E+03  0.50522126550E+03  0.00000000000E+00 0. -1.
         11    1    3    3    0    0 -0.33615224449E+02  0.46526178778E+01 -0.93705058580E+02  0.99660765456E+02  0.00000000000E+00 0. -1.
        -12    1    3    3    0    0 -0.19177439654E+02 -0.26247339303E+02  0.61806864151E+01  0.33089241405E+02  0.00000000000E+00 0.  1.
          5    1    4    4  501    0  0.81830661339E+02 -0.35752879357E+02  0.18047273382E+02  0.91201436359E+02  0.41800000000E+01 0. -1.
         -5    1    4    4    0  501 -0.36895114794E+02 -0.83536471079E+01 -0.31651864700E+02  0.49500968220E+02  0.41800000000E+01 0. -1.
</event>
<event>
11    1  0.8041700E-009  0.1399872E+03  0.7561462E-02  0.1107573E+00
         22   -1    0    0    0    0  0.00000000000E+00  0.00000000000E+00  0.55898963823E+03  0.55898963823E+03  0.00000000000E+00 0. -1.
         22   -1    0    0    0    0 -0.00000000000E+00 -0.00000000000E+00 -0.45984429957E+03  0.45984429957E+03  0.00000000000E+00 0. -1.
         24    2    1    2    0    0 -0.40901207882E+02  0.11558062895E+02 -0.35761375763E+03  0.36914634992E+03  0.81085944480E+02 0.  0.
         25    2    1    2    0    0 -0.22272242892E+02 -0.25828635301E+02 -0.45517870249E+02  0.13741444706E+03  0.12509069727E+03 0.  0.
        -24    2    1    2    0    0  0.63173450774E+02  0.14270572406E+02  0.50227696654E+03  0.51227314081E+03  0.77117349315E+02 0.  0.
        -11    1    3    3    0    0 -0.27923056809E+02  0.41000615985E+00 -0.29627967706E+02  0.40714637134E+02  0.00000000000E+00 0.  1.
         12    1    3    3    0    0 -0.12978151073E+02  0.11148056735E+02 -0.32798578992E+03  0.32843171279E+03  0.00000000000E+00 0. -1.
         11    1    5    5    0    0  0.80268046194E+02  0.11228994382E+02  0.44844138388E+03  0.45570684034E+03  0.00000000000E+00 0. -1.
        -12    1    5    5    0    0 -0.17094595419E+02  0.30415780238E+01  0.53835582657E+02  0.56566300475E+02  0.00000000000E+00 0.  1.
          5    1    4    4  501    0 -0.52045201834E+01  0.14051199975E+01  0.42798507086E+02  0.43338735576E+02  0.41800000000E+01 0. -1.
         -5    1    4    4    0  501 -0.17067722709E+02 -0.27233755298E+02 -0.88316377335E+02  0.94075711486E+02  0.41800000000E+01 0. -1.
</event>
<event>
11    1  0.8041700E-009  0.1289951E+03  0.7561462E-02  0.1120510E+00
         22   -1    0    0    0    0  0.00000000000E+00  0.00000000000E+00  0.83810626698E+02  0.83810626698E+02  0.00000000000E+00 0.  1.
         22   -1    0    0    0    0 -0.00000000000E+00 -0.00000000000E+00 -0.10252031565E+04  0.10252031565E+04  0.00000000000E+00 0. -1.
        -24    2    1    2    0    0  0.71110879053E+01  0.28393670670E+02 -0.74830755707E+03  0.75308707534E+03  0.79493238454E+02 0.  0.
         25    2    1    2    0    0 -0.40176625856E+01 -0.49716973589E+02 -0.22944457223E+03  0.26603512434E+03  0.12506780793E+03 0.  0.
         24    2    1    2    0    0 -0.30934253197E+01  0.21323302919E+02  0.36359599506E+02  0.89891583517E+02  0.79336144243E+02 0.  0.
        -13    1    5    5    0    0 -0.27928885796E+02  0.41588329117E+02  0.20495365284E+02  0.54126442509E+02  0.00000000000E+00 0.  1.
         14    1    5    5    0    0  0.24835460476E+02 -0.20265026198E+02  0.15864234222E+02  0.35765141008E+02  0.00000000000E+00 0. -1.
         13    1    3    3    0    0  0.23552292371E+02  0.51323000722E+02 -0.48992084577E+03  0.49316447155E+03  0.00000000000E+00 0. -1.
        -14    1    3    3    0    0 -0.16441204466E+02 -0.22929330051E+02 -0.25838671130E+03  0.25992260378E+03  0.00000000000E+00 0.  1.
          5    1    4    4  501    0  0.33257567334E+02 -0.54286898933E+02 -0.21710418263E+03  0.22628484637E+03  0.41800000000E+01 0.  1.
         -5    1    4    4    0  501 -0.37275229920E+02  0.45699253439E+01 -0.12340389600E+02  0.39750277970E+02  0.41800000000E+01 0.  1.
</event>
<event>
11    1  0.8041700E-009  0.1566845E+03  0.7561462E-02  0.1090238E+00
         22   -1    0    0    0    0  0.00000000000E+00  0.00000000000E+00  0.35866468226E+04  0.35866468226E+04  0.00000000000E+00 0. -1.
         22   -1    0    0    0    0 -0.00000000000E+00 -0.00000000000E+00 -0.89717949228E+03  0.89717949228E+03  0.00000000000E+00 0.  1.
         24    2    1    2    0    0 -0.18196835703E+02  0.92351664704E+02 -0.88182802365E+03  0.89068870208E+03  0.82739022900E+02 0.  0.
         25    2    1    2    0    0  0.31722537000E+01 -0.13919424685E+03  0.85775658915E+03  0.87794096007E+03  0.12509540997E+03 0.  0.
        -24    2    1    2    0    0  0.15024582003E+02  0.46842582145E+02  0.27135387648E+04  0.27151966527E+04  0.81118858513E+02 0.  0.
        -13    1    3    3    0    0 -0.91377623788E+01  0.10731491141E+03 -0.77190521761E+03  0.77938286733E+03  0.00000000000E+00 0.  1.
         14    1    3    3    0    0 -0.90590733239E+01 -0.14963246704E+02 -0.10992280604E+03  0.11130583475E+03  0.00000000000E+00 0. -1.
         13    1    5    5    0    0  0.10076252855E+02  0.69731801740E+02  0.21927701693E+04  0.21939017915E+04  0.00000000000E+00 0. -1.
        -14    1    5    5    0    0  0.49483291480E+01 -0.22889219595E+02  0.52076859552E+03  0.52129486129E+03  0.00000000000E+00 0.  1.
          5    1    4    4  501    0 -0.62083792036E+00 -0.14975530068E+03  0.55255720322E+03  0.57250674298E+03  0.41800000000E+01 0.  1.
         -5    1    4    4    0  501  0.37930916204E+01  0.10561053835E+02  0.30519938593E+03  0.30543421709E+03  0.41800000000E+01 0.  1.
</event>
<event>
11    1  0.8041700E-009  0.2052297E+03  0.7561462E-02  0.1050886E+00
         22   -1    0    0    0    0  0.00000000000E+00  0.00000000000E+00  0.17366644650E+04  0.17366644650E+04  0.00000000000E+00 0. -1.
         22   -1    0    0    0    0 -0.00000000000E+00 -0.00000000000E+00 -0.28210100944E+03  0.28210100944E+03  0.00000000000E+00 0.  1.
         24    2    1    2    0    0  0.35601168489E+02 -0.15899865880E+03 -0.23377774888E+03  0.29683371099E+03  0.83127609219E+02 0.  0.
         25    2    1    2    0    0 -0.21866921639E+02  0.15663964523E+03  0.65409069017E+03  0.68446864640E+03  0.12509418935E+03 0.  0.
        -24    2    1    2    0    0 -0.13734246850E+02  0.23590135641E+01  0.10342505143E+04  0.10374631171E+04  0.80382824587E+02 0.  0.
        -11    1    3    3    0    0  0.17460170199E+01 -0.38836530410E+02 -0.12614878834E+03  0.13200318735E+03  0.00000000000E+00 0.  1.
         12    1    3    3    0    0  0.33855151469E+02 -0.12016212839E+03 -0.10762896054E+03  0.16483052365E+03  0.00000000000E+00 0. -1.
         11    1    5    5    0    0 -0.38813510963E+02  0.66214558171E+01  0.89770842575E+03  0.89857150521E+03  0.00000000000E+00 0. -1.
        -12    1    5    5    0    0  0.25079264113E+02 -0.42624422530E+01  0.13654208855E+03  0.13889161187E+03  0.00000000000E+00 0.  1.
          5    1    4    4  501    0  0.18860661632E+02 -0.15462866303E+02  0.80304765581E+02  0.84030664441E+02  0.41800000000E+01 0.  1.
         -5    1    4    4    0  501 -0.40727583271E+02  0.17210251154E+03  0.57378592459E+03  0.60043798195E+03  0.41800000000E+01 0.  1.
</event>
<event>
11    1  0.8041700E-009  0.1828442E+03  0.7561462E-02  0.1067365E+00
         22   -1    0    0    0    0  0.00000000000E+00  0.00000000000E+00  0.28197855409E+03  0.28197855409E+03  0.00000000000E+00 0. -1.
         22   -1    0    0    0    0 -0.00000000000E+00 -0.00000000000E+00 -0.39062800795E+04  0.39062800795E+04  0.00000000000E+00 0. -1.
        -24    2    1    2    0    0 -0.13817188902E+03  0.52624384245E+01 -0.37416332514E+04  0.37450487100E+04  0.80319911325E+02 0.  0.
         25    2    1    2    0    0  0.42555298925E+02  0.34024240100E+02 -0.11364721526E+03  0.17756919551E+03  0.12508607948E+03 0.  0.
         24    2    1    2    0    0  0.95616590095E+02 -0.39286678524E+02  0.23097894130E+03  0.26564072801E+03  0.80794490188E+02 0.  0.
        -13    1    5    5    0    0  0.46690711089E+02  0.10349365533E+02  0.40016857248E+02  0.62357683833E+02  0.00000000000E+00 0.  1.
         14    1    5    5    0    0  0.48925879006E+02 -0.49636044057E+02  0.19096208405E+03  0.20328304418E+03  0.00000000000E+00 0. -1.
         13    1    3    3    0    0 -0.94658865151E+02  0.31650737173E+02 -0.18139751735E+04  0.18167190206E+04  0.00000000000E+00 0. -1.
        -14    1    3    3    0    0 -0.43513023869E+02 -0.26388298748E+02 -0.19276580780E+04  0.19283296894E+04  0.00000000000E+00 0.  1.
          5    1    4    4  501    0  0.12878731009E+02 -0.46991045013E+02 -0.30268997587E+02  0.57512647642E+02  0.41800000000E+01 0.  1.
         -5    1    4    4    0  501  0.29676567916E+02  0.81015285112E+02 -0.83378217669E+02  0.12005654787E+03  0.41800000000E+01 0.  1.
</event>
<event>
11    1  0.8041700E-009  0.1837392E+03  0.7561462E-02  0.1066658E+00
         22   -1    0    0    0    0  0.00000000000E+00  0.00000000000E+00  0.51472832950E+03  0.51472832950E+03  0.00000000000E+00 0.  1.
         22   -1    0    0    0    0 -0.00000000000E+00 -0.00000000000E+00 -0.15096745335E+04  0.15096745335E+04  0.00000000000E+00 0.  1.
        -24    2    1    2    0    0  0.91592279577E+02 -0.95958514470E+02 -0.14009892536E+04  0.14096099417E+04  0.81437808777E+02 0.  0.
         25    2    1    2    0    0 -0.11184275199E+03  0.17365941668E+03  0.57694332626E+02  0.24827975549E+03  0.12509119391E+03 0.  0.
         24    2    1    2    0    0  0.20250472409E+02 -0.77700902212E+02  0.34834871700E+03  0.36651316584E+03  0.80855180770E+02 0.  0.
        -11    1    5    5    0    0  0.47688397578E+02 -0.66256249441E+02  0.28628693042E+03  0.29769830430E+03  0.00000000000E+00 0.  1.
         12    1    5    5    0    0 -0.27437925169E+02 -0.11444652770E+02  0.62061786586E+02  0.68814861541E+02  0.00000000000E+00 0. -1.
         13    1    3    3    0    0 -0.60842944656E+01  0.96521214064E+01 -0.13224899355E+03  0.13274026662E+03  0.00000000000E+00 0. -1.
        -14    1    3    3    0    0  0.97676574042E+02 -0.10561063588E+03 -0.12687402601E+04  0.12768696751E+04  0.00000000000E+00 0.  1.
          5    1    4    4  501    0 -0.65746556402E+02  0.15477503470E+03  0.87980555461E+02  0.18983142939E+03  0.41800000000E+01 0. -1.
         -5    1    4    4    0  501 -0.46096195584E+02  0.18884381983E+02 -0.30286222834E+02  0.58448326098E+02  0.41800000000E+01 0. -1.
</event>
<event>
11    1  0.8041700E-009  0.1338989E+03  0.7561462E-02  0.1114569E+00
         22   -1    0    0    0    0  0.00000000000E+00  0.00000000000E+00  0.50411056593E+03  0.50411056593E+03  0.00000000000E+00 0. -1.
         22   -1    0    0    0    0 -0.00000000000E+00 -0.00000000000E+00 -0.28872187039E+03  0.28872187039E+03  0.00000000000E+00 0. -1.
         24    2    1    2    0    0 -0.15602408069E+02  0.41120510685E+02 -0.21268895742E+03  0.23153754212E+03  0.80241568188E+02 0.  0.
         25    2    1    2    0    0  0.14372342066E+02 -0.86090741529E+02  0.33289748612E+02  0.15611900387E+03  0.12508699378E+03 0.  0.
        -24    2    1    2    0    0  0.12300660027E+01  0.44970230844E+02  0.39478790435E+03  0.40517589033E+03  0.79285420862E+02 0.  0.
        -11    1    3    3    0    0 -0.11957967549E+02  0.88356367294E+01  0.14584636950E+01  0.14939497337E+02  0.00000000000E+00 0.  1.
         12    1    3    3    0    0 -0.36444405196E+01  0.32284873955E+02 -0.21414742112E+03  0.21659804478E+03  0.00000000000E+00 0. -1.
         11    1    5    5    0    0  0.13381129227E+02  0.29010174179E+01  0.30472072383E+03  0.30502817911E+03  0.00000000000E+00 0. -1.
        -12    1    5    5    0    0 -0.12151063224E+02  0.42069213426E+02  0.90067180523E+02  0.10014771122E+03  0.00000000000E+00 0.  1.
          5    1    4    4  501    0  0.56477447069E+02 -0.71064242389E+02  0.55027853364E+02  0.10623260149E+03  0.41800000000E+01 0.  1.
         -5    1    4    4    0  501 -0.42105105003E+02 -0.15026499140E+02 -0.21738104753E+02  0.49886402375E+02  0.41800000000E+01 0.  1.
</event>
<event>
11    1  0.8041700E-009  0.3313692E+03  0.7561462E-02  0.9877248E-01
         22   -1    0    0    0    0  0.00000000000E+00  0.00000000000E+00  0.29576396391E+03  0.29576396391E+03  0.00000000000E+00 0.  1.
         22   -1    0    0    0    0 -0.00000000000E+00 -0.00000000000E+00 -0.74110855107E+03  0.74110855107E+03  0.00000000000E+00 0.  1.
        -24    2    1    2    0    0 -0.70263411311E+02 -0.36165130225E+03 -0.20794255067E+03  0.43027517704E+03  0.78536693423E+02 0.  0.
         25    2    1    2    0    0  0.36473504623E+02  0.27234798281E+03 -0.33281581951E+03  0.44935254598E+03  0.12509036965E+03 0.  0.
         24    2    1    2    0    0  0.33789906688E+02  0.89303319446E+02  0.95413783018E+02  0.15724479196E+03  0.80655402487E+02 0.  0.
        -13    1    5    5    0    0  0.58395704837E+02  0.45361735673E+02  0.64717007189E+02  0.98265133319E+02  0.00000000000E+00 0.  1.
         14    1    5    5    0    0 -0.24605798149E+02  0.43941583772E+02  0.30696775829E+02  0.58979658640E+02  0.00000000000E+00 0. -1.
         13    1    3    3    0    0 -0.48596045586E+02 -0.29022893899E+03 -0.12798701968E+03  0.32089731983E+03  0.00000000000E+00 0. -1.
        -14    1    3    3    0    0 -0.21667365725E+02 -0.71422363267E+02 -0.79955530991E+02  0.10937785721E+03  0.00000000000E+00 0.  1.
          5    1    4    4  501    0 -0.20245664769E+02  0.14361408991E+03 -0.96340453918E+02  0.17416615407E+03  0.41800000000E+01 0. -1.
         -5    1    4    4    0  501  0.56719169392E+02  0.12873389289E+03 -0.23647536560E+03  0.27518639191E+03  0.41800000000E+01 0. -1.
</event>
<event>
11    1  0.8041700E-009  0.1311600E+03  0.7561462E-02  0.1117852E+00
         22   -1    0    0    0    0  0.00000000000E+00  0.00000000000E+00  0.84834001399E+03  0.84834001399E+03  0.00000000000E+00 0. -1.
         22   -1    0    0    0    0 -0.00000000000E+00 -0.00000000000E+00 -0.17482082120E+04  0.17482082120E+04  0.00000000000E+00 0.  1.
         24    2    1    2    0    0 -0.25527035601E+02  0.29806169071E+02 -0.16106892450E+04  0.16130810522E+04  0.78553164722E+02 0.  0.
         25    2    1    2    0    0  0.41336070901E+02 -0.23641018121E+02 -0.10102790260E+03  0.16769476195E+03  0.12508927846E+03 0.  0.
        -24    2    1    2    0    0 -0.15809035299E+02 -0.61651509499E+01  0.81184894963E+03  0.81577241181E+03  0.78089539518E+02 0.  0.
        -13    1    3    3    0    0 -0.32534631095E+02 -0.12391100807E+02 -0.11169247144E+04  0.11174671625E+04  0.00000000000E+00 0.  1.
         14    1    3    3    0    0  0.70075954937E+01  0.42197269877E+02 -0.49376453066E+03  0.49561388976E+03  0.00000000000E+00 0. -1.
         11    1    5    5    0    0 -0.22220179875E+02 -0.18805778225E+02  0.11018932561E+03  0.11396965020E+03  0.00000000000E+00 0. -1.
        -12    1    5    5    0    0  0.64111445758E+01  0.12640627276E+02  0.70165962401E+03  0.70180276161E+03  0.00000000000E+00 0.  1.
          5    1    4    4  501    0  0.52061628400E+02  0.40444381162E+02 -0.34176773784E+02  0.74375300910E+02  0.41800000000E+01 0. -1.
         -5    1    4    4    0  501 -0.10725557499E+02 -0.64085399282E+02 -0.66851128819E+02  0.93319461042E+02  0.41800000000E+01 0. -1.
</event>
<event>
11    1  0.8041700E-009  0.1737596E+03  0.7561462E-02  0.1074805E+00
         22   -1    0    0    0    0  0.00000000000E+00  0.00000000000E+00  0.30094868832E+04  0.30094868832E+04  0.00000000000E+00 0.  1.
         22   -1    0    0    0    0 -0.00000000000E+00 -0.00000000000E+00 -0.20839489898E+03  0.20839489898E+03  0.00000000000E+00 0.  1.
        -24    2    1    2    0    0  0.43113220409E+02 -0.35667557604E+01 -0.16832742942E+03  0.19132021638E+03  0.79986437473E+02 0.  0.
         25    2    1    2    0    0 -0.15994767737E+03  0.17278478642E+02  0.36356095998E+03  0.41677955468E+03  0.12508725056E+03 0.  0.
         24    2    1    2    0    0  0.11683445696E+03 -0.13711722882E+02  0.26058584537E+04  0.26097820111E+04  0.81397563718E+02 0.  0.
        -11    1    5    5    0    0  0.81693031002E+02 -0.32335217078E+02  0.22487518873E+04  0.22504675888E+04  0.00000000000E+00 0.  1.
         12    1    5    5    0    0  0.35141425954E+02  0.18623494197E+02  0.35710656638E+03  0.35931442234E+03  0.00000000000E+00 0. -1.
         13    1    3    3    0    0  0.44814886301E+02  0.75232111474E+01 -0.34579891207E+02  0.57102903745E+02  0.00000000000E+00 0. -1.
        -14    1    3    3    0    0 -0.17016658921E+01 -0.11089966908E+02 -0.13374753821E+03  0.13421731264E+03  0.00000000000E+00 0.  1.
          5    1    4    4  501    0  0.16286117819E+02 -0.10856015900E+02  0.14483313215E+02  0.24704847227E+02  0.41800000000E+01 0. -1.
         -5    1    4    4    0  501 -0.17623379518E+03  0.28134494543E+02  0.34907764677E+03  0.39207470745E+03  0.41800000000E+01 0. -1.
</event>
<event>
11    1  0.8041700E-009  0.1479804E+03  0.7561462E-02  0.1098960E+00
         22   -1    0    0    0    0  0.00000000000E+00  0.00000000000E+00  0.86666102735E+02  0.86666102735E+02  0.00000000000E+00 0.  1.
         22   -1    0    0    0    0 -0.00000000000E+00 -0.00000000000E+00 -0.11641556738E+04  0.11641556738E+04  0.00000000000E+00 0.  1.
         24    2    1    2    0    0  0.25658051459E+02  0.43429588678E+00 -0.76757024028E+03  0.77212493004E+03  0.79713923526E+02 0.  0.
         25    2    1    2    0    0  0.47452535722E+02  0.36010985619E+02 -0.33570217224E+03  0.36316841667E+03  0.12508723433E+03 0.  0.
        -24    2    1    2    0    0 -0.73110587181E+02 -0.36445281506E+02  0.25782841473E+02  0.11552842980E+03  0.77515460885E+02 0.  0.
        -13    1    3    3    0    0 -0.93157796542E+01  0.31310601438E+02 -0.44513427106E+03  0.44633133073E+03  0.00000000000E+00 0.  1.
         14    1    3    3    0    0  0.34973831113E+02 -0.30876305551E+02 -0.32243596922E+03  0.32579359931E+03  0.00000000000E+00 0. -1.
         11    1    5    5    0    0 -0.56987378893E+01 -0.25218810356E+02 -0.20495717919E+02  0.32993006263E+02  0.00000000000E+00 0. -1.
        -12    1    5    5    0    0 -0.67411849291E+02 -0.11226471151E+02  0.46278559392E+02  0.82535423539E+02  0.00000000000E+00 0.  1.
          5    1    4    4  501    0  0.23888309044E+02 -0.40044291390E+02 -0.20323239280E+03  0.20855472774E+03  0.41800000000E+01 0.  1.
         -5    1    4    4    0  501  0.23564226678E+02  0.76055277010E+02 -0.13246977944E+03  0.15461368893E+03  0.41800000000E+01 0.  1.
</event>
<event>
11    1  0.8041700E-009  0.1451578E+03  0.7561462E-02  0.1101932E+00
         22   -1    0    0    0    0  0.00000000000E+00  0.00000000000E+00  0.98770387613E+03  0.98770387613E+03  0.00000000000E+00 0.  1.
         22   -1    0    0    0    0 -0.00000000000E+00 -0.00000000000E+00 -0.11526050056E+03  0.11526050056E+03  0.00000000000E+00 0.  1.
         24    2    1    2    0    0 -0.78867318417E+02 -0.12998029982E+02 -0.64628513919E+02  0.13062953473E+03  0.80611586227E+02 0.  0.
         25    2    1    2    0    0  0.15819802184E+02  0.12564730480E+02  0.27973680319E+03  0.30709690657E+03  0.12509073654E+03 0.  0.
        -24    2    1    2    0    0  0.63047516234E+02  0.43329950148E+00  0.65733508630E+03  0.66523793539E+03  0.80479301373E+02 0.  0.
        -11    1    3    3    0    0 -0.43707533604E+02 -0.22115397225E+02 -0.77847285905E+02  0.91976297006E+02  0.00000000000E+00 0.  1.
         12    1    3    3    0    0 -0.35159784813E+02  0.91173672434E+01  0.13218771986E+02  0.38653237722E+02  0.00000000000E+00 0. -1.
         13    1    5    5    0    0 -0.29261255124E+01  0.24171399677E+01 -0.73519440794E+00  0.38659134697E+01  0.00000000000E+00 0. -1.
        -14    1    5    5    0    0  0.65973641746E+02 -0.19838404662E+01  0.65807028071E+03  0.66137202192E+03  0.00000000000E+00 0.  1.
          5    1    4    4  501    0 -0.23049876003E+02 -0.15628452349E+02  0.24753168266E+03  0.24912838382E+03  0.41800000000E+01 0.  1.
         -5    1    4    4    0  501  0.38869678186E+02  0.28193182830E+02  0.32205120534E+02  0.57968522743E+02  0.41800000000E+01 0.  1.
</event>
<event>
11    1  0.8041700E-009  0.1434146E+03  0.7561462E-02  0.1103804E+00
         22   -1    0    0    0    0  0.00000000000E+00  0.00000000000E+00  0.46779953540E+03  0.46779953540E+03  0.00000000000E+00 0. -1.
         22   -1    0    0    0    0 -0.00000000000E+00 -0.00000000000E+00 -0.75735323376E+03  0.75735323376E+03  0.00000000000E+00 0.  1.
        -24    2    1    2    0    0  0.37693531308E+02  0.44536198256E+02 -0.70629201543E+03  0.71334639479E+03  0.81304321208E+02 0.  0.
         25    2    1    2    0    0  0.39778965832E+02 -0.38881413084E+02  0.84373069122E+02  0.16080842993E+03  0.12508559445E+03 0.  0.
         24    2    1    2    0    0 -0.77472497140E+02 -0.56547851722E+01  0.33236524794E+03  0.35099794444E+03  0.81847019212E+02 0.  0.
        -13    1    5    5    0    0 -0.30792138422E+02 -0.96054175581E+01  0.27012649024E+02  0.42072592532E+02  0.00000000000E+00 0.  1.
         14    1    5    5    0    0 -0.46680358718E+02  0.39506323859E+01  0.30535259892E+03  0.30892535191E+03  0.00000000000E+00 0. -1.
         13    1    3    3    0    0  0.57905668342E+01 -0.11608800698E+02 -0.18877228370E+02  0.22905123200E+02  0.00000000000E+00 0. -1.
        -14    1    3    3    0    0  0.31902964474E+02  0.56144998954E+02 -0.68741478706E+03  0.69044127159E+03  0.00000000000E+00 0.  1.
          5    1    4    4  501    0 -0.13661631382E+02 -0.70287263589E+02  0.61901309280E+02  0.94742725766E+02  0.41800000000E+01 0. -1.
         -5    1    4    4    0  501  0.53440597214E+02  0.31405850505E+02  0.22471759842E+02  0.66065704166E+02  0.41800000000E+01 0. -1.
</event>
<event>
11    1  0.9049007E-009  0.1636888E+03  0.7561462E-02  0.1083658E+00
         22   -1    0    0    0    0  0.00000000000E+00  0.00000000000E+00  0.85613984167E+03  0.85613984167E+03  0.00000000000E+00 0.  1.
         22   -1    0    0    0    0 -0.00000000000E+00 -0.00000000000E+00 -0.10864208678E+04  0.10864208678E+04  0.00000000000E+00 0. -1.
         24    2    1    2    0    0  0.34870293194E+02  0.22475722555E+02 -0.96792216540E+03  0.97185348193E+03  0.76842544313E+02 0.  0.
         25    2    1    2    0    0  0.39352219668E+02  0.55299485309E+02 -0.65328289245E+02  0.15659260023E+03  0.12508727674E+03 0.  0.
        -24    2    1    2    0    0 -0.74222512862E+02 -0.77775207865E+02  0.80296942851E+03  0.81411462732E+03  0.80403724615E+02 0.  0.
        -11    1    3    3    0    0 -0.13406915752E+02 -0.19246468981E+02 -0.27682311533E+03  0.27781506283E+03  0.00000000000E+00 0.  1.
         12    1    3    3    0    0  0.48277208946E+02  0.41722191536E+02 -0.69109905007E+03  0.69403841909E+03  0.00000000000E+00 0. -1.
         11    1    5    5    0    0 -0.12959263958E+02 -0.66030719072E+01  0.16242193687E+02  0.21802567204E+02  0.00000000000E+00 0. -1.
        -12    1    5    5    0    0 -0.61263248904E+02 -0.71172135957E+02  0.78672723482E+03  0.79231206012E+03  0.00000000000E+00 0.  1.
          5    1    4    4  501    0 -0.98105522271E+01  0.75354875882E+02 -0.69638459500E+02  0.10315809079E+03  0.41800000000E+01 0. -1.
         -5    1    4    4    0  501  0.49162771895E+02 -0.20055390572E+02  0.43101702552E+01  0.53434509439E+02  0.41800000000E+01 0. -1.
</event>
<event>
11    1  0.8727260E-009  0.1812843E+03  0.7561462E-02  0.1068609E+00
         22   -1    0    0    0    0  0.00000000000E+00  0.00000000000E+00  0.15093149084E+03  0.15093149084E+03  0.00000000000E+00 0.  1.
         22   -1    0    0    0    0 -0.00000000000E+00 -0.00000000000E+00 -0.21211427071E+04  0.21211427071E+04  0.00000000000E+00 0.  1.
        -24    2    1    2    0    0 -0.51194082806E+02 -0.32236691413E+02 -0.15835592498E+04  0.15867072887E+04  0.79498955724E+02 0.  0.
         25    2    1    2    0    0 -0.59442838088E+02  0.10632422846E+03 -0.47654244905E+03  0.50752178606E+03  0.12508942809E+03 0.  0.
         24    2    1    2    0    0  0.11063692089E+03 -0.74087537051E+02  0.89890482518E+02  0.17784512326E+03  0.76283009973E+02 0.  0.
        -13    1    5    5    0    0  0.96097344906E+02 -0.74898005824E+02  0.10200651761E+03  0.15890166962E+03  0.00000000000E+00 0.  1.
         14    1    5    5    0    0  0.14539575987E+02  0.81046877391E+00 -0.12116035091E+02  0.18943453641E+02  0.00000000000E+00 0. -1.
         13    1    3    3    0    0 -0.15781890197E+02 -0.24396603933E+02 -0.15573115157E+03  0.15841860343E+03  0.00000000000E+00 0. -1.
        -14    1    3    3    0    0 -0.35412192609E+02 -0.78400874794E+01 -0.14278280982E+04  0.14282886852E+04  0.00000000000E+00 0.  1.
          5    1    4    4  501    0  0.29759639327E+02  0.60007810330E+02 -0.12509628579E+03  0.14196170805E+03  0.41800000000E+01 0. -1.
         -5    1    4    4    0  501 -0.89202477414E+02  0.46316418133E+02 -0.35144616326E+03  0.36556007801E+03  0.41800000000E+01 0. -1.
</event>
<event>
11    1  0.8041700E-009  0.1384439E+03  0.7561462E-02  0.1109309E+00
         22   -1    0    0    0    0  0.00000000000E+00  0.00000000000E+00  0.12714303920E+04  0.12714303920E+04  0.00000000000E+00 0. -1.
         22   -1    0    0    0    0 -0.00000000000E+00 -0.00000000000E+00 -0.89127743805E+02  0.89127743805E+02  0.00000000000E+00 0.  1.
         24    2    1    2    0    0  0.20487777010E+02 -0.18724703682E+02 -0.33436259786E+02  0.93219671699E+02  0.82471572001E+02 0.  0.
         25    2    1    2    0    0 -0.10739002318E+02  0.75753738095E+02  0.20690408290E+03  0.25359512701E+03  0.12508890405E+03 0.  0.
        -24    2    1    2    0    0 -0.97487746915E+01 -0.57029034414E+02  0.10088348251E+04  0.10137433371E+04  0.81120280064E+02 0.  0.
        -13    1    3    3    0    0  0.31842201418E+02 -0.35490308325E+02 -0.48476731540E+02  0.67996185753E+02  0.00000000000E+00 0.  1.
         14    1    3    3    0    0 -0.11354424408E+02  0.16765604643E+02  0.15040471754E+02  0.25223485946E+02  0.00000000000E+00 0. -1.
         11    1    5    5    0    0 -0.27929805362E+02 -0.14041775788E+02  0.75539536216E+03  0.75604192917E+03  0.00000000000E+00 0. -1.
        -12    1    5    5    0    0  0.18181030670E+02 -0.42987258625E+02  0.25343946295E+03  0.25770140795E+03  0.00000000000E+00 0.  1.
          5    1    4    4  501    0 -0.15390361949E+02 -0.93451803918E+01 -0.96390973182E+01  0.20846588080E+02  0.41800000000E+01 0.  1.
         -5    1    4    4    0  501  0.46513596312E+01  0.85098918487E+02  0.21654318022E+03  0.23274853893E+03  0.41800000000E+01 0.  1.
</event>
<event>
11    1  0.8041700E-009  0.1400546E+03  0.7561462E-02  0.1107497E+00
         22   -1    0    0    0    0  0.00000000000E+00  0.00000000000E+00  0.24328527396E+03  0.24328527396E+03  0.00000000000E+00 0. -1.
         22   -1    0    0    0    0 -0.00000000000E+00 -0.00000000000E+00 -0.24329893319E+03  0.24329893319E+03  0.00000000000E+00 0.  1.
         24    2    1    2    0    0 -0.43660620773E+02 -0.39047416903E+02 -0.13001266298E+03  0.16404616218E+03  0.81098090101E+02 0.  0.
         25    2    1    2    0    0  0.23910206364E+02  0.92496463570E+02 -0.15575006853E+01  0.15738694774E+03  0.12506371085E+03 0.  0.
        -24    2    1    2    0    0  0.19750414409E+02 -0.53449046666E+02  0.13155650444E+03  0.16515109723E+03  0.81981044116E+02 0.  0.
        -13    1    3    3    0    0 -0.27504141444E+00  0.11271157728E+02 -0.80246065318E+02  0.81034225135E+02  0.00000000000E+00 0.  1.
         14    1    3    3    0    0 -0.43385579359E+02 -0.50318574632E+02 -0.49766597664E+02  0.83011937047E+02  0.00000000000E+00 0. -1.
         11    1    5    5    0    0 -0.13732872372E+02 -0.62546590584E+02  0.73183312137E+02  0.97244356919E+02  0.00000000000E+00 0. -1.
        -12    1    5    5    0    0  0.33483286781E+02  0.90975439172E+01  0.58373192307E+02  0.67906740307E+02  0.00000000000E+00 0.  1.
          5    1    4    4  501    0  0.52449738758E+01  0.43198530900E+02  0.61270986573E+02  0.75267715645E+02  0.41800000000E+01 0.  1.
         -5    1    4    4    0  501  0.18665232489E+02  0.49297932670E+02 -0.62828487258E+02  0.82119232099E+02  0.41800000000E+01 0.  1.
</event>
<event>
11    1  0.8041700E-009  0.3451775E+03  0.7561462E-02  0.9826984E-01
         22   -1    0    0    0    0  0.00000000000E+00  0.00000000000E+00  0.88538364348E+03  0.88538364348E+03  0.00000000000E+00 0.  1.
         22   -1    0    0    0    0 -0.00000000000E+00 -0.00000000000E+00 -0.38562559017E+03  0.38562559017E+03  0.00000000000E+00 0.  1.
         24    2    1    2    0    0  0.28521301625E+03  0.16876607277E+03 -0.72812667230E+02  0.34882350803E+03  0.80917879898E+02 0.  0.
         25    2    1    2    0    0 -0.13807701732E+03 -0.31844855685E+03  0.75198170217E+02  0.37653963400E+03  0.12511029173E+03 0.  0.
        -24    2    1    2    0    0 -0.14713599893E+03  0.14968248408E+03  0.49737255033E+03  0.54564609163E+03  0.79349576387E+02 0.  0.
        -13    1    3    3    0    0  0.20558685144E+03  0.14603214792E+03 -0.25517296038E+02  0.25346099130E+03  0.00000000000E+00 0.  1.
         14    1    3    3    0    0  0.79626164806E+02  0.22733924849E+02 -0.47295371192E+02  0.95362516730E+02  0.00000000000E+00 0. -1.
         11    1    5    5    0    0 -0.53647403050E+02  0.38752544627E+02  0.25248106181E+03  0.26101051730E+03  0.00000000000E+00 0. -1.
        -12    1    5    5    0    0 -0.93488595876E+02  0.11092993945E+03  0.24489148851E+03  0.28463557433E+03  0.00000000000E+00 0.  1.
          5    1    4    4  501    0 -0.24694040207E+02 -0.20982132279E+03  0.32797140024E+02  0.21384084715E+03  0.41800000000E+01 0.  1.
         -5    1    4    4    0  501 -0.11338297712E+03 -0.10862723406E+03  0.42401030193E+02  0.16269878685E+03  0.41800000000E+01 0.  1.
</event>
<event>
11    1  0.8041700E-009  0.1357347E+03  0.7561462E-02  0.1112417E+00
         22   -1    0    0    0    0  0.00000000000E+00  0.00000000000E+00  0.10551498473E+04  0.10551498473E+04  0.00000000000E+00 0.  1.
         22   -1    0    0    0    0 -0.00000000000E+00 -0.00000000000E+00 -0.12102463026E+04  0.12102463026E+04  0.00000000000E+00 0. -1.
        -24    2    1    2    0    0  0.51973919943E+02 -0.14422687214E+02 -0.10908829583E+04  0.10951641101E+04  0.80308761620E+02 0.  0.
         25    2    1    2    0    0 -0.38898784562E+02 -0.33518708894E+02 -0.75308842090E+02  0.15477845419E+03  0.12509328079E+03 0.  0.
         24    2    1    2    0    0 -0.13075135381E+02  0.47941396109E+02  0.10110953452E+04  0.10154535856E+04  0.79767480042E+02 0.  0.
        -13    1    5    5    0    0 -0.15182945336E+02  0.68029183946E+02  0.63452918549E+03  0.63834612785E+03  0.00000000000E+00 0.  1.
         14    1    5    5    0    0  0.21078099552E+01 -0.20087787838E+02  0.37656615966E+03  0.37710745775E+03  0.00000000000E+00 0. -1.
         13    1    3    3    0    0  0.51727951037E+02 -0.39184767464E+02 -0.94228376921E+03  0.94451571117E+03  0.00000000000E+00 0. -1.
        -14    1    3    3    0    0  0.24596890603E+00  0.24762080250E+02 -0.14859918907E+03  0.15064839897E+03  0.00000000000E+00 0.  1.
          5    1    4    4  501    0 -0.81755916427E+02 -0.19330415605E+02 -0.26565226451E+02  0.88209288029E+02  0.41800000000E+01 0. -1.
         -5    1    4    4    0  501  0.42857131865E+02 -0.14188293290E+02 -0.48743615639E+02  0.66569166164E+02  0.41800000000E+01 0. -1.
</event>
<event>
11    1  0.8041700E-009  0.4716109E+03  0.7561462E-02  0.9459295E-01
         22   -1    0    0    0    0  0.00000000000E+00  0.00000000000E+00  0.21681789188E+04  0.21681789188E+04  0.00000000000E+00 0.  1.
         22   -1    0    0    0    0 -0.00000000000E+00 -0.00000000000E+00 -0.15983488991E+03  0.15983488991E+03  0.00000000000E+00 0.  1.
         24    2    1    2    0    0  0.30043755333E+03  0.27435821547E+03  0.20226738322E+03  0.46137787445E+03  0.80139221805E+02 0.  0.
         25    2    1    2    0    0 -0.19283172057E+03 -0.13383284451E+03  0.84359212149E+03  0.88452827101E+03  0.12508913641E+03 0.  0.
        -24    2    1    2    0    0 -0.10760583276E+03 -0.14052537096E+03  0.96248452415E+03  0.98210766322E+03  0.82659589910E+02 0.  0.
        -11    1    3    3    0    0  0.28055595679E+03  0.24045953179E+03  0.20393262067E+03  0.42204377154E+03  0.00000000000E+00 0.  1.
         12    1    3    3    0    0  0.19881596542E+02  0.33898683680E+02 -0.16652374540E+01  0.39334102915E+02  0.00000000000E+00 0. -1.
         11    1    5    5    0    0  0.85350002507E+00 -0.72120053599E+01  0.21492296413E+03  0.21504562770E+03  0.00000000000E+00 0. -1.
        -12    1    5    5    0    0 -0.10845933279E+03 -0.13331336560E+03  0.74756156002E+03  0.76706203552E+03  0.00000000000E+00 0.  1.
          5    1    4    4  501    0 -0.58347324172E+02 -0.76381979615E+02  0.17098470055E+03  0.19619341801E+03  0.41800000000E+01 0.  1.
         -5    1    4    4    0  501 -0.13448439640E+03 -0.57450864894E+02  0.67260742093E+03  0.68833485299E+03  0.41800000000E+01 0.  1.
</event>
<event>
11    1  0.8041700E-009  0.1928955E+03  0.7561462E-02  0.1059664E+00
         22   -1    0    0    0    0  0.00000000000E+00  0.00000000000E+00  0.13960179945E+04  0.13960179945E+04  0.00000000000E+00 0. -1.
         22   -1    0    0    0    0 -0.00000000000E+00 -0.00000000000E+00 -0.68198379728E+03  0.68198379728E+03  0.00000000000E+00 0.  1.
        -24    2    1    2    0    0 -0.13252344321E+03  0.56156020611E+02 -0.60050128543E+03  0.62268550250E+03  0.80121654820E+02 0.  0.
         25    2    1    2    0    0  0.16724013825E+03 -0.13269369634E+03  0.15951093194E+03  0.29439547058E+03  0.12509226514E+03 0.  0.
         24    2    1    2    0    0 -0.34716695040E+02  0.76537675731E+02  0.11550245508E+04  0.11609208187E+04  0.81192178395E+02 0.  0.
        -11    1    5    5    0    0  0.19374521109E+02 -0.15347058535E+01  0.30201926065E+03  0.30264395119E+03  0.00000000000E+00 0.  1.
         12    1    5    5    0    0 -0.54091216149E+02  0.78072381584E+02  0.85300529010E+03  0.85827686755E+03  0.00000000000E+00 0. -1.
         13    1    3    3    0    0  0.20753041157E+01  0.15456853451E+02 -0.19815937903E+02  0.25216911007E+02  0.00000000000E+00 0. -1.
        -14    1    3    3    0    0 -0.13459874733E+03  0.40699167160E+02 -0.58068534753E+03  0.59746859149E+03  0.00000000000E+00 0.  1.
          5    1    4    4  501    0 -0.39057796035E+01  0.15122721890E+02  0.29155599662E+02  0.33338764574E+02  0.41800000000E+01 0.  1.
         -5    1    4    4    0  501  0.17114591786E+03 -0.14781641823E+03  0.13035533227E+03  0.26105670601E+03  0.41800000000E+01 0.  1.
</event>
<event>
11    1  0.8041700E-009  0.1406056E+03  0.7561462E-02  0.1106884E+00
         22   -1    0    0    0    0  0.00000000000E+00  0.00000000000E+00  0.18845977372E+03  0.18845977372E+03  0.00000000000E+00 0.  1.
         22   -1    0    0    0    0 -0.00000000000E+00 -0.00000000000E+00 -0.45456032673E+03  0.45456032673E+03  0.00000000000E+00 0.  1.
         24    2    1    2    0    0 -0.43572535937E+02  0.41956081389E+02 -0.29266003228E+03  0.31038794372E+03  0.83856439588E+02 0.  0.
         25    2    1    2    0    0  0.40480558944E+02 -0.74235814316E+02 -0.97334627409E+02  0.17963683145E+03  0.12508289148E+03 0.  0.
        -24    2    1    2    0    0  0.30919769939E+01  0.32279732927E+02  0.12389410667E+03  0.15299532528E+03  0.83703514918E+02 0.  0.
        -11    1    3    3    0    0 -0.26966915222E+02  0.67635719183E+02 -0.20524943742E+03  0.21778231468E+03  0.00000000000E+00 0.  1.
         12    1    3    3    0    0 -0.16605620716E+02 -0.25679637794E+02 -0.87410594860E+02  0.92605629042E+02  0.00000000000E+00 0. -1.
         11    1    5    5    0    0  0.88987296113E+01  0.58575527328E+02  0.63381278187E+02  0.86760971727E+02  0.00000000000E+00 0. -1.
        -12    1    5    5    0    0 -0.58067526174E+01 -0.26295794401E+02  0.60512828487E+02  0.66234353553E+02  0.00000000000E+00 0.  1.
          5    1    4    4  501    0 -0.37699544162E+02 -0.60522734127E+02 -0.43315391722E+02  0.83534139944E+02  0.41800000000E+01 0. -1.
         -5    1    4    4    0  501  0.78180103105E+02 -0.13713080189E+02 -0.54019235688E+02  0.96102691503E+02  0.41800000000E+01 0. -1.
</event>
<event>
11    1  0.8041700E-009  0.2039582E+03  0.7561462E-02  0.1051759E+00
         22   -1    0    0    0    0  0.00000000000E+00  0.00000000000E+00  0.21385653161E+03  0.21385653161E+03  0.00000000000E+00 0. -1.
         22   -1    0    0    0    0 -0.00000000000E+00 -0.00000000000E+00 -0.63207317346E+03  0.63207317346E+03  0.00000000000E+00 0. -1.
        -24    2    1    2    0    0  0.20025986416E+02  0.48127560320E+02 -0.32412989071E+03  0.34099945242E+03  0.92212462835E+02 0.  0.
         25    2    1    2    0    0  0.46468770100E+02  0.10813314858E+03 -0.21980801543E+03  0.27895278082E+03  0.12508783260E+03 0.  0.
         24    2    1    2    0    0 -0.66494756516E+02 -0.15626070890E+03  0.12572126429E+03  0.22597747184E+03  0.80131265405E+02 0.  0.
        -11    1    5    5    0    0 -0.19831623710E+02 -0.11509558115E+03  0.47640444335E+02  0.12613444429E+03  0.00000000000E+00 0.  1.
         12    1    5    5    0    0 -0.46663132806E+02 -0.41165127742E+02  0.78080819954E+02  0.99843027548E+02  0.00000000000E+00 0. -1.
         13    1    3    3    0    0  0.53803944097E+02  0.48033075814E+02 -0.22405665796E+03  0.23537932524E+03  0.00000000000E+00 0. -1.
        -14    1    3    3    0    0 -0.33777957681E+02  0.94484506441E-01 -0.10007323275E+03  0.10562012718E+03  0.00000000000E+00 0.  1.
          5    1    4    4  501    0  0.82250832383E+02  0.87542321295E+02 -0.11549491328E+03  0.16668954628E+03  0.41800000000E+01 0. -1.
         -5    1    4    4    0  501 -0.35782062283E+02  0.20590827281E+02 -0.10431310215E+03  0.11226323454E+03  0.41800000000E+01 0. -1.
</event>
<event>
11    1  0.8041700E-009  0.1513349E+03  0.7561462E-02  0.1095523E+00
         22   -1    0    0    0    0  0.00000000000E+00  0.00000000000E+00  0.18269899712E+03  0.18269899712E+03  0.00000000000E+00 0. -1.
         22   -1    0    0    0    0 -0.00000000000E+00 -0.00000000000E+00 -0.38857501477E+03  0.38857501477E+03  0.00000000000E+00 0.  1.
         24    2    1    2    0    0 -0.18154726577E+02  0.46073478776E+02 -0.20213020175E+03  0.22319820728E+03  0.80675037832E+02 0.  0.
         25    2    1    2    0    0 -0.20318472854E+02 -0.11649712192E+03 -0.10013254728E+03  0.19914384626E+03  0.12508926702E+03 0.  0.
        -24    2    1    2    0    0  0.38473199431E+02  0.70423643145E+02  0.96386731381E+02  0.14893195836E+03  0.80315936437E+02 0.  0.
        -13    1    3    3    0    0  0.22732443682E+02  0.45267573484E+02 -0.82915693406E+02  0.97164445235E+02  0.00000000000E+00 0.  1.
         14    1    3    3    0    0 -0.40887170259E+02  0.80590529239E+00 -0.11921450834E+03  0.12603376204E+03  0.00000000000E+00 0. -1.
         13    1    5    5    0    0  0.32085389917E+02  0.36348982290E+02  0.10281442209E+03  0.11367289100E+03  0.00000000000E+00 0. -1.
        -14    1    5    5    0    0  0.63878095140E+01  0.34074660855E+02 -0.64276907089E+01  0.35259067353E+02  0.00000000000E+00 0.  1.
          5    1    4    4  501    0 -0.53915407218E+01 -0.12884663062E+03 -0.38869463432E+02  0.13475470501E+03  0.41800000000E+01 0.  1.
         -5    1    4    4    0  501 -0.14926932132E+02  0.12349508703E+02 -0.61263083851E+02  0.64389141251E+02  0.41800000000E+01 0.  1.
</event>
<event>
11    1  0.8041700E-009  0.2094865E+03  0.7561462E-02  0.1048011E+00
         22   -1    0    0    0    0  0.00000000000E+00  0.00000000000E+00  0.41313991121E+03  0.41313991121E+03  0.00000000000E+00 0. -1.
         22   -1    0    0    0    0 -0.00000000000E+00 -0.00000000000E+00 -0.46378299649E+03  0.46378299649E+03  0.00000000000E+00 0. -1.
        -24    2    1    2    0    0 -0.26002613067E+02 -0.30036929627E+02 -0.22732119309E+03  0.24415734309E+03  0.79746663453E+02 0.  0.
         25    2    1    2    0    0  0.12052876547E+02 -0.14092909856E+03 -0.15927630519E+03  0.24701726306E+03  0.12506919766E+03 0.  0.
         24    2    1    2    0    0  0.13949736520E+02  0.17096602819E+03  0.33595441300E+03  0.38574830154E+03  0.80699483206E+02 0.  0.
        -11    1    5    5    0    0  0.17474750171E+01  0.36540859104E+02  0.18940141160E+02  0.41194866187E+02  0.00000000000E+00 0.  1.
         12    1    5    5    0    0  0.12202261503E+02  0.13442516908E+03  0.31701427184E+03  0.34455343536E+03  0.00000000000E+00 0. -1.
         11    1    3    3    0    0 -0.45097535359E+02  0.47635223724E+01 -0.15686642267E+03  0.16328978352E+03  0.00000000000E+00 0. -1.
        -12    1    3    3    0    0  0.19094922292E+02 -0.34800452000E+02 -0.70454770422E+02  0.80867559577E+02  0.00000000000E+00 0.  1.
          5    1    4    4  501    0  0.13125495595E+02 -0.65129107854E+02 -0.15759250679E+03  0.17107586013E+03  0.41800000000E+01 0.  1.
         -5    1    4    4    0  501 -0.10726190474E+01 -0.75799990703E+02 -0.16837984017E+01  0.75941402932E+02  0.41800000000E+01 0.  1.
</event>
<event>
11    1  0.8041700E-009  0.1256120E+03  0.7561462E-02  0.1124781E+00
         22   -1    0    0    0    0  0.00000000000E+00  0.00000000000E+00  0.20398991263E+04  0.20398991263E+04  0.00000000000E+00 0.  1.
         22   -1    0    0    0    0 -0.00000000000E+00 -0.00000000000E+00 -0.52906909945E+03  0.52906909945E+03  0.00000000000E+00 0.  1.
         24    2    1    2    0    0 -0.32925842666E+01  0.11111601328E+01 -0.51274976593E+03  0.51946976024E+03  0.83213181322E+02 0.  0.
         25    2    1    2    0    0  0.14222996278E+02 -0.31816299225E+01  0.32252389128E+03  0.34623995046E+03  0.12509207192E+03 0.  0.
        -24    2    1    2    0    0 -0.10930412012E+02  0.20704697898E+01  0.17010559015E+04  0.17032585150E+04  0.85875656003E+02 0.  0.
        -13    1    3    3    0    0  0.12625650805E+02  0.27606060853E+02 -0.43106668507E+03  0.43213422525E+03  0.00000000000E+00 0.  1.
         14    1    3    3    0    0 -0.15918235072E+02 -0.26494900720E+02 -0.81683080863E+02  0.87335534986E+02  0.00000000000E+00 0. -1.
         13    1    5    5    0    0  0.37487652130E+01 -0.15553709765E+02  0.61650272468E+02  0.63692442436E+02  0.00000000000E+00 0. -1.
        -14    1    5    5    0    0 -0.14679177225E+02  0.17624179555E+02  0.16394056290E+04  0.16395660726E+04  0.00000000000E+00 0.  1.
          5    1    4    4  501    0  0.44433879594E+02 -0.35309647695E+02  0.27674946096E+03  0.28254004569E+03  0.41800000000E+01 0. -1.
         -5    1    4    4    0  501 -0.30210883316E+02  0.32128017772E+02  0.45774430314E+02  0.63699904766E+02  0.41800000000E+01 0. -1.
</event>
<event>
11    1  0.8041700E-009  0.1317558E+03  0.7561462E-02  0.1117130E+00
         22   -1    0    0    0    0  0.00000000000E+00  0.00000000000E+00  0.43960355906E+03  0.43960355906E+03  0.00000000000E+00 0.  1.
         22   -1    0    0    0    0 -0.00000000000E+00 -0.00000000000E+00 -0.61429340103E+03  0.61429340103E+03  0.00000000000E+00 0.  1.
         24    2    1    2    0    0  0.29350746767E+02 -0.25478336199E+02 -0.46232360873E+03  0.47075636477E+03  0.79735963193E+02 0.  0.
         25    2    1    2    0    0 -0.50099612387E+02  0.36150719213E+02 -0.10963918089E+03  0.17744023619E+03  0.12508973487E+03 0.  0.
        -24    2    1    2    0    0  0.20748865619E+02 -0.10672383015E+02  0.39727294765E+03  0.40570035913E+03  0.78883276305E+02 0.  0.
        -11    1    3    3    0    0 -0.10726091298E+02  0.22076113990E+02 -0.90563750298E+02  0.93830681077E+02  0.00000000000E+00 0.  1.
         12    1    3    3    0    0  0.40076838065E+02 -0.47554450188E+02 -0.37175985843E+03  0.37692568369E+03  0.00000000000E+00 0. -1.
         13    1    5    5    0    0  0.25892960482E+02  0.16934023218E+02  0.62368506651E+02  0.69620666233E+02  0.00000000000E+00 0. -1.
        -14    1    5    5    0    0 -0.51440948631E+01 -0.27606406233E+02  0.33490444100E+03  0.33607969290E+03  0.00000000000E+00 0.  1.
          5    1    4    4  501    0 -0.35501623830E+02 -0.11453193282E+02 -0.12058157093E+03  0.12628906753E+03  0.41800000000E+01 0.  1.
         -5    1    4    4    0  501 -0.14597988556E+02  0.47603912495E+02  0.10942390035E+02  0.51151168652E+02  0.41800000000E+01 0.  1.
</event>
<event>
11    1  0.8041700E-009  0.1279941E+03  0.7561462E-02  0.1121758E+00
         22   -1    0    0    0    0  0.00000000000E+00  0.00000000000E+00  0.64029357329E+03  0.64029357329E+03  0.00000000000E+00 0. -1.
         22   -1    0    0    0    0 -0.00000000000E+00 -0.00000000000E+00 -0.22949790096E+03  0.22949790096E+03  0.00000000000E+00 0.  1.
        -24    2    1    2    0    0  0.84287070876E+01 -0.26135235783E+02 -0.19712396433E+03  0.21595587038E+03  0.83815195427E+02 0.  0.
         25    2    1    2    0    0 -0.16923104322E+02  0.14664809309E+02  0.19413556949E+03  0.23202892919E+03  0.12508939423E+03 0.  0.
         24    2    1    2    0    0  0.84943972344E+01  0.11470426474E+02  0.41378406717E+03  0.42180667468E+03  0.80621902024E+02 0.  0.
        -11    1    5    5    0    0  0.18140712912E+02  0.34759097496E+02  0.10645873286E+03  0.11344929319E+03  0.00000000000E+00 0.  1.
         12    1    5    5    0    0 -0.96463156776E+01 -0.23288671022E+02  0.30732533431E+03  0.30835738148E+03  0.00000000000E+00 0. -1.
         11    1    3    3    0    0 -0.19595456958E+00 -0.55336369112E+02 -0.10154245954E+03  0.11564178844E+03  0.00000000000E+00 0. -1.
        -12    1    3    3    0    0  0.86246616572E+01  0.29201133329E+02 -0.95581504794E+02  0.10031408194E+03  0.00000000000E+00 0.  1.
          5    1    4    4  501    0 -0.21436222504E+02  0.19562748533E+02  0.21120760338E+03  0.21323305769E+03  0.41800000000E+01 0. -1.
         -5    1    4    4    0  501  0.45131181815E+01 -0.48979392238E+01 -0.17072033892E+02  0.18795871504E+02  0.41800000000E+01 0. -1.
</event>
<event>
11    1  0.8041700E-009  0.1306975E+03  0.7561462E-02  0.1118415E+00
         22   -1    0    0    0    0  0.00000000000E+00  0.00000000000E+00  0.89379488699E+03  0.89379488699E+03  0.00000000000E+00 0.  1.
         22   -1    0    0    0    0 -0.00000000000E+00 -0.00000000000E+00 -0.28950635225E+03  0.28950635225E+03  0.00000000000E+00 0.  1.
        -24    2    1    2    0    0  0.11115603970E+02  0.29628851333E+02 -0.24720622451E+03  0.26129114166E+03  0.78490240106E+02 0.  0.
         25    2    1    2    0    0 -0.45911555468E+02 -0.14609060686E+02  0.10480266056E+03  0.17015742733E+03  0.12509459156E+03 0.  0.
         24    2    1    2    0    0  0.34795951498E+02 -0.15019790647E+02  0.74669209869E+03  0.75185267024E+03  0.79353608351E+02 0.  0.
        -11    1    5    5    0    0  0.57334428490E+02 -0.11368538337E+02  0.38193953512E+03  0.38638619132E+03  0.00000000000E+00 0.  1.
         12    1    5    5    0    0 -0.22538476992E+02 -0.36512523103E+01  0.36475256356E+03  0.36546647892E+03  0.00000000000E+00 0. -1.
         13    1    3    3    0    0  0.37017696578E+02 -0.42372850718E+01 -0.73194139804E+02  0.82131885077E+02  0.00000000000E+00 0. -1.
        -14    1    3    3    0    0 -0.25902092608E+02  0.33866136405E+02 -0.17401208471E+03  0.17915925659E+03  0.00000000000E+00 0.  1.
          5    1    4    4  501    0 -0.20784350311E+02 -0.69962416564E+02  0.55895012154E+02  0.92024201887E+02  0.41800000000E+01 0. -1.
         -5    1    4    4    0  501 -0.25127205157E+02  0.55353355878E+02  0.48907648406E+02  0.78133225446E+02  0.41800000000E+01 0. -1.
</event>
<event>
11    1  0.8041700E-009  0.1589379E+03  0.7561462E-02  0.1088080E+00
         22   -1    0    0    0    0  0.00000000000E+00  0.00000000000E+00  0.18152890445E+03  0.18152890445E+03  0.00000000000E+00 0.  1.
         22   -1    0    0    0    0 -0.00000000000E+00 -0.00000000000E+00 -0.13309268616E+04  0.13309268616E+04  0.00000000000E+00 0.  1.
        -24    2    1    2    0    0  0.87411115309E+02  0.21190262218E+02 -0.10148727479E+04  0.10219443101E+04  0.79459097978E+02 0.  0.
         25    2    1    2    0    0 -0.10697514018E+02 -0.88803685828E+02 -0.26510819394E+03  0.30648038662E+03  0.12508933394E+03 0.  0.
         24    2    1    2    0    0 -0.76713601291E+02  0.67613423611E+02  0.13058298475E+03  0.18403106925E+03  0.79743130535E+02 0.  0.
        -13    1    5    5    0    0 -0.21338964913E+02  0.71058061326E+02  0.74688963473E+02  0.10527602181E+03  0.00000000000E+00 0.  1.
         14    1    5    5    0    0 -0.55374636378E+02 -0.34446377155E+01  0.55894021277E+02  0.78755047441E+02  0.00000000000E+00 0. -1.
         13    1    3    3    0    0  0.33368196605E+02 -0.20726324228E+02 -0.17806414708E+03  0.18234543464E+03  0.00000000000E+00 0. -1.
        -14    1    3    3    0    0  0.54042918704E+02  0.41916586446E+02 -0.83680860086E+03  0.83959887550E+03  0.00000000000E+00 0.  1.
          5    1    4    4  501    0 -0.58329918497E+01 -0.11303525503E+03 -0.14610079429E+03  0.18486185969E+03  0.41800000000E+01 0. -1.
         -5    1    4    4    0  501 -0.48645221682E+01  0.24231569204E+02 -0.11900739965E+03  0.12161852693E+03  0.41800000000E+01 0. -1.
</event>
<event>
11    1  0.8041700E-009  0.1307197E+03  0.7561462E-02  0.1118388E+00
         22   -1    0    0    0    0  0.00000000000E+00  0.00000000000E+00  0.36049101652E+03  0.36049101652E+03  0.00000000000E+00 0.  1.
         22   -1    0    0    0    0 -0.00000000000E+00 -0.00000000000E+00 -0.34506898483E+03  0.34506898483E+03  0.00000000000E+00 0.  1.
         24    2    1    2    0    0  0.37620287222E+02 -0.33074147002E+01 -0.27334247266E+03  0.28804263419E+03  0.82620982508E+02 0.  0.
         25    2    1    2    0    0 -0.37022110991E+02  0.26332576412E+02  0.18445255935E+02  0.13435844794E+03  0.12509166152E+03 0.  0.
        -24    2    1    2    0    0 -0.59817623062E+00 -0.23025161712E+02  0.27031924841E+03  0.28315891922E+03  0.81092302897E+02 0.  0.
        -11    1    3    3    0    0  0.27864010270E+02 -0.71213303664E+01 -0.27578980845E+03  0.27728529506E+03  0.00000000000E+00 0.  1.
         12    1    3    3    0    0  0.97562769516E+01  0.38139156662E+01  0.24473357896E+01  0.10757339129E+02  0.00000000000E+00 0. -1.
         11    1    5    5    0    0  0.13974232884E+01 -0.32138111001E+02  0.34557306567E+02  0.47212481482E+02  0.00000000000E+00 0. -1.
        -12    1    5    5    0    0 -0.19955995190E+01  0.91129492883E+01  0.23576194184E+03  0.23594643774E+03  0.00000000000E+00 0.  1.
          5    1    4    4  501    0 -0.42427457521E+02  0.49668341535E+02  0.58311033837E+02  0.87662320125E+02  0.41800000000E+01 0.  1.
         -5    1    4    4    0  501  0.54053465301E+01 -0.23335765122E+02 -0.39865777902E+02  0.46696127812E+02  0.41800000000E+01 0.  1.
</event>
<event>
11    1  0.1345311E-008  0.1548167E+03  0.7561462E-02  0.1092056E+00
         22   -1    0    0    0    0  0.00000000000E+00  0.00000000000E+00  0.11586086124E+04  0.11586086124E+04  0.00000000000E+00 0. -1.
         22   -1    0    0    0    0 -0.00000000000E+00 -0.00000000000E+00 -0.82936956895E+03  0.82936956895E+03  0.00000000000E+00 0.  1.
         24    2    1    2    0    0  0.81118750778E+02  0.18977541346E+02 -0.52494474885E+03  0.53793696516E+03  0.82878165640E+02 0.  0.
         25    2    1    2    0    0 -0.10690736789E+03 -0.83105931342E+02 -0.26655599904E+03  0.32409017801E+03  0.12508621717E+03 0.  0.
        -24    2    1    2    0    0  0.25788617114E+02  0.64128389995E+02  0.11207397914E+04  0.11259510382E+04  0.83249968878E+02 0.  0.
        -13    1    3    3    0    0  0.68845641850E+02  0.44645724680E+01 -0.50740558664E+03  0.51207429555E+03  0.00000000000E+00 0.  1.
         14    1    3    3    0    0  0.12273108928E+02  0.14512968878E+02 -0.17539162206E+02  0.25862669609E+02  0.00000000000E+00 0. -1.
         13    1    5    5    0    0  0.48920479638E+02  0.46316378567E+02  0.97448126724E+03  0.97680712551E+03  0.00000000000E+00 0. -1.
        -14    1    5    5    0    0 -0.23131862524E+02  0.17812011428E+02  0.14625852413E+03  0.14914391270E+03  0.00000000000E+00 0.  1.
          5    1    4    4  501    0 -0.41232106099E+02  0.39929943929E+01 -0.66156168313E+01  0.42157672654E+02  0.41800000000E+01 0. -1.
         -5    1    4    4    0  501 -0.65675261793E+02 -0.87098925735E+02 -0.25994038221E+03  0.28193250536E+03  0.41800000000E+01 0. -1.
</event>
<event>
11    1  0.8041700E-009  0.1395907E+03  0.7561462E-02  0.1108016E+00
         22   -1    0    0    0    0  0.00000000000E+00  0.00000000000E+00  0.13125911112E+04  0.13125911112E+04  0.00000000000E+00 0. -1.
         22   -1    0    0    0    0 -0.00000000000E+00 -0.00000000000E+00 -0.71987340569E+03  0.71987340569E+03  0.00000000000E+00 0. -1.
         24    2    1    2    0    0 -0.54907156205E+02  0.31387817723E+02 -0.60240157814E+03  0.61132402241E+03  0.82640233128E+02 0.  0.
         25    2    1    2    0    0  0.28730423782E+02 -0.48832081959E+02 -0.70112816537E+02  0.15418497335E+03  0.12508872645E+03 0.  0.
        -24    2    1    2    0    0  0.26176732423E+02  0.17444264236E+02  0.12652321002E+04  0.12669555211E+04  0.58090459618E+02 0.  0.
        -13    1    3    3    0    0  0.18035924084E+02  0.77887492556E+01 -0.24530487542E+03  0.24609031082E+03  0.00000000000E+00 0.  1.
         14    1    3    3    0    0 -0.72943080290E+02  0.23599068467E+02 -0.35709670271E+03  0.36523371159E+03  0.00000000000E+00 0. -1.
         13    1    5    5    0    0 -0.13381638098E+01  0.16052568663E+02  0.10284370854E+04  0.10285632281E+04  0.00000000000E+00 0. -1.
        -14    1    5    5    0    0  0.27514896233E+02  0.13916955728E+01  0.23679501483E+03  0.23839229303E+03  0.00000000000E+00 0.  1.
          5    1    4    4  501    0  0.49442439491E+02  0.59572165207E+01  0.13726521652E+02  0.51825988155E+02  0.41800000000E+01 0. -1.
         -5    1    4    4    0  501 -0.20712015709E+02 -0.54789298479E+02 -0.83839338189E+02  0.10235898520E+03  0.41800000000E+01 0. -1.
</event>
<event>
11    1  0.8041700E-009  0.1487697E+03  0.7561462E-02  0.1098143E+00
         22   -1    0    0    0    0  0.00000000000E+00  0.00000000000E+00  0.28404274454E+04  0.28404274454E+04  0.00000000000E+00 0. -1.
         22   -1    0    0    0    0 -0.00000000000E+00 -0.00000000000E+00 -0.81934359942E+03  0.81934359942E+03  0.00000000000E+00 0. -1.
         24    2    1    2    0    0  0.23774668934E+02  0.73634677215E+02 -0.69850393979E+03  0.70743025488E+03  0.81009326886E+02 0.  0.
         25    2    1    2    0    0 -0.22238274583E+02 -0.13047953224E+03 -0.43709987027E+02  0.18729215248E+03  0.12509331806E+03 0.  0.
        -24    2    1    2    0    0 -0.15363943513E+01  0.56844855023E+02  0.27632977728E+04  0.27650486375E+04  0.80285044097E+02 0.  0.
        -13    1    3    3    0    0  0.48056249152E+02  0.18070199552E+02 -0.33040855489E+03  0.33437366573E+03  0.00000000000E+00 0.  1.
         14    1    3    3    0    0 -0.24281580218E+02  0.55564477664E+02 -0.36809538491E+03  0.37305658915E+03  0.00000000000E+00 0. -1.
         11    1    5    5    0    0 -0.37092866117E+01  0.56065893665E+01  0.20082288747E+04  0.20082401265E+04  0.00000000000E+00 0. -1.
        -12    1    5    5    0    0  0.21728922604E+01  0.51238265656E+02  0.75506889814E+03  0.75680851097E+03  0.00000000000E+00 0.  1.
          5    1    4    4  501    0 -0.64659315536E+02 -0.10537899860E+03 -0.56799337463E+02  0.13612199517E+03  0.41800000000E+01 0.  1.
         -5    1    4    4    0  501  0.42421040953E+02 -0.25100533635E+02  0.13089350436E+02  0.51170157310E+02  0.41800000000E+01 0.  1.
</event>
<event>
11    1  0.8041700E-009  0.1382492E+03  0.7561462E-02  0.1109529E+00
         22   -1    0    0    0    0  0.00000000000E+00  0.00000000000E+00  0.38814243972E+03  0.38814243972E+03  0.00000000000E+00 0. -1.
         22   -1    0    0    0    0 -0.00000000000E+00 -0.00000000000E+00 -0.13105599916E+03  0.13105599916E+03  0.00000000000E+00 0.  1.
        -24    2    1    2    0    0  0.13862146705E+02  0.59345551969E+02 -0.47533290628E+02  0.11133809630E+03  0.80141776370E+02 0.  0.
         25    2    1    2    0    0  0.11133359196E+02 -0.55338738030E+02  0.60056076605E+02  0.14976482501E+03  0.12504576306E+03 0.  0.
         24    2    1    2    0    0 -0.24995505900E+02 -0.40068139386E+01  0.24456365458E+03  0.25809551757E+03  0.78492580413E+02 0.  0.
        -13    1    5    5    0    0  0.75463266010E+01 -0.35162081396E+02  0.13306915326E+03  0.13784309400E+03  0.00000000000E+00 0.  1.
         14    1    5    5    0    0 -0.32541832501E+02  0.31155267457E+02  0.11149450131E+03  0.12025242357E+03  0.00000000000E+00 0. -1.
         11    1    3    3    0    0 -0.14823245754E+01 -0.11216438602E+01  0.19603586618E+02  0.19691520494E+02  0.00000000000E+00 0. -1.
        -12    1    3    3    0    0  0.15344471280E+02  0.60467195829E+02 -0.67136877246E+02  0.91646575804E+02  0.00000000000E+00 0.  1.
          5    1    4    4  501    0  0.59717086866E+02 -0.59540078286E+02  0.20626323509E+02  0.86914147338E+02  0.41800000000E+01 0.  1.
         -5    1    4    4    0  501 -0.48583727670E+02  0.42013402556E+01  0.39429753096E+02  0.62850677669E+02  0.41800000000E+01 0.  1.
</event>
<event>
11    1  0.8041700E-009  0.1330412E+03  0.7561462E-02  0.1115588E+00
         22   -1    0    0    0    0  0.00000000000E+00  0.00000000000E+00  0.21557373450E+03  0.21557373450E+03  0.00000000000E+00 0. -1.
         22   -1    0    0    0    0 -0.00000000000E+00 -0.00000000000E+00 -0.28452203027E+03  0.28452203027E+03  0.00000000000E+00 0. -1.
         24    2    1    2    0    0 -0.19626997791E+02 -0.59728702661E+02 -0.13140124817E+03  0.16760757955E+03  0.82905221415E+02 0.  0.
         25    2    1    2    0    0 -0.65760903827E+01  0.15789225723E+02 -0.88466491999E+02  0.15416251208E+03  0.12508882968E+03 0.  0.
        -24    2    1    2    0    0  0.26203088174E+02  0.43939476938E+02  0.15091944440E+03  0.17832567314E+03  0.80038038085E+02 0.  0.
        -13    1    3    3    0    0 -0.80424247203E+01 -0.36151328906E+02 -0.36853856410E+01  0.37218023112E+02  0.00000000000E+00 0.  1.
         14    1    3    3    0    0 -0.11584573071E+02 -0.23577373755E+02 -0.12771586253E+03  0.13038955644E+03  0.00000000000E+00 0. -1.
         11    1    5    5    0    0  0.31930228022E+02  0.43077881008E+00  0.12117284160E+03  0.12530994602E+03  0.00000000000E+00 0. -1.
        -12    1    5    5    0    0 -0.57271398483E+01  0.43508698128E+02  0.29746602802E+02  0.53015727118E+02  0.00000000000E+00 0.  1.
          5    1    4    4  501    0 -0.59163519857E+02 -0.22321804646E+01 -0.77048436610E+02  0.97258617590E+02  0.41800000000E+01 0. -1.
         -5    1    4    4    0  501  0.52587429475E+02  0.18021406187E+02 -0.11418055389E+02  0.56903894494E+02  0.41800000000E+01 0. -1.
</event>
<event>
11    1  0.8041700E-009  0.1484173E+03  0.7561462E-02  0.1098507E+00
         22   -1    0    0    0    0  0.00000000000E+00  0.00000000000E+00  0.41292026656E+03  0.41292026656E+03  0.00000000000E+00 0.  1.
         22   -1    0    0    0    0 -0.00000000000E+00 -0.00000000000E+00 -0.39151338088E+04  0.39151338088E+04  0.00000000000E+00 0. -1.
        -24    2    1    2    0    0 -0.13207280671E+02 -0.17310452874E+02 -0.36689789364E+04  0.36699449037E+04  0.81333120178E+02 0.  0.
         25    2    1    2    0    0  0.53539407371E+02 -0.51937603765E+02 -0.21501728119E+03  0.25970491839E+03  0.12510088168E+03 0.  0.
         24    2    1    2    0    0 -0.40332126700E+02  0.69248056638E+02  0.38178267533E+03  0.39840425328E+03  0.80907132314E+02 0.  0.
        -13    1    5    5    0    0 -0.61608523302E+02  0.66531313487E+02  0.33278994995E+03  0.34492198626E+03  0.00000000000E+00 0.  1.
         14    1    5    5    0    0  0.21276396602E+02  0.27167431512E+01  0.48992725377E+02  0.53482267020E+02  0.00000000000E+00 0. -1.
         13    1    3    3    0    0 -0.47136115841E+02 -0.38604336501E+01 -0.22470208452E+04  0.22475184971E+04  0.00000000000E+00 0. -1.
        -14    1    3    3    0    0  0.33928835171E+02 -0.13450019223E+02 -0.14219580913E+04  0.14224264066E+04  0.00000000000E+00 0.  1.
          5    1    4    4  501    0  0.35850951708E+02 -0.62661729377E+01  0.24844411173E+01  0.36717850009E+02  0.41800000000E+01 0.  1.
         -5    1    4    4    0  501  0.17688455663E+02 -0.45671430827E+02 -0.21750172231E+03  0.22298706838E+03  0.41800000000E+01 0.  1.
</event>
<event>
11    1  0.8041700E-009  0.1722441E+03  0.7561462E-02  0.1076095E+00
         22   -1    0    0    0    0  0.00000000000E+00  0.00000000000E+00  0.44870762585E+03  0.44870762585E+03  0.00000000000E+00 0. -1.
         22   -1    0    0    0    0 -0.00000000000E+00 -0.00000000000E+00 -0.60876100129E+03  0.60876100129E+03  0.00000000000E+00 0.  1.
        -24    2    1    2    0    0 -0.95621689531E+02  0.56227456413E+01 -0.51356066462E+03  0.53151101281E+03  0.97899324407E+02 0.  0.
         25    2    1    2    0    0  0.10573833638E+03  0.11039243697E+03  0.70178534985E+02  0.20962247352E+03  0.12509783657E+03 0.  0.
         24    2    1    2    0    0 -0.10116646848E+02 -0.11601518261E+03  0.28332875420E+03  0.31633514080E+03  0.78935855053E+02 0.  0.
        -11    1    5    5    0    0  0.79684752311E+01 -0.94990262256E+02  0.13396152479E+03  0.16441513508E+03  0.00000000000E+00 0.  1.
         12    1    5    5    0    0 -0.18085122079E+02 -0.21024920351E+02  0.14936722941E+03  0.15192000572E+03  0.00000000000E+00 0. -1.
         13    1    3    3    0    0 -0.85629934002E+01  0.17768590525E+01  0.17204673120E+01  0.89130293299E+01  0.00000000000E+00 0. -1.
        -14    1    3    3    0    0 -0.87058696131E+02  0.38458865888E+01 -0.51528113193E+03  0.52259798348E+03  0.00000000000E+00 0.  1.
          5    1    4    4  501    0  0.77242443399E+02  0.98529436088E+02  0.10460249656E+03  0.16319803775E+03  0.41800000000E+01 0. -1.
         -5    1    4    4    0  501  0.28495892981E+02  0.11863000879E+02 -0.34423961575E+02  0.46424435776E+02  0.41800000000E+01 0. -1.
</event>
<event>
11    1  0.8041700E-009  0.1323274E+03  0.7561462E-02  0.1116442E+00
         22   -1    0    0    0    0  0.00000000000E+00  0.00000000000E+00  0.25948872371E+04  0.25948872371E+04  0.00000000000E+00 0. -1.
         22   -1    0    0    0    0 -0.00000000000E+00 -0.00000000000E+00 -0.24170073702E+02  0.24170073702E+02  0.00000000000E+00 0.  1.
         24    2    1    2    0    0 -0.26506022078E+02 -0.34318027359E+02  0.12059152304E+03  0.15021505575E+03  0.78370602500E+02 0.  0.
         25    2    1    2    0    0  0.13080550390E+02  0.42724748831E+02  0.50946212185E+03  0.52649362226E+03  0.12508947085E+03 0.  0.
        -24    2    1    2    0    0  0.13425471687E+02 -0.84067214719E+01  0.19406635185E+04  0.19423486328E+04  0.79324668266E+02 0.  0.
        -11    1    3    3    0    0 -0.26229673391E+02 -0.53469378540E+02  0.52208547206E+02  0.79200395258E+02  0.00000000000E+00 0.  1.
         12    1    3    3    0    0 -0.27634868615E+00  0.19151351181E+02  0.68382975832E+02  0.71014660489E+02  0.00000000000E+00 0. -1.
         11    1    5    5    0    0  0.37737904179E+02 -0.30105115944E+02  0.11330118367E+04  0.11340398095E+04  0.00000000000E+00 0. -1.
        -12    1    5    5    0    0 -0.24312432492E+02  0.21698394472E+02  0.80765168177E+03  0.80830882326E+03  0.00000000000E+00 0.  1.
          5    1    4    4  501    0  0.26138942940E+02  0.72758104343E+02  0.18768728111E+03  0.20302949041E+03  0.41800000000E+01 0. -1.
         -5    1    4    4    0  501 -0.13058392550E+02 -0.30033355512E+02  0.32177484075E+03  0.32346413185E+03  0.41800000000E+01 0. -1.
</event>
<event>
11    1  0.8041700E-009  0.1274551E+03  0.7561462E-02  0.1122436E+00
         22   -1    0    0    0    0  0.00000000000E+00  0.00000000000E+00  0.84303775461E+02  0.84303775461E+02  0.00000000000E+00 0. -1.
         22   -1    0    0    0    0 -0.00000000000E+00 -0.00000000000E+00 -0.52006448511E+03  0.52006448511E+03  0.00000000000E+00 0. -1.
        -24    2    1    2    0    0  0.49363457428E+02 -0.32696044492E+02 -0.27640947247E+03  0.28903598432E+03  0.60281187030E+02 0.  0.
         25    2    1    2    0    0 -0.29004488102E+02  0.48498898154E+02 -0.18143104381E+03  0.22750652614E+03  0.12509433371E+03 0.  0.
         24    2    1    2    0    0 -0.20358969326E+02 -0.15802853663E+02  0.22079806620E+02  0.87825750113E+02  0.81003868468E+02 0.  0.
        -11    1    5    5    0    0  0.16051172109E+01 -0.41536118242E+02 -0.82625820248E+01  0.42380370239E+02  0.00000000000E+00 0.  1.
         12    1    5    5    0    0 -0.21964086537E+02  0.25733264579E+02  0.30342388645E+02  0.45445379875E+02  0.00000000000E+00 0. -1.
         13    1    3    3    0    0  0.26255897450E+02 -0.27276105052E+02 -0.25258466875E+03  0.25540628994E+03  0.00000000000E+00 0. -1.
        -14    1    3    3    0    0  0.23107559978E+02 -0.54199394393E+01 -0.23824803721E+02  0.33629694379E+02  0.00000000000E+00 0.  1.
          5    1    4    4  501    0  0.20243346248E+02 -0.73766542643E+01  0.84342739168E+01  0.23512070771E+02  0.41800000000E+01 0.  1.
         -5    1    4    4    0  501 -0.49247834350E+02  0.55875552419E+02 -0.18986531772E+03  0.20399445537E+03  0.41800000000E+01 0.  1.
</event>
<event>
11    1  0.8041700E-009  0.2013430E+03  0.7561462E-02  0.1053578E+00
         22   -1    0    0    0    0  0.00000000000E+00  0.00000000000E+00  0.15112001652E+04  0.15112001652E+04  0.00000000000E+00 0. -1.
         22   -1    0    0    0    0 -0.00000000000E+00 -0.00000000000E+00 -0.84757923951E+03  0.84757923951E+03  0.00000000000E+00 0.  1.
        -24    2    1    2    0    0 -0.12617344031E+03  0.95235873999E+02 -0.82513361975E+03  0.84389382215E+03  0.79509017603E+02 0.  0.
         25    2    1    2    0    0  0.94075680456E+02 -0.92644631748E+02  0.77561134928E+03  0.79665350315E+03  0.12510226817E+03 0.  0.
         24    2    1    2    0    0  0.32097759854E+02 -0.25912422512E+01  0.71314319618E+03  0.71823207943E+03  0.79038730610E+02 0.  0.
        -13    1    5    5    0    0  0.46132897462E+01 -0.47885446777E+01  0.25770381403E+01  0.71311799858E+01  0.00000000000E+00 0.  1.
         14    1    5    5    0    0  0.27484470108E+02  0.21973024265E+01  0.71056615804E+03  0.71110089944E+03  0.00000000000E+00 0. -1.
         11    1    3    3    0    0 -0.67610154914E+02  0.41775861546E+01 -0.36100011788E+03  0.36730051781E+03  0.00000000000E+00 0. -1.
        -12    1    3    3    0    0 -0.58563285395E+02  0.91058287844E+02 -0.46413350187E+03  0.47659330434E+03  0.00000000000E+00 0.  1.
          5    1    4    4  501    0  0.61714647545E+02 -0.98457186536E+02  0.33138139992E+03  0.35118886644E+03  0.41800000000E+01 0. -1.
         -5    1    4    4    0  501  0.32361032911E+02  0.58125547889E+01  0.44422994937E+03  0.44546463671E+03  0.41800000000E+01 0. -1.
</event>
<event>
11    1  0.8041700E-009  0.2157569E+03  0.7561462E-02  0.1043908E+00
         22   -1    0    0    0    0  0.00000000000E+00  0.00000000000E+00  0.58550634270E+03  0.58550634270E+03  0.00000000000E+00 0.  1.
         22   -1    0    0    0    0 -0.00000000000E+00 -0.00000000000E+00 -0.20008348295E+04  0.20008348295E+04  0.00000000000E+00 0.  1.
         24    2    1    2    0    0 -0.16202992799E+03 -0.87275025773E+02 -0.18743566787E+04  0.18850671440E+04  0.79965934873E+02 0.  0.
         25    2    1    2    0    0  0.99504201464E+02  0.63094367086E+00 -0.55884489319E+02  0.16932986550E+03  0.12509213806E+03 0.  0.
        -24    2    1    2    0    0  0.62525726521E+02  0.86644082102E+02  0.51491268120E+03  0.53194416271E+03  0.80080331775E+02 0.  0.
        -13    1    3    3    0    0 -0.16310188996E+03 -0.97429471773E+02 -0.18033457773E+04  0.18133258728E+04  0.00000000000E+00 0.  1.
         14    1    3    3    0    0  0.10719619728E+01  0.10154446000E+02 -0.71010901428E+02  0.71741271230E+02  0.00000000000E+00 0. -1.
         13    1    5    5    0    0  0.27038395630E+02 -0.57131638957E+01  0.55518627132E+02  0.62016393305E+02  0.00000000000E+00 0. -1.
        -14    1    5    5    0    0  0.35487330891E+02  0.92357245998E+02  0.45939405407E+03  0.46992776940E+03  0.00000000000E+00 0.  1.
          5    1    4    4  501    0  0.12644183555E+03 -0.15458924478E+02 -0.38115111602E+02  0.13302913311E+03  0.41800000000E+01 0.  1.
         -5    1    4    4    0  501 -0.26937634091E+02  0.16089868149E+02 -0.17769377717E+02  0.36300732388E+02  0.41800000000E+01 0.  1.
</event>
<event>
11    1  0.8041700E-009  0.1631472E+03  0.7561462E-02  0.1084154E+00
         22   -1    0    0    0    0  0.00000000000E+00  0.00000000000E+00  0.33408893922E+03  0.33408893922E+03  0.00000000000E+00 0. -1.
         22   -1    0    0    0    0 -0.00000000000E+00 -0.00000000000E+00 -0.21404443032E+03  0.21404443032E+03  0.00000000000E+00 0.  1.
         24    2    1    2    0    0 -0.43214849436E+02  0.86673129173E+01 -0.12673811992E+03  0.15651547638E+03  0.80572313983E+02 0.  0.
         25    2    1    2    0    0  0.22490645284E+02  0.98931951594E+02  0.90051146986E+02  0.18452372838E+03  0.12508571897E+03 0.  0.
        -24    2    1    2    0    0  0.20724204153E+02 -0.10759926451E+03  0.15673148182E+03  0.20709416478E+03  0.79474155126E+02 0.  0.
        -11    1    3    3    0    0 -0.47017777409E+02 -0.22650365613E+02 -0.10767292347E+03  0.11965437269E+03  0.00000000000E+00 0.  1.
         12    1    3    3    0    0  0.38029279723E+01  0.31317678530E+02 -0.19065196449E+02  0.36861103691E+02  0.00000000000E+00 0. -1.
         13    1    5    5    0    0  0.43522999504E+02 -0.79655000873E+02  0.74952617082E+02  0.11771603738E+03  0.00000000000E+00 0. -1.
        -14    1    5    5    0    0 -0.22798795351E+02 -0.27944263638E+02  0.81778864738E+02  0.89378127400E+02  0.00000000000E+00 0.  1.
          5    1    4    4  501    0 -0.86828785423E+01  0.11239221994E+03  0.97968520587E+02  0.14940785424E+03  0.41800000000E+01 0.  1.
         -5    1    4    4    0  501  0.31173523826E+02 -0.13460268348E+02 -0.79173736002E+01  0.35115874138E+02  0.41800000000E+01 0.  1.
</event>
<event>
11    1  0.8041700E-009  0.1311694E+03  0.7561462E-02  0.1117840E+00
         22   -1    0    0    0    0  0.00000000000E+00  0.00000000000E+00  0.32444442166E+04  0.32444442166E+04  0.00000000000E+00 0. -1.
         22   -1    0    0    0    0 -0.00000000000E+00 -0.00000000000E+00 -0.16357599749E+04  0.16357599749E+04  0.00000000000E+00 0. -1.
        -24    2    1    2    0    0  0.71447064112E+01  0.29761136700E+02 -0.15724850238E+04  0.15749165411E+04  0.81952358985E+02 0.  0.
         25    2    1    2    0    0  0.22694661207E+02 -0.55356839081E+02  0.16834896953E+02  0.13968320758E+03  0.12509419428E+03 0.  0.
         24    2    1    2    0    0 -0.29839367618E+02  0.25595702381E+02  0.31643343685E+04  0.31656044428E+04  0.80585139078E+02 0.  0.
        -13    1    5    5    0    0 -0.35947177226E+02 -0.20760388300E+02  0.12133981586E+04  0.12141080201E+04  0.00000000000E+00 0.  1.
         14    1    5    5    0    0  0.61078096082E+01  0.46356090681E+02  0.19509362100E+04  0.19514964227E+04  0.00000000000E+00 0. -1.
         11    1    3    3    0    0  0.37020753625E+02  0.77862043237E+01 -0.11985356824E+04  0.11991325795E+04  0.00000000000E+00 0. -1.
        -12    1    3    3    0    0 -0.29876047214E+02  0.21974932376E+02 -0.37394934143E+03  0.37578396162E+03  0.00000000000E+00 0.  1.
          5    1    4    4  501    0  0.37980210961E+02 -0.53107588678E+02 -0.42639360765E+02  0.78092892675E+02  0.41800000000E+01 0. -1.
         -5    1    4    4    0  501 -0.15285549755E+02 -0.22492504029E+01  0.59474257718E+02  0.61590314902E+02  0.41800000000E+01 0. -1.
</event>
<event>
11    1  0.8041700E-009  0.1868552E+03  0.7561462E-02  0.1064229E+00
         22   -1    0    0    0    0  0.00000000000E+00  0.00000000000E+00  0.93142878730E+03  0.93142878730E+03  0.00000000000E+00 0. -1.
         22   -1    0    0    0    0 -0.00000000000E+00 -0.00000000000E+00 -0.75254539275E+03  0.75254539275E+03  0.00000000000E+00 0. -1.
         24    2    1    2    0    0  0.13478543707E+03 -0.26505820706E+02 -0.69944824602E+03  0.71774205035E+03  0.84000770263E+02 0.  0.
         25    2    1    2    0    0 -0.19209017265E+03  0.11564445805E+02  0.29326136770E+03  0.37240472140E+03  0.12510266143E+03 0.  0.
        -24    2    1    2    0    0  0.57304735581E+02  0.14941374901E+02  0.58507027287E+03  0.59382740831E+03  0.82563243954E+02 0.  0.
        -11    1    3    3    0    0 -0.81865279292E+01  0.10399598737E+02 -0.50309507206E+02  0.52021316869E+02  0.00000000000E+00 0.  1.
         12    1    3    3    0    0  0.14297196500E+03 -0.36905419443E+02 -0.64913873881E+03  0.66572073348E+03  0.00000000000E+00 0. -1.
         11    1    5    5    0    0  0.76294893846E+02  0.19197471066E+02  0.51972105170E+03  0.52564191738E+03  0.00000000000E+00 0. -1.
        -12    1    5    5    0    0 -0.18990158265E+02 -0.42560961648E+01  0.65349221170E+02  0.68185490927E+02  0.00000000000E+00 0.  1.
          5    1    4    4  501    0 -0.72592254330E+02 -0.41305108301E+02  0.18366297777E+03  0.20180512670E+03  0.41800000000E+01 0. -1.
         -5    1    4    4    0  501 -0.11949791832E+03  0.52869554106E+02  0.10959838993E+03  0.17059959470E+03  0.41800000000E+01 0. -1.
</event>
<event>
11    1  0.8041700E-009  0.1709660E+03  0.7561462E-02  0.1077194E+00
         22   -1    0    0    0    0  0.00000000000E+00  0.00000000000E+00  0.14845277375E+04  0.14845277375E+04  0.00000000000E+00 0.  1.
         22   -1    0    0    0    0 -0.00000000000E+00 -0.00000000000E+00 -0.36970476164E+03  0.36970476164E+03  0.00000000000E+00 0. -1.
        -24    2    1    2    0    0 -0.82339229985E+00 -0.63541855262E+02 -0.33944142220E+03  0.35457562626E+03  0.80406158273E+02 0.  0.
         25    2    1    2    0    0  0.11674619417E+03  0.39855825219E+02  0.41455317202E+03  0.45024525487E+03  0.12509315109E+03 0.  0.
         24    2    1    2    0    0 -0.11592280187E+03  0.23686030043E+02  0.10397112261E+04  0.10494116180E+04  0.79159247171E+02 0.  0.
        -13    1    5    5    0    0 -0.81205897706E+02 -0.20431165867E+02  0.71455583674E+03  0.71944553246E+03  0.00000000000E+00 0.  1.
         14    1    5    5    0    0 -0.34716904160E+02  0.44117195910E+02  0.32515538933E+03  0.32996608556E+03  0.00000000000E+00 0. -1.
         11    1    3    3    0    0  0.78063613920E+01  0.13362639457E+02 -0.13659086870E+03  0.13746477667E+03  0.00000000000E+00 0. -1.
        -12    1    3    3    0    0 -0.86297536918E+01 -0.76904494719E+02 -0.20285055350E+03  0.21711084960E+03  0.00000000000E+00 0.  1.
          5    1    4    4  501    0  0.84142537099E+02  0.84502494303E+02  0.26077791211E+03  0.28678080469E+03  0.41800000000E+01 0. -1.
         -5    1    4    4    0  501  0.32603657067E+02 -0.44646669084E+02  0.15377525990E+03  0.16346445018E+03  0.41800000000E+01 0. -1.
</event>
<event>
11    1  0.8041700E-009  0.1336650E+03  0.7561462E-02  0.1114846E+00
         22   -1    0    0    0    0  0.00000000000E+00  0.00000000000E+00  0.45000321679E+03  0.45000321679E+03  0.00000000000E+00 0. -1.
         22   -1    0    0    0    0 -0.00000000000E+00 -0.00000000000E+00 -0.76478779812E+03  0.76478779812E+03  0.00000000000E+00 0. -1.
        -24    2    1    2    0    0  0.26357618173E+01 -0.47013515290E+02 -0.70029947004E+03  0.70651306234E+03  0.80772158937E+02 0.  0.
         25    2    1    2    0    0 -0.17626210950E+01  0.47588729940E+02  0.21425456662E+02  0.13555099851E+03  0.12508888421E+03 0.  0.
         24    2    1    2    0    0 -0.87314072230E+00 -0.57521464954E+00  0.36408943205E+03  0.37272695406E+03  0.79769508662E+02 0.  0.
        -13    1    5    5    0    0 -0.25146194442E+02  0.29120714237E+02  0.13212486291E+03  0.13761295903E+03  0.00000000000E+00 0.  1.
         14    1    5    5    0    0  0.24273053719E+02 -0.29695928886E+02  0.23196456913E+03  0.23511399504E+03  0.00000000000E+00 0. -1.
         13    1    3    3    0    0  0.25072986066E+02  0.12533453452E+02 -0.28373878856E+03  0.28512004879E+03  0.00000000000E+00 0. -1.
        -14    1    3    3    0    0 -0.22437224249E+02 -0.59546968742E+02 -0.41656068148E+03  0.42139301356E+03  0.00000000000E+00 0.  1.
          5    1    4    4  501    0 -0.57598402995E+01 -0.22303720406E+02 -0.37327317082E+02  0.44061692033E+02  0.41800000000E+01 0.  1.
         -5    1    4    4    0  501  0.39972192045E+01  0.69892450346E+02  0.58752773744E+02  0.91489306476E+02  0.41800000000E+01 0.  1.
</event>
<event>
11    1  0.8041700E-009  0.1494409E+03  0.7561462E-02  0.1097451E+00
         22   -1    0    0    0    0  0.00000000000E+00  0.00000000000E+00  0.15771080410E+04  0.15771080410E+04  0.00000000000E+00 0. -1.
         22   -1    0    0    0    0 -0.00000000000E+00 -0.00000000000E+00 -0.46376148351E+02  0.46376148351E+02  0.00000000000E+00 0.  1.
         24    2    1    2    0    0  0.42082133252E+02  0.40350980090E+01  0.41303823950E+02  0.97204385590E+02  0.77171877975E+02 0.  0.
         25    2    1    2    0    0 -0.75162408941E+02  0.68136586879E+02  0.40052580232E+03  0.43169481656E+03  0.12509002409E+03 0.  0.
        -24    2    1    2    0    0  0.33080275689E+02 -0.72171684888E+02  0.10889022664E+04  0.10945849872E+04  0.78135086586E+02 0.  0.
        -11    1    3    3    0    0  0.54742108527E+02  0.75528409601E+01  0.14925960928E+01  0.55280843839E+02  0.00000000000E+00 0.  1.
         12    1    3    3    0    0 -0.12659975275E+02 -0.35177429512E+01  0.39811227858E+02  0.41923541751E+02  0.00000000000E+00 0. -1.
         11    1    5    5    0    0 -0.77213495874E+01 -0.63035986591E+02  0.81953591311E+03  0.82199286354E+03  0.00000000000E+00 0. -1.
        -12    1    5    5    0    0  0.40801625277E+02 -0.91356982972E+01  0.26936635330E+03  0.27259212370E+03  0.00000000000E+00 0.  1.
          5    1    4    4  501    0 -0.60514954320E+02 -0.45854115515E+01  0.69184801025E+02  0.92125429651E+02  0.41800000000E+01 0.  1.
         -5    1    4    4    0  501 -0.14647454621E+02  0.72721998431E+02  0.33134100130E+03  0.33956938691E+03  0.41800000000E+01 0.  1.
</event>
<event>
11    1  0.8041700E-009  0.1463189E+03  0.7561462E-02  0.1100701E+00
         22   -1    0    0    0    0  0.00000000000E+00  0.00000000000E+00  0.18622396650E+03  0.18622396650E+03  0.00000000000E+00 0.  1.
         22   -1    0    0    0    0 -0.00000000000E+00 -0.00000000000E+00 -0.14869316407E+04  0.14869316407E+04  0.00000000000E+00 0. -1.
         24    2    1    2    0    0 -0.25782670837E+02  0.71792535428E+02 -0.13637125279E+04  0.13683568284E+04  0.82883272515E+02 0.  0.
         25    2    1    2    0    0  0.11896766135E+02 -0.67649935801E+02 -0.60037591006E+02  0.15483422059E+03  0.12510426321E+03 0.  0.
        -24    2    1    2    0    0  0.13885904702E+02 -0.41425996279E+01  0.12304244465E+03  0.14996455825E+03  0.84498201555E+02 0.  0.
        -13    1    3    3    0    0 -0.29310275222E+02 -0.73025902495E+00 -0.17586609416E+03  0.17829332177E+03  0.00000000000E+00 0.  1.
         14    1    3    3    0    0  0.35276043848E+01  0.72522794453E+02 -0.11878464337E+04  0.11900635066E+04  0.00000000000E+00 0. -1.
         11    1    5    5    0    0  0.26088394977E+02  0.35611272575E+02  0.63914447392E+02  0.77677690956E+02  0.00000000000E+00 0. -1.
        -12    1    5    5    0    0 -0.12202490276E+02 -0.39753872203E+02  0.59127997255E+02  0.72286867296E+02  0.00000000000E+00 0.  1.
          5    1    4    4  501    0 -0.87593476682E+01 -0.92671863236E+02 -0.74271148127E+02  0.11915735920E+03  0.41800000000E+01 0.  1.
         -5    1    4    4    0  501  0.20656113804E+02  0.25021927436E+02  0.14233557120E+02  0.35676861386E+02  0.41800000000E+01 0.  1.
</event>
<event>
11    1  0.8041700E-009  0.2870781E+03  0.7561462E-02  0.1005813E+00
         22   -1    0    0    0    0  0.00000000000E+00  0.00000000000E+00  0.14990487099E+04  0.14990487099E+04  0.00000000000E+00 0. -1.
         22   -1    0    0    0    0 -0.00000000000E+00 -0.00000000000E+00 -0.19492934846E+03  0.19492934846E+03  0.00000000000E+00 0. -1.
        -24    2    1    2    0    0  0.61480958252E+02  0.70736719798E+02 -0.72075035750E+02  0.14282789555E+03  0.80133670912E+02 0.  0.
         25    2    1    2    0    0 -0.84469893219E+02 -0.31397714511E+03  0.35250336534E+03  0.49560407883E+03  0.12509184569E+03 0.  0.
         24    2    1    2    0    0  0.22988934967E+02  0.24324042532E+03  0.10236910318E+04  0.10555460840E+04  0.80869098399E+02 0.  0.
        -13    1    5    5    0    0  0.31012153036E+02  0.10066694765E+03  0.30145786139E+03  0.31933122331E+03  0.00000000000E+00 0.  1.
         14    1    5    5    0    0 -0.80232180690E+01  0.14257347766E+03  0.72223317044E+03  0.73621486065E+03  0.00000000000E+00 0. -1.
         11    1    3    3    0    0  0.73615109476E+02  0.69657545362E+02 -0.79281708318E+02  0.12867380170E+03  0.00000000000E+00 0. -1.
        -12    1    3    3    0    0 -0.12134151224E+02  0.10791744361E+01  0.72066725679E+01  0.14154093856E+02  0.00000000000E+00 0.  1.
          5    1    4    4  501    0 -0.19286563632E+02 -0.95292197104E+02  0.19611923697E+03  0.21893561126E+03  0.41800000000E+01 0.  1.
         -5    1    4    4    0  501 -0.65183329587E+02 -0.21868494801E+03  0.15638412837E+03  0.27666846757E+03  0.41800000000E+01 0.  1.
</event>
<event>
11    1  0.8041700E-009  0.1523687E+03  0.7561462E-02  0.1094483E+00
         22   -1    0    0    0    0  0.00000000000E+00  0.00000000000E+00  0.45723465191E+03  0.45723465191E+03  0.00000000000E+00 0. -1.
         22   -1    0    0    0    0 -0.00000000000E+00 -0.00000000000E+00 -0.29887327108E+03  0.29887327108E+03  0.00000000000E+00 0. -1.
         24    2    1    2    0    0 -0.96476893161E+02 -0.11378590599E+02 -0.22275121952E+03  0.25609044479E+03  0.80789522092E+02 0.  0.
         25    2    1    2    0    0  0.29588854183E+02  0.35200638281E+02  0.34972802071E+02  0.13778536728E+03  0.12508846999E+03 0.  0.
        -24    2    1    2    0    0  0.66888038978E+02 -0.23822047682E+02  0.34613979827E+03  0.36223211092E+03  0.79736080441E+02 0.  0.
        -13    1    3    3    0    0 -0.43473940345E+02  0.31562560581E+02 -0.65728581616E+02  0.84890665922E+02  0.00000000000E+00 0.  1.
         14    1    3    3    0    0 -0.53002952816E+02 -0.42941151180E+02 -0.15702263790E+03  0.17119977887E+03  0.00000000000E+00 0. -1.
         11    1    5    5    0    0  0.76936780748E+02 -0.17166045920E+02  0.19103783064E+03  0.20666251256E+03  0.00000000000E+00 0. -1.
        -12    1    5    5    0    0 -0.10048741770E+02 -0.66560017619E+01  0.15510196763E+03  0.15556959836E+03  0.00000000000E+00 0.  1.
          5    1    4    4  501    0  0.34784954307E+02  0.32133654821E+02  0.79514840981E+02  0.92642577439E+02  0.41800000000E+01 0. -1.
         -5    1    4    4    0  501 -0.51961001242E+01  0.30669834597E+01 -0.44542038910E+02  0.45142789838E+02  0.41800000000E+01 0. -1.
</event>
<event>
11    1  0.8041700E-009  0.1429247E+03  0.7561462E-02  0.1104336E+00
         22   -1    0    0    0    0  0.00000000000E+00  0.00000000000E+00  0.47064597529E+03  0.47064597529E+03  0.00000000000E+00 0.  1.
         22   -1    0    0    0    0 -0.00000000000E+00 -0.00000000000E+00 -0.49122091585E+03  0.49122091585E+03  0.00000000000E+00 0.  1.
         24    2    1    2    0    0 -0.12420881566E+02  0.10163965292E+02 -0.29954013737E+03  0.30815029000E+03  0.70531715118E+02 0.  0.
         25    2    1    2    0    0 -0.18349555994E+02 -0.71932808204E+02 -0.15151311727E+03  0.21003547077E+03  0.12509052394E+03 0.  0.
        -24    2    1    2    0    0  0.30770437560E+02  0.61768842911E+02  0.43047831409E+03  0.44368113037E+03  0.82335634854E+02 0.  0.
        -13    1    3    3    0    0 -0.19500706154E+02 -0.25328713316E+02 -0.90015066956E+02  0.95522424267E+02  0.00000000000E+00 0.  1.
         14    1    3    3    0    0  0.70798245882E+01  0.35492678608E+02 -0.20952507042E+03  0.21262786573E+03  0.00000000000E+00 0. -1.
         11    1    5    5    0    0  0.83451299266E+01  0.77489304676E+02  0.27595655645E+03  0.28675120676E+03  0.00000000000E+00 0. -1.
        -12    1    5    5    0    0  0.22425307633E+02 -0.15720461764E+02  0.15452175764E+03  0.15692992361E+03  0.00000000000E+00 0.  1.
          5    1    4    4  501    0  0.31315886807E+02 -0.28479283835E+02 -0.13547385868E+03  0.14199434200E+03  0.41800000000E+01 0. -1.
         -5    1    4    4    0  501 -0.49665442802E+02 -0.43453524368E+02 -0.16039258584E+02  0.68041128773E+02  0.41800000000E+01 0. -1.
</event>
<event>
11    1  0.8041700E-009  0.1622499E+03  0.7561462E-02  0.1084980E+00
         22   -1    0    0    0    0  0.00000000000E+00  0.00000000000E+00  0.12129465159E+04  0.12129465159E+04  0.00000000000E+00 0.  1.
         22   -1    0    0    0    0 -0.00000000000E+00 -0.00000000000E+00 -0.58115337764E+03  0.58115337764E+03  0.00000000000E+00 0. -1.
         24    2    1    2    0    0  0.99568461966E+02 -0.24365525161E+02 -0.48225288599E+03  0.49939438682E+03  0.79494340069E+02 0.  0.
         25    2    1    2    0    0 -0.96544002553E+02  0.70614491127E+02 -0.36938081536E+01  0.17311379606E+03  0.12509033288E+03 0.  0.
        -24    2    1    2    0    0 -0.30244594132E+01 -0.46248965966E+02  0.11177398324E+04  0.11215917107E+04  0.80483031067E+02 0.  0.
        -13    1    3    3    0    0 -0.93019774007E+01  0.10497422822E+02 -0.79690926364E+02  0.80915798299E+02  0.00000000000E+00 0.  1.
         14    1    3    3    0    0  0.10887043937E+03 -0.34862947983E+02 -0.40256195963E+03  0.41847858852E+03  0.00000000000E+00 0. -1.
         13    1    5    5    0    0 -0.30197991494E+02 -0.17607289532E+02  0.20207977177E+03  0.20508088525E+03  0.00000000000E+00 0. -1.
        -14    1    5    5    0    0  0.27173532081E+02 -0.28641676434E+02  0.91566006064E+03  0.91651082543E+03  0.00000000000E+00 0.  1.
          5    1    4    4  501    0 -0.56727338879E+02  0.34923522772E+02  0.60066497164E+02  0.89794765441E+02  0.41800000000E+01 0. -1.
         -5    1    4    4    0  501 -0.39816663675E+02  0.35690968355E+02 -0.63760305318E+02  0.83319030614E+02  0.41800000000E+01 0. -1.
</event>
<event>
11    1  0.8041700E-009  0.3131261E+03  0.7561462E-02  0.9947841E-01
         22   -1    0    0    0    0  0.00000000000E+00  0.00000000000E+00  0.14472457257E+04  0.14472457257E+04  0.00000000000E+00 0.  1.
         22   -1    0    0    0    0 -0.00000000000E+00 -0.00000000000E+00 -0.12324557113E+04  0.12324557113E+04  0.00000000000E+00 0. -1.
         24    2    1    2    0    0 -0.72931303683E+01  0.28764396916E+02 -0.84515692531E+03  0.84726280176E+03  0.51801993837E+02 0.  0.
         25    2    1    2    0    0  0.22754381815E+03 -0.21130427262E+03 -0.29447378728E+03  0.44585283186E+03  0.12507698219E+03 0.  0.
        -24    2    1    2    0    0 -0.22025068779E+03  0.18253987570E+03  0.13544207269E+04  0.13865858034E+04  0.79583371030E+02 0.  0.
        -13    1    3    3    0    0  0.80685064521E+01 -0.11515463332E+02 -0.11909030374E+03  0.11991750137E+03  0.00000000000E+00 0.  1.
         14    1    3    3    0    0 -0.15361636820E+02  0.40279860248E+02 -0.72606662158E+03  0.72734530039E+03  0.00000000000E+00 0. -1.
         13    1    5    5    0    0 -0.53197283417E+02  0.47091968200E+02  0.52283446451E+03  0.52763953767E+03  0.00000000000E+00 0. -1.
        -14    1    5    5    0    0 -0.16705340437E+03  0.13544790750E+03  0.83158626244E+03  0.85894626575E+03  0.00000000000E+00 0.  1.
          5    1    4    4  501    0  0.51281863357E+02 -0.12860065993E+03 -0.10175365370E+03  0.17186982774E+03  0.41800000000E+01 0.  1.
         -5    1    4    4    0  501  0.17626195480E+03 -0.82703612684E+02 -0.19272013358E+03  0.27398300412E+03  0.41800000000E+01 0.  1.
</event>
<event>
11    1  0.8041700E-009  0.1810731E+03  0.7561462E-02  0.1068778E+00
         22   -1    0    0    0    0  0.00000000000E+00  0.00000000000E+00  0.12424046897E+04  0.12424046897E+04  0.00000000000E+00 0. -1.
         22   -1    0    0    0    0 -0.00000000000E+00 -0.00000000000E+00 -0.34633961231E+03  0.34633961231E+03  0.00000000000E+00 0. -1.
        -24    2    1    2    0    0 -0.12540893179E+03  0.45082466384E+02 -0.22571134911E+03  0.27427474511E+03  0.80753908517E+02 0.  0.
         25    2    1    2    0    0  0.13096268424E+03  0.91002810627E+01 -0.69006922276E+01  0.18146317555E+03  0.12508886741E+03 0.  0.
         24    2    1    2    0    0 -0.55537524554E+01 -0.54182747447E+02  0.11286771187E+04  0.11330063813E+04  0.82612393472E+02 0.  0.
        -11    1    5    5    0    0 -0.39518015513E+02 -0.63059401100E+01  0.49619719971E+03  0.49780829586E+03  0.00000000000E+00 0.  1.
         12    1    5    5    0    0  0.33964263058E+02 -0.47876807337E+02  0.63247991898E+03  0.63519808545E+03  0.00000000000E+00 0. -1.
         11    1    3    3    0    0 -0.77635270872E+02  0.32131293396E+02 -0.20322357895E+03  0.21990788603E+03  0.00000000000E+00 0. -1.
        -12    1    3    3    0    0 -0.47773660914E+02  0.12951172989E+02 -0.22487770158E+02  0.54366859074E+02  0.00000000000E+00 0.  1.
          5    1    4    4  501    0  0.53283310483E+02 -0.28695044716E+02 -0.55530868677E+02  0.82241513504E+02  0.41800000000E+01 0.  1.
         -5    1    4    4    0  501  0.77679373758E+02  0.37795325779E+02  0.48630176450E+02  0.99221662049E+02  0.41800000000E+01 0.  1.
</event>
<event>
11    1  0.8041700E-009  0.3001769E+03  0.7561462E-02  0.1000116E+00
         22   -1    0    0    0    0  0.00000000000E+00  0.00000000000E+00  0.25913064009E+03  0.25913064009E+03  0.00000000000E+00 0.  1.
         22   -1    0    0    0    0 -0.00000000000E+00 -0.00000000000E+00 -0.11912832913E+04  0.11912832913E+04  0.00000000000E+00 0.  1.
        -24    2    1    2    0    0  0.29208433064E+03 -0.39788966927E+02 -0.93151747549E+03  0.98018692032E+03  0.78391157208E+02 0.  0.
         25    2    1    2    0    0 -0.21116699789E+03 -0.24471896707E+02 -0.13566672460E+03  0.28150380118E+03  0.12509418527E+03 0.  0.
         24    2    1    2    0    0 -0.80917332742E+02  0.64260863634E+02  0.13503154890E+03  0.18872320987E+03  0.81889299751E+02 0.  0.
        -13    1    5    5    0    0 -0.37605026376E+02  0.47453152065E+02  0.12818130772E+03  0.14176172720E+03  0.00000000000E+00 0.  1.
         14    1    5    5    0    0 -0.43312306366E+02  0.16807711569E+02  0.68502411816E+01  0.46961482676E+02  0.00000000000E+00 0. -1.
         11    1    3    3    0    0 -0.79809473816E+00 -0.10080946476E+02 -0.42909078507E+02  0.44084594309E+02  0.00000000000E+00 0. -1.
        -12    1    3    3    0    0  0.29288242537E+03 -0.29708020451E+02 -0.88860839698E+03  0.93610232601E+03  0.00000000000E+00 0.  1.
          5    1    4    4  501    0 -0.10091091841E+03 -0.69819889635E+02 -0.41771247496E+02  0.12969248228E+03  0.41800000000E+01 0. -1.
         -5    1    4    4    0  501 -0.11025607949E+03  0.45347992928E+02 -0.93895477107E+02  0.15181131891E+03  0.41800000000E+01 0. -1.
</event>
<event>
11    1  0.8041700E-009  0.2034143E+03  0.7561462E-02  0.1052135E+00
         22   -1    0    0    0    0  0.00000000000E+00  0.00000000000E+00  0.74957233982E+03  0.74957233982E+03  0.00000000000E+00 0.  1.
         22   -1    0    0    0    0 -0.00000000000E+00 -0.00000000000E+00 -0.75709905366E+03  0.75709905366E+03  0.00000000000E+00 0. -1.
         24    2    1    2    0    0  0.91389800138E+02  0.13071578649E+03 -0.69196715883E+03  0.71475109641E+03  0.81313396938E+02 0.  0.
         25    2    1    2    0    0 -0.13026306007E+03 -0.12861884314E+03  0.19844235615E+03  0.29755403922E+03  0.12509103051E+03 0.  0.
        -24    2    1    2    0    0  0.38873259934E+02 -0.20969433467E+01  0.48599808884E+03  0.49436625785E+03  0.81782192632E+02 0.  0.
        -13    1    3    3    0    0  0.34348370570E+02 -0.14765865070E+01 -0.11050848096E+03  0.11573294792E+03  0.00000000000E+00 0.  1.
         14    1    3    3    0    0  0.57041429568E+02  0.13219237300E+03 -0.58145867786E+03  0.59901814850E+03  0.00000000000E+00 0. -1.
         11    1    5    5    0    0  0.24842532245E+02 -0.35502970189E+02  0.14197190818E+03  0.14843731004E+03  0.00000000000E+00 0. -1.
        -12    1    5    5    0    0  0.14030727689E+02  0.33406026842E+02  0.34402618066E+03  0.34592894781E+03  0.00000000000E+00 0.  1.
          5    1    4    4  501    0 -0.43459560855E+02  0.16324908345E+02  0.74873545544E+02  0.88197257806E+02  0.41800000000E+01 0.  1.
         -5    1    4    4    0  501 -0.86803499217E+02 -0.14494375149E+03  0.12356881060E+03  0.20935678142E+03  0.41800000000E+01 0.  1.
</event>
<event>
11    1  0.8041700E-009  0.1584313E+03  0.7561462E-02  0.1088562E+00
         22   -1    0    0    0    0  0.00000000000E+00  0.00000000000E+00  0.72536809074E+03  0.72536809074E+03  0.00000000000E+00 0. -1.
         22   -1    0    0    0    0 -0.00000000000E+00 -0.00000000000E+00 -0.21399350351E+03  0.21399350351E+03  0.00000000000E+00 0. -1.
         24    2    1    2    0    0 -0.96848631842E+02  0.46587889468E+02 -0.10990123873E+03  0.17350589486E+03  0.80473128075E+02 0.  0.
         25    2    1    2    0    0  0.82262036122E+02  0.20928990254E+02  0.21453137413E+02  0.15268634790E+03  0.12509124074E+03 0.  0.
        -24    2    1    2    0    0  0.14586595721E+02 -0.67516879721E+02  0.59982268855E+03  0.61316935149E+03  0.10685550095E+03 0.  0.
        -11    1    3    3    0    0  0.12762672669E+02  0.15751917937E+02 -0.19325128816E+02  0.28008379748E+02  0.00000000000E+00 0.  1.
         12    1    3    3    0    0 -0.10961130451E+03  0.30835971531E+02 -0.90576109918E+02  0.14549751512E+03  0.00000000000E+00 0. -1.
         13    1    5    5    0    0  0.42736690128E+02 -0.58756390259E+02  0.55358446589E+03  0.55833188961E+03  0.00000000000E+00 0. -1.
        -14    1    5    5    0    0 -0.28150094407E+02 -0.87604894625E+01  0.46238222662E+02  0.54837461882E+02  0.00000000000E+00 0.  1.
          5    1    4    4  501    0  0.46521810423E+02 -0.26903314919E+02 -0.39829850420E+02  0.67022060422E+02  0.41800000000E+01 0. -1.
         -5    1    4    4    0  501  0.35740225699E+02  0.47832305173E+02  0.61282987833E+02  0.85664287477E+02  0.41800000000E+01 0. -1.
</event>
<event>
11    1  0.8041700E-009  0.2058535E+03  0.7561462E-02  0.1050460E+00
         22   -1    0    0    0    0  0.00000000000E+00  0.00000000000E+00  0.43235470913E+03  0.43235470913E+03  0.00000000000E+00 0.  1.
         22   -1    0    0    0    0 -0.00000000000E+00 -0.00000000000E+00 -0.99782784558E+03  0.99782784558E+03  0.00000000000E+00 0.  1.
        -24    2    1    2    0    0  0.75657896408E+02 -0.14165686587E+03 -0.86947543026E+03  0.88772660118E+03  0.79247774066E+02 0.  0.
         25    2    1    2    0    0 -0.13624647668E+03  0.16369949128E+03  0.36669852319E+02  0.24970342278E+03  0.12508595216E+03 0.  0.
         24    2    1    2    0    0  0.60588580271E+02 -0.22042625409E+02  0.26733244148E+03  0.29275253074E+03  0.10040197503E+03 0.  0.
        -11    1    5    5    0    0  0.24042401101E+02 -0.43143933514E+01  0.24535706795E+03  0.24656995323E+03  0.00000000000E+00 0.  1.
         12    1    5    5    0    0  0.36546179170E+02 -0.17728232058E+02  0.21975373533E+02  0.46182577513E+02  0.00000000000E+00 0. -1.
         13    1    3    3    0    0  0.55526968810E+02 -0.27729195496E+02 -0.35694882597E+03  0.36230459135E+03  0.00000000000E+00 0. -1.
        -14    1    3    3    0    0  0.20130927599E+02 -0.11392767038E+03 -0.51252660428E+03  0.52542200984E+03  0.00000000000E+00 0.  1.
          5    1    4    4  501    0 -0.14481656276E+03  0.15635559939E+03  0.21749687818E+01  0.21316921260E+03  0.41800000000E+01 0.  1.
         -5    1    4    4    0  501  0.85700860848E+01  0.73438918982E+01  0.34494883537E+02  0.36534210186E+02  0.41800000000E+01 0.  1.
</event>
<event>
11    1  0.8041700E-009  0.1777229E+03  0.7561462E-02  0.1071500E+00
         22   -1    0    0    0    0  0.00000000000E+00  0.00000000000E+00  0.46602800358E+03  0.46602800358E+03  0.00000000000E+00 0.  1.
         22   -1    0    0    0    0 -0.00000000000E+00 -0.00000000000E+00 -0.47287352740E+03  0.47287352740E+03  0.00000000000E+00 0.  1.
        -24    2    1    2    0    0  0.45495774660E+02  0.33847762402E+00 -0.35389759372E+03  0.36504064806E+03  0.77079100999E+02 0.  0.
         25    2    1    2    0    0  0.10120529303E+02  0.11584471554E+03 -0.23949260656E+02  0.17245694611E+03  0.12508160513E+03 0.  0.
         24    2    1    2    0    0 -0.55616303963E+02 -0.11618319316E+03  0.37100133056E+03  0.40140393681E+03  0.83014610604E+02 0.  0.
        -13    1    5    5    0    0 -0.62623509891E+02 -0.36499874466E+02  0.19649244772E+03  0.20943549565E+03  0.00000000000E+00 0.  1.
         14    1    5    5    0    0  0.70072059284E+01 -0.79683318699E+02  0.17450888284E+03  0.19196844116E+03  0.00000000000E+00 0. -1.
         13    1    3    3    0    0  0.45866937436E+02  0.94633825123E+01 -0.94365198038E+02  0.10534762531E+03  0.00000000000E+00 0. -1.
        -14    1    3    3    0    0 -0.37116277639E+00 -0.91249048883E+01 -0.25953239569E+03  0.25969302274E+03  0.00000000000E+00 0.  1.
          5    1    4    4  501    0  0.17007126260E+00 -0.18310693559E+02  0.23198509187E+02  0.29848846734E+02  0.41800000000E+01 0. -1.
         -5    1    4    4    0  501  0.99504580403E+01  0.13415540910E+03 -0.47147769842E+02  0.14260809937E+03  0.41800000000E+01 0. -1.
</event>
<event>
11    1  0.8041700E-009  0.1453778E+03  0.7561462E-02  0.1101698E+00
         22   -1    0    0    0    0  0.00000000000E+00  0.00000000000E+00  0.17812885965E+04  0.17812885965E+04  0.00000000000E+00 0. -1.
         22   -1    0    0    0    0 -0.00000000000E+00 -0.00000000000E+00 -0.29013546680E+03  0.29013546680E+03  0.00000000000E+00 0. -1.
        -24    2    1    2    0    0  0.99098224735E+01 -0.53283329122E+02 -0.23448019168E+03  0.25388840946E+03  0.80876736009E+02 0.  0.
         25    2    1    2    0    0 -0.78838012514E+02  0.77260351948E+02  0.11360379041E+03  0.20183618472E+03  0.12508968810E+03 0.  0.
         24    2    1    2    0    0  0.68928190040E+02 -0.23977022826E+02  0.16120295310E+04  0.16156994691E+04  0.80743871374E+02 0.  0.
        -13    1    5    5    0    0 -0.15177338646E+02 -0.11080367517E+02  0.14625136342E+03  0.14745367901E+03  0.00000000000E+00 0.  1.
         14    1    5    5    0    0  0.84105528686E+02 -0.12896655309E+02  0.14657781676E+04  0.14682457901E+04  0.00000000000E+00 0. -1.
         13    1    3    3    0    0  0.16502878978E+02 -0.70667571358E+02 -0.14101796510E+03  0.15859482065E+03  0.00000000000E+00 0. -1.
        -14    1    3    3    0    0 -0.65930565041E+01  0.17384242237E+02 -0.93462226575E+02  0.95293588812E+02  0.00000000000E+00 0.  1.
          5    1    4    4  501    0 -0.67470622924E+02  0.11054129349E+03  0.10084618093E+03  0.16419222617E+03  0.41800000000E+01 0.  1.
         -5    1    4    4    0  501 -0.11367389590E+02 -0.33280941546E+02  0.12757609476E+02  0.37643958557E+02  0.41800000000E+01 0.  1.
</event>
<event>
11    1  0.8041700E-009  0.1442196E+03  0.7561462E-02  0.1102936E+00
         22   -1    0    0    0    0  0.00000000000E+00  0.00000000000E+00  0.10830297441E+04  0.10830297441E+04  0.00000000000E+00 0. -1.
         22   -1    0    0    0    0 -0.00000000000E+00 -0.00000000000E+00 -0.62137607137E+03  0.62137607137E+03  0.00000000000E+00 0.  1.
         24    2    1    2    0    0  0.59083307857E+02  0.47194067386E+02 -0.47407868828E+03  0.48627355565E+03  0.77416089971E+02 0.  0.
         25    2    1    2    0    0 -0.85960189774E+02 -0.11224774831E+03 -0.73822851030E+02  0.20269952221E+03  0.12509425144E+03 0.  0.
        -24    2    1    2    0    0  0.26876881916E+02  0.65053680922E+02  0.10095552121E+04  0.10154327377E+04  0.83352086234E+02 0.  0.
        -11    1    3    3    0    0  0.38403682143E+02  0.53759383474E+02 -0.44560179542E+03  0.45047294502E+03  0.00000000000E+00 0.  1.
         12    1    3    3    0    0  0.20679625714E+02 -0.65653160876E+01 -0.28476892858E+02  0.35800610635E+02  0.00000000000E+00 0. -1.
         11    1    5    5    0    0  0.82136452159E+01  0.92261848011E+01  0.71219956960E+03  0.71230668492E+03  0.00000000000E+00 0. -1.
        -12    1    5    5    0    0  0.18663236700E+02  0.55827496121E+02  0.29735564248E+03  0.30312605273E+03  0.00000000000E+00 0.  1.
          5    1    4    4  501    0 -0.27382671979E+02  0.25620183716E+02 -0.24276192308E+02  0.44866585020E+02  0.41800000000E+01 0. -1.
         -5    1    4    4    0  501 -0.58577517795E+02 -0.13786793202E+03 -0.49546658722E+02  0.15783293719E+03  0.41800000000E+01 0. -1.
</event>
<event>
11    1  0.8041700E-009  0.1947242E+03  0.7561462E-02  0.1058318E+00
         22   -1    0    0    0    0  0.00000000000E+00  0.00000000000E+00  0.20833653576E+03  0.20833653576E+03  0.00000000000E+00 0.  1.
         22   -1    0    0    0    0 -0.00000000000E+00 -0.00000000000E+00 -0.23349281481E+04  0.23349281481E+04  0.00000000000E+00 0.  1.
        -24    2    1    2    0    0  0.15278327887E+03 -0.55630484373E+01 -0.19238326814E+04  0.19314396062E+04  0.77156259033E+02 0.  0.
         25    2    1    2    0    0 -0.12924523106E+03  0.11956901833E+02 -0.37725755282E+03  0.41811191130E+03  0.12508801684E+03 0.  0.
         24    2    1    2    0    0 -0.23538047812E+02 -0.63938533958E+01  0.17449862191E+03  0.19371316639E+03  0.80499072839E+02 0.  0.
        -11    1    5    5    0    0 -0.52926814622E+02 -0.59214800185E+00  0.12658939833E+03  0.13720959921E+03  0.00000000000E+00 0.  1.
         12    1    5    5    0    0  0.29388766810E+02 -0.58017053940E+01  0.47909223580E+02  0.56503567181E+02  0.00000000000E+00 0. -1.
         13    1    3    3    0    0  0.23375395002E+02  0.24323371383E+02 -0.23736221771E+03  0.23974748776E+03  0.00000000000E+00 0. -1.
        -14    1    3    3    0    0  0.12940788387E+03 -0.29886419820E+02 -0.16864704637E+04  0.16916921184E+04  0.00000000000E+00 0.  1.
          5    1    4    4  501    0  0.25913719511E+01  0.35897984318E+02 -0.14951478922E+03  0.15384253339E+03  0.41800000000E+01 0. -1.
         -5    1    4    4    0  501 -0.13183660301E+03 -0.23941082485E+02 -0.22774276360E+03  0.26426937791E+03  0.41800000000E+01 0. -1.
</event>
<event>
11    1  0.8041700E-009  0.1824266E+03  0.7561462E-02  0.1067697E+00
         22   -1    0    0    0    0  0.00000000000E+00  0.00000000000E+00  0.30106830199E+04  0.30106830199E+04  0.00000000000E+00 0.  1.
         22   -1    0    0    0    0 -0.00000000000E+00 -0.00000000000E+00 -0.43487752450E+03  0.43487752450E+03  0.00000000000E+00 0. -1.
         24    2    1    2    0    0  0.75716533329E+02  0.20077149165E+02 -0.38886058724E+03  0.40481507262E+03  0.80787383756E+02 0.  0.
         25    2    1    2    0    0 -0.45981535712E+02 -0.14925474241E+03  0.24350489192E+03  0.31517305687E+03  0.12509254026E+03 0.  0.
        -24    2    1    2    0    0 -0.29734997617E+02  0.12917759325E+03  0.27211611907E+04  0.27255724149E+04  0.80347634252E+02 0.  0.
        -13    1    3    3    0    0  0.63036933211E+01  0.39209414992E+02 -0.11575963936E+03  0.12238222452E+03  0.00000000000E+00 0.  1.
         14    1    3    3    0    0  0.69412840008E+02 -0.19132265827E+02 -0.27310094788E+03  0.28243284810E+03  0.00000000000E+00 0. -1.
         11    1    5    5    0    0  0.27679714922E+02  0.48917918663E+02  0.10391437157E+04  0.10406626693E+04  0.00000000000E+00 0. -1.
        -12    1    5    5    0    0 -0.57414712539E+02  0.80259674585E+02  0.16820174750E+04  0.16849097456E+04  0.00000000000E+00 0.  1.
          5    1    4    4  501    0 -0.36005773598E+02  0.58235570545E+01  0.87722253727E+02  0.95094667296E+02  0.41800000000E+01 0. -1.
         -5    1    4    4    0  501 -0.99757621138E+01 -0.15507829947E+03  0.15578263820E+03  0.22007838958E+03  0.41800000000E+01 0. -1.
</event>
<event>
11    1  0.8041700E-009  0.1581207E+03  0.7561462E-02  0.1088858E+00
         22   -1    0    0    0    0  0.00000000000E+00  0.00000000000E+00  0.42795516841E+03  0.42795516841E+03  0.00000000000E+00 0. -1.
         22   -1    0    0    0    0 -0.00000000000E+00 -0.00000000000E+00 -0.46169963712E+03  0.46169963712E+03  0.00000000000E+00 0.  1.
        -24    2    1    2    0    0  0.15666287118E+01 -0.10174978123E+03 -0.38905488424E+03  0.40983419271E+03  0.79024618021E+02 0.  0.
         25    2    1    2    0    0 -0.15700106679E+02  0.55090010923E+02  0.29362490625E+02  0.14068121475E+03  0.12509054990E+03 0.  0.
         24    2    1    2    0    0  0.14133477967E+02  0.46659770311E+02  0.32594792490E+03  0.33913939807E+03  0.79978698466E+02 0.  0.
        -11    1    5    5    0    0  0.33403866154E+02 -0.68870813866E+01  0.85566158196E+02  0.92113069607E+02  0.00000000000E+00 0.  1.
         12    1    5    5    0    0 -0.19270388186E+02  0.53546851698E+02  0.24038176671E+03  0.24702632846E+03  0.00000000000E+00 0. -1.
         11    1    3    3    0    0  0.31007129344E+02 -0.37379086413E+02 -0.87411516571E+02  0.99997056959E+02  0.00000000000E+00 0. -1.
        -12    1    3    3    0    0 -0.29440500632E+02 -0.64370694822E+02 -0.30164336767E+03  0.30983713575E+03  0.00000000000E+00 0.  1.
          5    1    4    4  501    0 -0.24943701671E+02 -0.35364367548E+02 -0.41753920051E+01  0.43677603455E+02  0.41800000000E+01 0.  1.
         -5    1    4    4    0  501  0.92435949922E+01  0.90454378472E+02  0.33537882630E+02  0.97003611296E+02  0.41800000000E+01 0.  1.
</event>
<event>
11    1  0.8041700E-009  0.2071502E+03  0.7561462E-02  0.1049579E+00
         22   -1    0    0    0    0  0.00000000000E+00  0.00000000000E+00  0.87094500054E+03  0.87094500054E+03  0.00000000000E+00 0.  1.
         22   -1    0    0    0    0 -0.00000000000E+00 -0.00000000000E+00 -0.57081428429E+03  0.57081428429E+03  0.00000000000E+00 0.  1.
        -24    2    1    2    0    0  0.16760907211E+03  0.37693778064E+02 -0.45205987340E+03  0.49010319653E+03  0.79557477066E+02 0.  0.
         25    2    1    2    0    0 -0.78149785781E+02 -0.18344058748E+03  0.73127401821E+02  0.24648150639E+03  0.12509067889E+03 0.  0.
         24    2    1    2    0    0 -0.89459286326E+02  0.14574680942E+03  0.67906318783E+03  0.70517458191E+03  0.83061913929E+02 0.  0.
        -11    1    5    5    0    0 -0.68741075461E+02  0.47853008593E+02  0.40104227671E+03  0.40969519597E+03  0.00000000000E+00 0.  1.
         12    1    5    5    0    0 -0.20718210866E+02  0.97893800822E+02  0.27802091111E+03  0.29547938594E+03  0.00000000000E+00 0. -1.
         11    1    3    3    0    0  0.15184491711E+03  0.72356129075E+01 -0.33025902478E+03  0.36356602756E+03  0.00000000000E+00 0. -1.
        -12    1    3    3    0    0  0.15764154994E+02  0.30458165157E+02 -0.12180084862E+03  0.12653716897E+03  0.00000000000E+00 0.  1.
          5    1    4    4  501    0 -0.19304438066E+02 -0.11454681351E+01  0.49648149019E+02  0.53445154386E+02  0.41800000000E+01 0.  1.
         -5    1    4    4    0  501 -0.58845347715E+02 -0.18229511934E+03  0.23479252802E+02  0.19303635201E+03  0.41800000000E+01 0.  1.
</event>
<event>
11    1  0.8041700E-009  0.1379319E+03  0.7561462E-02  0.1109890E+00
         22   -1    0    0    0    0  0.00000000000E+00  0.00000000000E+00  0.14081138701E+04  0.14081138701E+04  0.00000000000E+00 0.  1.
         22   -1    0    0    0    0 -0.00000000000E+00 -0.00000000000E+00 -0.10415146151E+04  0.10415146151E+04  0.00000000000E+00 0. -1.
         24    2    1    2    0    0 -0.31040792264E+02 -0.37133608444E+02 -0.10044662791E+04  0.10086864906E+04  0.78444214626E+02 0.  0.
         25    2    1    2    0    0 -0.23997484273E+02  0.58199504840E+02  0.11528759362E+03  0.18138327535E+03  0.12508237973E+03 0.  0.
        -24    2    1    2    0    0  0.55038276537E+02 -0.21065896396E+02  0.12557779405E+04  0.12595587192E+04  0.77697795252E+02 0.  0.
        -13    1    3    3    0    0  0.19166361576E+02 -0.13486834653E+02 -0.10845849545E+03  0.11096165716E+03  0.00000000000E+00 0.  1.
         14    1    3    3    0    0 -0.50207153840E+02 -0.23646773792E+02 -0.89600778368E+03  0.89772483347E+03  0.00000000000E+00 0. -1.
         11    1    5    5    0    0 -0.10435599612E+02  0.37742948162E+01  0.33783302626E+02  0.35559226326E+02  0.00000000000E+00 0. -1.
        -12    1    5    5    0    0  0.65473876149E+02 -0.24840191212E+02  0.12219946379E+04  0.12239994929E+04  0.00000000000E+00 0.  1.
          5    1    4    4  501    0 -0.62129954782E+02 -0.73861386528E+01  0.39755772172E+02  0.74247425183E+02  0.41800000000E+01 0.  1.
         -5    1    4    4    0  501  0.38132470509E+02  0.65585643493E+02  0.75531821444E+02  0.10713585016E+03  0.41800000000E+01 0.  1.
</event>
<event>
11    1  0.8041700E-009  0.1728946E+03  0.7561462E-02  0.1075540E+00
         22   -1    0    0    0    0  0.00000000000E+00  0.00000000000E+00  0.15940185790E+04  0.15940185790E+04  0.00000000000E+00 0. -1.
         22   -1    0    0    0    0 -0.00000000000E+00 -0.00000000000E+00 -0.19975745974E+03  0.19975745974E+03  0.00000000000E+00 0.  1.
        -24    2    1    2    0    0 -0.11854411692E+03 -0.27056910265E+02 -0.13927709033E+03  0.20152686103E+03  0.80188426696E+02 0.  0.
         25    2    1    2    0    0  0.60220714838E+02  0.13300370572E+03  0.34559039024E+03  0.39546987403E+03  0.12508870139E+03 0.  0.
         24    2    1    2    0    0  0.58323402083E+02 -0.10594679545E+03  0.11879478194E+04  0.11967793037E+04  0.80214322268E+02 0.  0.
        -13    1    5    5    0    0  0.37723056812E+00  0.23218576733E+01 -0.14531250007E+00  0.23567863033E+01  0.00000000000E+00 0.  1.
         14    1    5    5    0    0  0.57946171515E+02 -0.10826865313E+03  0.11880931319E+04  0.11944225174E+04  0.00000000000E+00 0. -1.
         11    1    3    3    0    0 -0.35785450355E+02 -0.93268847140E+01 -0.10301044944E+03  0.10944743912E+03  0.00000000000E+00 0. -1.
        -12    1    3    3    0    0 -0.82758666567E+02 -0.17730025551E+02 -0.36266640886E+02  0.92079421909E+02  0.00000000000E+00 0.  1.
          5    1    4    4  501    0  0.22248335276E+02 -0.35774027915E+01  0.16132928369E+03  0.16294906078E+03  0.41800000000E+01 0. -1.
         -5    1    4    4    0  501  0.37972379563E+02  0.13658110851E+03  0.18426110655E+03  0.23252081326E+03  0.41800000000E+01 0. -1.
</event>
<event>
11    1  0.8041700E-009  0.4018769E+03  0.7561462E-02  0.9644236E-01
         22   -1    0    0    0    0  0.00000000000E+00  0.00000000000E+00  0.17792797958E+04  0.17792797958E+04  0.00000000000E+00 0.  1.
         22   -1    0    0    0    0 -0.00000000000E+00 -0.00000000000E+00 -0.36317710188E+03  0.36317710188E+03  0.00000000000E+00 0.  1.
         24    2    1    2    0    0 -0.37654758150E+03  0.10605015385E+03 -0.13938359117E+03  0.42307573674E+03  0.80811987105E+02 0.  0.
         25    2    1    2    0    0  0.33968787213E+03 -0.97117812152E+02  0.35693973012E+03  0.51756461419E+03  0.12508972384E+03 0.  0.
        -24    2    1    2    0    0  0.36859709371E+02 -0.89323416962E+01  0.11985465550E+04  0.12018165468E+04  0.80067113734E+02 0.  0.
        -13    1    3    3    0    0 -0.33710412099E+03  0.90494527973E+02 -0.14914091993E+03  0.37956746697E+03  0.00000000000E+00 0.  1.
         14    1    3    3    0    0 -0.39443460511E+02  0.15555625875E+02  0.97573287637E+01  0.43508269766E+02  0.00000000000E+00 0. -1.
         13    1    5    5    0    0  0.11678711187E+02 -0.13971938399E+02  0.54112358412E+02  0.57094261450E+02  0.00000000000E+00 0. -1.
        -14    1    5    5    0    0  0.25180998184E+02  0.50395967024E+01  0.11444341966E+04  0.11447222854E+04  0.00000000000E+00 0.  1.
          5    1    4    4  501    0  0.28543340572E+03 -0.42304862294E+02  0.23022089039E+03  0.36916264877E+03  0.41800000000E+01 0.  1.
         -5    1    4    4    0  501  0.54254466415E+02 -0.54812949858E+02  0.12671883973E+03  0.14840196542E+03  0.41800000000E+01 0.  1.
</event>
<event>
11    1  0.8041700E-009  0.1384792E+03  0.7561462E-02  0.1109269E+00
         22   -1    0    0    0    0  0.00000000000E+00  0.00000000000E+00  0.27237639153E+04  0.27237639153E+04  0.00000000000E+00 0. -1.
         22   -1    0    0    0    0 -0.00000000000E+00 -0.00000000000E+00 -0.39697868395E+03  0.39697868395E+03  0.00000000000E+00 0.  1.
         24    2    1    2    0    0  0.55895711795E+02  0.14377799619E+02 -0.35044904571E+03  0.36400679910E+03  0.79720539569E+02 0.  0.
         25    2    1    2    0    0 -0.10237832227E+03 -0.83181248850E+01  0.12930494850E+03  0.20716632777E+03  0.12509038965E+03 0.  0.
        -24    2    1    2    0    0  0.46482610471E+02 -0.60596747336E+01  0.25479293286E+04  0.25495694724E+04  0.78506550220E+02 0.  0.
        -11    1    3    3    0    0  0.41217654854E+02  0.22388034456E+02 -0.34212969159E+03  0.34533005230E+03  0.00000000000E+00 0.  1.
         12    1    3    3    0    0  0.14678056941E+02 -0.80102348378E+01 -0.83193541252E+01  0.18676746793E+02  0.00000000000E+00 0. -1.
         11    1    5    5    0    0  0.38296807144E+02 -0.33196605350E+02  0.21647508076E+04  0.21653440186E+04  0.00000000000E+00 0. -1.
        -12    1    5    5    0    0  0.81858033267E+01  0.27136930617E+02  0.38317852095E+03  0.38422545373E+03  0.00000000000E+00 0.  1.
          5    1    4    4  501    0 -0.93992154078E+01 -0.43946034461E+02  0.15802363628E+01  0.45161584805E+02  0.41800000000E+01 0. -1.
         -5    1    4    4    0  501 -0.92979106858E+02  0.35627909576E+02  0.12772471214E+03  0.16200474297E+03  0.41800000000E+01 0. -1.
</event>
<event>
11    1  0.8041700E-009  0.1746747E+03  0.7561462E-02  0.1074034E+00
         22   -1    0    0    0    0  0.00000000000E+00  0.00000000000E+00  0.62639220376E+03  0.62639220376E+03  0.00000000000E+00 0. -1.
         22   -1    0    0    0    0 -0.00000000000E+00 -0.00000000000E+00 -0.32957847559E+03  0.32957847559E+03  0.00000000000E+00 0.  1.
        -24    2    1    2    0    0  0.10211241606E+03  0.60834532858E+02 -0.21264255011E+03  0.25687756119E+03  0.81495039247E+02 0.  0.
         25    2    1    2    0    0 -0.15807098542E+03  0.51214396696E+01  0.28493658084E+02  0.20364590074E+03  0.12508836381E+03 0.  0.
         24    2    1    2    0    0  0.55958569356E+02 -0.65955972528E+02  0.48096262020E+03  0.49544721743E+03  0.81617102575E+02 0.  0.
        -13    1    5    5    0    0  0.38907987804E+02  0.19707812645E+01  0.27855252458E+03  0.28126362091E+03  0.00000000000E+00 0.  1.
         14    1    5    5    0    0  0.17050581553E+02 -0.67926753792E+02  0.20241009562E+03  0.21418359652E+03  0.00000000000E+00 0. -1.
         11    1    3    3    0    0  0.10292748993E+03  0.29883846075E+02 -0.12915360427E+03  0.16783255326E+03  0.00000000000E+00 0. -1.
        -12    1    3    3    0    0 -0.81507387176E+00  0.30950686783E+02 -0.83488945845E+02  0.89045007923E+02  0.00000000000E+00 0.  1.
          5    1    4    4  501    0 -0.13919394269E+03  0.11574155254E+02 -0.28940429446E+02  0.14270226209E+03  0.41800000000E+01 0. -1.
         -5    1    4    4    0  501 -0.18877042732E+02 -0.64527155840E+01  0.57434087530E+02  0.60943638643E+02  0.41800000000E+01 0. -1.
</event>
<event>
11    1  0.8041700E-009  0.1851946E+03  0.7561462E-02  0.1065517E+00
         22   -1    0    0    0    0  0.00000000000E+00  0.00000000000E+00  0.74255960302E+03  0.74255960302E+03  0.00000000000E+00 0.  1.
         22   -1    0    0    0    0 -0.00000000000E+00 -0.00000000000E+00 -0.39034526737E+03  0.39034526737E+03  0.00000000000E+00 0.  1.
         24    2    1    2    0    0  0.27483234861E+02  0.65396947638E+02 -0.33359655181E+03  0.35106758859E+03  0.83244840234E+02 0.  0.
         25    2    1    2    0    0 -0.12352229155E+03  0.41909634741E+02  0.20377178977E+03  0.27237170180E+03  0.12509687305E+03 0.  0.
        -24    2    1    2    0    0  0.96039056688E+02 -0.10730658238E+03  0.48203909769E+03  0.50946557999E+03  0.80344772466E+02 0.  0.
        -11    1    3    3    0    0  0.43346527731E+02  0.47996158803E+02 -0.31352990395E+03  0.32013052557E+03  0.00000000000E+00 0.  1.
         12    1    3    3    0    0 -0.15863292871E+02  0.17400788835E+02 -0.20066647854E+02  0.30937063029E+02  0.00000000000E+00 0. -1.
         11    1    5    5    0    0  0.48868654067E+02 -0.15898667628E+01  0.13069390634E+03  0.13954056823E+03  0.00000000000E+00 0. -1.
        -12    1    5    5    0    0  0.47170402620E+02 -0.10571671562E+03  0.35134519134E+03  0.36992501176E+03  0.00000000000E+00 0.  1.
          5    1    4    4  501    0 -0.74378262715E+02  0.86224023195E+02  0.13821062667E+03  0.17912665314E+03  0.41800000000E+01 0. -1.
         -5    1    4    4    0  501 -0.49144028833E+02 -0.44314388454E+02  0.65561163092E+02  0.93245048662E+02  0.41800000000E+01 0. -1.
</event>
<event>
11    1  0.8041700E-009  0.1475544E+03  0.7561462E-02  0.1099404E+00
         22   -1    0    0    0    0  0.00000000000E+00  0.00000000000E+00  0.36696605428E+03  0.36696605428E+03  0.00000000000E+00 0. -1.
         22   -1    0    0    0    0 -0.00000000000E+00 -0.00000000000E+00 -0.39282333032E+03  0.39282333032E+03  0.00000000000E+00 0. -1.
         24    2    1    2    0    0  0.15509228401E+02  0.43581923363E+02 -0.32355405369E+03  0.33656956267E+03  0.80323873465E+02 0.  0.
         25    2    1    2    0    0 -0.79167660394E+02 -0.75436172554E+02  0.88238724986E+02  0.18812129785E+03  0.12508163549E+03 0.  0.
        -24    2    1    2    0    0  0.63658431993E+02  0.31854249191E+02  0.20945805267E+03  0.23509852408E+03  0.79571043965E+02 0.  0.
        -13    1    3    3    0    0  0.38390876233E+02  0.38598143891E+02 -0.12120103167E+03  0.13286597069E+03  0.00000000000E+00 0.  1.
         14    1    3    3    0    0 -0.22881647832E+02  0.49837794711E+01 -0.20235302202E+03  0.20370359198E+03  0.00000000000E+00 0. -1.
         13    1    5    5    0    0  0.14867945557E+02  0.38936292824E+02  0.15971114168E+03  0.16505980577E+03  0.00000000000E+00 0. -1.
        -14    1    5    5    0    0  0.48790486437E+02 -0.70820436330E+01  0.49746910997E+02  0.70038718310E+02  0.00000000000E+00 0.  1.
          5    1    4    4  501    0 -0.38773459914E+02  0.32534399780E+02  0.27244191118E+02  0.57633208417E+02  0.41800000000E+01 0.  1.
         -5    1    4    4    0  501 -0.40394200480E+02 -0.10797057233E+03  0.60994533868E+02  0.13048808943E+03  0.41800000000E+01 0.  1.
</event>
<event>
11    1  0.8041700E-009  0.1621610E+03  0.7561462E-02  0.1085062E+00
         22   -1    0    0    0    0  0.00000000000E+00  0.00000000000E+00  0.75425738380E+03  0.75425738380E+03  0.00000000000E+00 0.  1.
         22   -1    0    0    0    0 -0.00000000000E+00 -0.00000000000E+00 -0.57273406712E+03  0.57273406712E+03  0.00000000000E+00 0.  1.
        -24    2    1    2    0    0  0.11731393648E+02  0.31695215777E+02 -0.34022265622E+03  0.35112748105E+03  0.79980246561E+02 0.  0.
         25    2    1    2    0    0  0.59905717349E+02  0.43764063640E+02 -0.19690594635E+03  0.24478997626E+03  0.12508474140E+03 0.  0.
         24    2    1    2    0    0 -0.71637110996E+02 -0.75459279417E+02  0.71865191926E+03  0.73107399361E+03  0.84750366114E+02 0.  0.
        -13    1    5    5    0    0 -0.60717717640E+02 -0.79575949200E+01  0.43540339278E+03  0.43968861595E+03  0.00000000000E+00 0.  1.
         14    1    5    5    0    0 -0.10919393356E+02 -0.67501684497E+02  0.28324852648E+03  0.29138537766E+03  0.00000000000E+00 0. -1.
         11    1    3    3    0    0  0.39908773926E+02 -0.12085386594E+01 -0.11387884976E+03  0.12067544583E+03  0.00000000000E+00 0. -1.
        -12    1    3    3    0    0 -0.28177380278E+02  0.32903754437E+02 -0.22634380646E+03  0.23045203522E+03  0.00000000000E+00 0.  1.
          5    1    4    4  501    0  0.30951748329E+02  0.87401793858E+02 -0.12960923183E+03  0.15941489789E+03  0.41800000000E+01 0.  1.
         -5    1    4    4    0  501  0.28953969019E+02 -0.43637730218E+02 -0.67296714520E+02  0.85375078365E+02  0.41800000000E+01 0.  1.
</event>
<event>
11    1  0.8041700E-009  0.1549940E+03  0.7561462E-02  0.1091882E+00
         22   -1    0    0    0    0  0.00000000000E+00  0.00000000000E+00  0.14773709513E+04  0.14773709513E+04  0.00000000000E+00 0.  1.
         22   -1    0    0    0    0 -0.00000000000E+00 -0.00000000000E+00 -0.21133671491E+03  0.21133671491E+03  0.00000000000E+00 0. -1.
        -24    2    1    2    0    0 -0.22031074280E+02 -0.78048064331E+02 -0.17820204488E+03  0.21164123841E+03  0.80369001593E+02 0.  0.
         25    2    1    2    0    0 -0.39975036469E+02  0.12964784701E+03  0.69311110749E+03  0.71725678409E+03  0.12509084387E+03 0.  0.
         24    2    1    2    0    0  0.62006110749E+02 -0.51599782676E+02  0.75112517380E+03  0.75980964372E+03  0.81328793451E+02 0.  0.
        -11    1    5    5    0    0  0.60153891557E+02 -0.55209463880E+02  0.38047440154E+03  0.38913666725E+03  0.00000000000E+00 0.  1.
         12    1    5    5    0    0  0.18522191917E+01  0.36096812035E+01  0.37065077226E+03  0.37067297648E+03  0.00000000000E+00 0. -1.
         11    1    3    3    0    0 -0.41886465592E+02 -0.48334334791E+02 -0.15830816008E+03  0.17074002889E+03  0.00000000000E+00 0. -1.
        -12    1    3    3    0    0  0.19855391313E+02 -0.29713729541E+02 -0.19893884800E+02  0.40901209515E+02  0.00000000000E+00 0.  1.
          5    1    4    4  501    0  0.44917296848E+02  0.54353509623E+02  0.24453750829E+03  0.25453473815E+03  0.41800000000E+01 0.  1.
         -5    1    4    4    0  501 -0.84892333316E+02  0.75294337385E+02  0.44857359919E+03  0.46272204593E+03  0.41800000000E+01 0.  1.
</event>
<event>
11    1  0.8041700E-009  0.1305729E+03  0.7561462E-02  0.1118567E+00
         22   -1    0    0    0    0  0.00000000000E+00  0.00000000000E+00  0.11720213884E+04  0.11720213884E+04  0.00000000000E+00 0.  1.
         22   -1    0    0    0    0 -0.00000000000E+00 -0.00000000000E+00 -0.24009639149E+04  0.24009639149E+04  0.00000000000E+00 0.  1.
         24    2    1    2    0    0  0.49178568964E+01 -0.41503329020E+01 -0.18082004540E+04  0.18099491161E+04  0.79281211358E+02 0.  0.
         25    2    1    2    0    0  0.22494864564E+02 -0.21379330136E+02 -0.58318942051E+03  0.59726075728E+03  0.12508963708E+03 0.  0.
        -24    2    1    2    0    0 -0.27412721460E+02  0.25529663038E+02  0.11624473479E+04  0.11657754300E+04  0.79657362347E+02 0.  0.
        -11    1    3    3    0    0 -0.20466370285E+00  0.14953800577E+02 -0.16927907766E+04  0.16928568373E+04  0.00000000000E+00 0.  1.
         12    1    3    3    0    0  0.51225205993E+01 -0.19104133479E+02 -0.11540967731E+03  0.11709227878E+03  0.00000000000E+00 0. -1.
         13    1    5    5    0    0 -0.13063036902E+02  0.53665925674E+01  0.31087345099E+02  0.34144783997E+02  0.00000000000E+00 0. -1.
        -14    1    5    5    0    0 -0.14349684558E+02  0.20163070470E+02  0.11313600029E+04  0.11316306460E+04  0.00000000000E+00 0.  1.
          5    1    4    4  501    0  0.70199806614E+02 -0.35383815022E+02 -0.37531402491E+03  0.38348157310E+03  0.41800000000E+01 0.  1.
         -5    1    4    4    0  501 -0.47704942051E+02  0.14004484886E+02 -0.20787539560E+03  0.21377918418E+03  0.41800000000E+01 0.  1.
</event>
<event>
11    1  0.8041700E-009  0.2011354E+03  0.7561462E-02  0.1053724E+00
         22   -1    0    0    0    0  0.00000000000E+00  0.00000000000E+00  0.39920295300E+03  0.39920295300E+03  0.00000000000E+00 0.  1.
         22   -1    0    0    0    0 -0.00000000000E+00 -0.00000000000E+00 -0.10659694972E+04  0.10659694972E+04  0.00000000000E+00 0. -1.
         24    2    1    2    0    0  0.31741872213E+02 -0.15617962364E+03 -0.10019270273E+04  0.10178928277E+04  0.82755176547E+02 0.  0.
         25    2    1    2    0    0 -0.69923736750E+02  0.10215120289E+03  0.14218710892E+03  0.22625188508E+03  0.12509414192E+03 0.  0.
        -24    2    1    2    0    0  0.38181864537E+02  0.54028420751E+02  0.19297337417E+03  0.22102773749E+03  0.85074159259E+02 0.  0.
        -13    1    3    3    0    0  0.48536793965E+01 -0.85738783555E+02 -0.30374099487E+03  0.31564741274E+03  0.00000000000E+00 0.  1.
         14    1    3    3    0    0  0.26888192817E+02 -0.70440840087E+02 -0.69818603247E+03  0.70224541494E+03  0.00000000000E+00 0. -1.
         13    1    5    5    0    0 -0.96724386768E+01 -0.18399206477E+02  0.42450542340E+02  0.47266641661E+02  0.00000000000E+00 0. -1.
        -14    1    5    5    0    0  0.47854303214E+02  0.72427627228E+02  0.15052283183E+03  0.17376109583E+03  0.00000000000E+00 0.  1.
          5    1    4    4  501    0 -0.56619900108E+02  0.11227829703E+03  0.15860569652E+03  0.20244868101E+03  0.41800000000E+01 0. -1.
         -5    1    4    4    0  501 -0.13303836642E+02 -0.10127094142E+02 -0.16418587598E+02  0.23803204068E+02  0.41800000000E+01 0. -1.
</event>
<event>
11    1  0.8041700E-009  0.1306652E+03  0.7561462E-02  0.1118454E+00
         22   -1    0    0    0    0  0.00000000000E+00  0.00000000000E+00  0.10138420019E+04  0.10138420019E+04  0.00000000000E+00 0.  1.
         22   -1    0    0    0    0 -0.00000000000E+00 -0.00000000000E+00 -0.52593120092E+03  0.52593120092E+03  0.00000000000E+00 0. -1.
        -24    2    1    2    0    0 -0.28057035725E+01 -0.11498573094E+02 -0.50798929633E+03  0.51437657196E+03  0.79937747244E+02 0.  0.
         25    2    1    2    0    0  0.37197620637E+02 -0.51031936489E+01  0.35177472334E+03  0.37523712197E+03  0.12509091156E+03 0.  0.
         24    2    1    2    0    0 -0.34391917064E+02  0.16601766743E+02  0.64412537398E+03  0.65015950890E+03  0.79696091398E+02 0.  0.
        -11    1    5    5    0    0 -0.40806577659E+02  0.41926556912E+01  0.62567121761E+03  0.62701453547E+03  0.00000000000E+00 0.  1.
         12    1    5    5    0    0  0.64146605951E+01  0.12409111052E+02  0.18454156369E+02  0.23144973427E+02  0.00000000000E+00 0. -1.
         11    1    3    3    0    0 -0.31629323233E+02  0.19879722756E+02 -0.27465783677E+03  0.27718684090E+03  0.00000000000E+00 0. -1.
        -12    1    3    3    0    0  0.28823619661E+02 -0.31378295850E+02 -0.23333145956E+03  0.23718973106E+03  0.00000000000E+00 0.  1.
          5    1    4    4  501    0 -0.10659854629E+02  0.85785354514E+01  0.30941050955E+03  0.30974111705E+03  0.41800000000E+01 0. -1.
         -5    1    4    4    0  501  0.47857475266E+02 -0.13681729100E+02  0.42364213788E+02  0.65496004916E+02  0.41800000000E+01 0. -1.
</event>
<event>
11    1  0.8041700E-009  0.1256821E+03  0.7561462E-02  0.1124691E+00
         22   -1    0    0    0    0  0.00000000000E+00  0.00000000000E+00  0.23809989909E+03  0.23809989909E+03  0.00000000000E+00 0. -1.
         22   -1    0    0    0    0 -0.00000000000E+00 -0.00000000000E+00 -0.28508137818E+03  0.28508137818E+03  0.00000000000E+00 0. -1.
         24    2    1    2    0    0 -0.70745937436E+01 -0.14176592507E+02 -0.16405351486E+03  0.18777719523E+03  0.89976072708E+02 0.  0.
         25    2    1    2    0    0  0.93667475656E+01 -0.55383648666E+01 -0.60699638208E+02  0.13945824760E+03  0.12508296167E+03 0.  0.
        -24    2    1    2    0    0 -0.22921538220E+01  0.19714957374E+02  0.17777167399E+03  0.19594583444E+03  0.79987926899E+02 0.  0.
        -13    1    3    3    0    0  0.76747325265E+01 -0.14776524467E+02  0.55356409376E+01  0.17546809262E+02  0.00000000000E+00 0.  1.
         14    1    3    3    0    0 -0.14749326270E+02  0.59993196024E+00 -0.16958915580E+03  0.17023038597E+03  0.00000000000E+00 0. -1.
         11    1    5    5    0    0 -0.85527761821E+01 -0.59431448272E+01  0.16715794680E+03  0.16748208898E+03  0.00000000000E+00 0. -1.
        -12    1    5    5    0    0  0.62606223601E+01  0.25658102201E+02  0.10613727186E+02  0.28463745461E+02  0.00000000000E+00 0.  1.
          5    1    4    4  501    0  0.11539706466E+02  0.59001144421E+02 -0.22589546645E+02  0.64358836891E+02  0.41800000000E+01 0.  1.
         -5    1    4    4    0  501 -0.21729589007E+01 -0.64539509288E+02 -0.38110091563E+02  0.75099410707E+02  0.41800000000E+01 0.  1.
</event>
<event>
11    1  0.8041700E-009  0.1369103E+03  0.7561462E-02  0.1111058E+00
         22   -1    0    0    0    0  0.00000000000E+00  0.00000000000E+00  0.11336415844E+04  0.11336415844E+04  0.00000000000E+00 0. -1.
         22   -1    0    0    0    0 -0.00000000000E+00 -0.00000000000E+00 -0.66828850383E+03  0.66828850383E+03  0.00000000000E+00 0.  1.
        -24    2    1    2    0    0  0.25642763944E+02 -0.11455421560E+02 -0.51619338947E+03  0.52328741887E+03  0.81150042469E+02 0.  0.
         25    2    1    2    0    0  0.25197198553E+02 -0.12109294167E+02 -0.11848509271E+03  0.17454958429E+03  0.12508919362E+03 0.  0.
         24    2    1    2    0    0 -0.50839962497E+02  0.23564715727E+02  0.11000315627E+04  0.11040930851E+04  0.76237155206E+02 0.  0.
        -13    1    5    5    0    0 -0.24988729811E+02  0.11183195492E+02  0.10083245934E+03  0.10448294280E+03  0.00000000000E+00 0.  1.
         14    1    5    5    0    0 -0.25851232686E+02  0.12381520235E+02  0.99919910341E+03  0.99961014227E+03  0.00000000000E+00 0. -1.
         13    1    3    3    0    0  0.17126577521E+02 -0.35719286017E+02 -0.12229601686E+03  0.12855155694E+03  0.00000000000E+00 0. -1.
        -14    1    3    3    0    0  0.85161864234E+01  0.24263864457E+02 -0.39389737260E+03  0.39473586193E+03  0.00000000000E+00 0.  1.
          5    1    4    4  501    0  0.12091495396E+02 -0.49588415205E+02 -0.12408229681E+03  0.13423525604E+03  0.41800000000E+01 0. -1.
         -5    1    4    4    0  501  0.13105703157E+02  0.37479121038E+02  0.55972040901E+01  0.40314328255E+02  0.41800000000E+01 0. -1.
</event>
<event>
11    1  0.8041700E-009  0.2047633E+03  0.7561462E-02  0.1051205E+00
         22   -1    0    0    0    0  0.00000000000E+00  0.00000000000E+00  0.78788838202E+03  0.78788838202E+03  0.00000000000E+00 0. -1.
         22   -1    0    0    0    0 -0.00000000000E+00 -0.00000000000E+00 -0.31462772239E+03  0.31462772239E+03  0.00000000000E+00 0. -1.
         24    2    1    2    0    0  0.15864017145E+03 -0.22992677131E+02 -0.23477231107E+03  0.29492604311E+03  0.78536397046E+02 0.  0.
         25    2    1    2    0    0 -0.17593454402E+03  0.23424424346E+02  0.20760601709E+03  0.30041332476E+03  0.12508493085E+03 0.  0.
        -24    2    1    2    0    0  0.17294372570E+02 -0.43174721478E+00  0.50042695361E+03  0.50717673654E+03  0.80633891539E+02 0.  0.
        -13    1    3    3    0    0  0.64577671848E+01  0.40042155557E+01 -0.64584561230E+02  0.65030008830E+02  0.00000000000E+00 0.  1.
         14    1    3    3    0    0  0.15218240426E+03 -0.26996892687E+02 -0.17018774984E+03  0.22989603428E+03  0.00000000000E+00 0. -1.
         13    1    5    5    0    0  0.66533184152E+01 -0.32953588839E+02  0.39291629008E+03  0.39435189447E+03  0.00000000000E+00 0. -1.
        -14    1    5    5    0    0  0.10641054155E+02  0.32521841624E+02  0.10751066353E+03  0.11282484207E+03  0.00000000000E+00 0.  1.
          5    1    4    4  501    0 -0.82394290780E+02  0.66724779910E+02  0.14522639809E+03  0.17985881827E+03  0.41800000000E+01 0. -1.
         -5    1    4    4    0  501 -0.93540253238E+02 -0.43300355564E+02  0.62379619001E+02  0.12055450649E+03  0.41800000000E+01 0. -1.
</event>
<event>
11    1  0.8041700E-009  0.1828647E+03  0.7561462E-02  0.1067349E+00
         22   -1    0    0    0    0  0.00000000000E+00  0.00000000000E+00  0.38664124928E+03  0.38664124928E+03  0.00000000000E+00 0. -1.
         22   -1    0    0    0    0 -0.00000000000E+00 -0.00000000000E+00 -0.66208463556E+03  0.66208463556E+03  0.00000000000E+00 0. -1.
        -24    2    1    2    0    0 -0.21914550099E+02  0.63050550201E+02 -0.57736179396E+03  0.58725877506E+03  0.84086909634E+02 0.  0.
         25    2    1    2    0    0 -0.11241816088E+03  0.63336104603E+01  0.97823880848E+02  0.19465982396E+03  0.12507988600E+03 0.  0.
         24    2    1    2    0    0  0.13433271098E+03 -0.69384160661E+02  0.20409452683E+03  0.26680728583E+03  0.81683002504E+02 0.  0.
        -13    1    5    5    0    0  0.13095809427E+03 -0.49152296909E+02  0.13374878372E+03  0.19353218826E+03  0.00000000000E+00 0.  1.
         14    1    5    5    0    0  0.33746167008E+01 -0.20231863753E+02  0.70345743111E+02  0.73275097561E+02  0.00000000000E+00 0. -1.
         11    1    3    3    0    0  0.50532117752E+01  0.56433241108E+02 -0.52446543100E+03  0.52751704613E+03  0.00000000000E+00 0. -1.
        -12    1    3    3    0    0 -0.26967761874E+02  0.66173090931E+01 -0.52896362962E+02  0.59741728923E+02  0.00000000000E+00 0.  1.
          5    1    4    4  501    0  0.10201204685E+02  0.31764418980E+02  0.50610490786E+02  0.60761312262E+02  0.41800000000E+01 0.  1.
         -5    1    4    4    0  501 -0.12261936556E+03 -0.25430808519E+02  0.47213390061E+02  0.13389851169E+03  0.41800000000E+01 0.  1.
</event>
<event>
11    1  0.8041700E-009  0.1357246E+03  0.7561462E-02  0.1112429E+00
         22   -1    0    0    0    0  0.00000000000E+00  0.00000000000E+00  0.20499757438E+04  0.20499757438E+04  0.00000000000E+00 0. -1.
         22   -1    0    0    0    0 -0.00000000000E+00 -0.00000000000E+00 -0.23089736399E+03  0.23089736399E+03  0.00000000000E+00 0. -1.
         24    2    1    2    0    0 -0.23388068731E+02 -0.47174273037E+02 -0.19154129372E+03  0.21267630538E+03  0.75965320200E+02 0.  0.
         25    2    1    2    0    0  0.86752323019E+01  0.54573868517E+02  0.14030188858E+03  0.19592193066E+03  0.12508883321E+03 0.  0.
        -24    2    1    2    0    0  0.14712836429E+02 -0.73995954798E+01  0.18703177850E+04  0.18722748718E+04  0.83984266986E+02 0.  0.
        -11    1    3    3    0    0  0.73063430865E+01 -0.49944152184E+02 -0.64243017486E+02  0.81700466844E+02  0.00000000000E+00 0.  1.
         12    1    3    3    0    0 -0.30694411817E+02  0.27698791475E+01 -0.12729827623E+03  0.13097583853E+03  0.00000000000E+00 0. -1.
         13    1    5    5    0    0 -0.33664985377E+01 -0.34509525418E+01  0.17835100181E+04  0.17835165340E+04  0.00000000000E+00 0. -1.
        -14    1    5    5    0    0  0.18079334967E+02 -0.39486429380E+01  0.86807766814E+02  0.88758337711E+02  0.00000000000E+00 0.  1.
          5    1    4    4  501    0  0.31114286201E+02  0.27225040457E+02  0.15266184975E+03  0.15821635314E+03  0.41800000000E+01 0. -1.
         -5    1    4    4    0  501 -0.22439053899E+02  0.27348828060E+02 -0.12359961165E+02  0.37705577520E+02  0.41800000000E+01 0. -1.
</event>
<event>
11    1  0.8041700E-009  0.1343537E+03  0.7561462E-02  0.1114032E+00
         22   -1    0    0    0    0  0.00000000000E+00  0.00000000000E+00  0.30346322441E+04  0.30346322441E+04  0.00000000000E+00 0.  1.
         22   -1    0    0    0    0 -0.00000000000E+00 -0.00000000000E+00 -0.32430243360E+03  0.32430243360E+03  0.00000000000E+00 0.  1.
        -24    2    1    2    0    0 -0.31896064848E+02 -0.95081735744E+01 -0.30141030235E+03  0.31358601929E+03  0.79876509752E+02 0.  0.
         25    2    1    2    0    0  0.79347807758E+02  0.11489648740E+02  0.32918233392E+03  0.36115451318E+03  0.12507392535E+03 0.  0.
         24    2    1    2    0    0 -0.47451742910E+02 -0.19814751659E+01  0.26825577789E+04  0.26841941452E+04  0.80786000044E+02 0.  0.
        -11    1    5    5    0    0 -0.30321085183E+02 -0.27320938998E+02  0.23168602308E+04  0.23172196985E+04  0.00000000000E+00 0.  1.
         12    1    5    5    0    0 -0.17130657727E+02  0.25339463832E+02  0.36569754811E+03  0.36697444673E+03  0.00000000000E+00 0. -1.
         11    1    3    3    0    0  0.72413825745E+01 -0.30314079303E+02 -0.54964776900E+02  0.63186293808E+02  0.00000000000E+00 0. -1.
        -12    1    3    3    0    0 -0.39137447423E+02  0.20805905728E+02 -0.24644552545E+03  0.25039972548E+03  0.00000000000E+00 0.  1.
          5    1    4    4  501    0 -0.10509010689E+02 -0.21224977088E+01  0.21431121316E+03  0.21461992636E+03  0.41800000000E+01 0.  1.
         -5    1    4    4    0  501  0.89856818447E+02  0.13612146449E+02  0.11487112076E+03  0.14653458683E+03  0.41800000000E+01 0.  1.
</event>
<event>
11    1  0.8041700E-009  0.1467916E+03  0.7561462E-02  0.1100203E+00
         22   -1    0    0    0    0  0.00000000000E+00  0.00000000000E+00  0.30705177255E+03  0.30705177255E+03  0.00000000000E+00 0. -1.
         22   -1    0    0    0    0 -0.00000000000E+00 -0.00000000000E+00 -0.85952900837E+03  0.85952900837E+03  0.00000000000E+00 0. -1.
         24    2    1    2    0    0 -0.32469768113E+02  0.61670693209E+01 -0.77680548955E+03  0.78218770122E+03  0.85431333627E+02 0.  0.
         25    2    1    2    0    0 -0.45799644982E+02  0.22564106865E+02  0.74709982502E+01  0.13531109537E+03  0.12508609162E+03 0.  0.
        -24    2    1    2    0    0  0.78269413096E+02 -0.28731176185E+02  0.21685725547E+03  0.24908198433E+03  0.89795234582E+02 0.  0.
        -13    1    3    3    0    0 -0.33349035442E+02 -0.90510321066E+01 -0.11204707631E+03  0.11725453789E+03  0.00000000000E+00 0.  1.
         14    1    3    3    0    0  0.87926732879E+00  0.15218101427E+02 -0.66475841324E+03  0.66493316333E+03  0.00000000000E+00 0. -1.
         11    1    5    5    0    0 -0.20231723814E+02 -0.69537154461E+01  0.44432745324E+02  0.49314761117E+02  0.00000000000E+00 0. -1.
        -12    1    5    5    0    0  0.98501136910E+02 -0.21777460739E+02  0.17242451015E+03  0.19976722321E+03  0.00000000000E+00 0.  1.
          5    1    4    4  501    0  0.43191386183E+02  0.13951334181E+02  0.14370001385E+01  0.45603431179E+02  0.41800000000E+01 0. -1.
         -5    1    4    4    0  501 -0.88991031166E+02  0.86127726835E+01  0.60339981117E+01  0.89707664190E+02  0.41800000000E+01 0. -1.
</event>
<event>
11    1  0.8041700E-009  0.1489097E+03  0.7561462E-02  0.1097998E+00
         22   -1    0    0    0    0  0.00000000000E+00  0.00000000000E+00  0.22479380334E+04  0.22479380334E+04  0.00000000000E+00 0. -1.
         22   -1    0    0    0    0 -0.00000000000E+00 -0.00000000000E+00 -0.87988829686E+02  0.87988829686E+02  0.00000000000E+00 0. -1.
         24    2    1    2    0    0 -0.25238835195E+02  0.82495004860E+01 -0.58667885488E+02  0.10128551404E+03  0.78177883743E+02 0.  0.
         25    2    1    2    0    0  0.56282412009E+02  0.63945220803E+02  0.13909521440E+04  0.13991611309E+04  0.12508917710E+03 0.  0.
        -24    2    1    2    0    0 -0.31043576814E+02 -0.72194721289E+02  0.82766494526E+03  0.83548021818E+03  0.82596318997E+02 0.  0.
        -13    1    3    3    0    0  0.47014478678E+00  0.12850608385E+02  0.16954880543E+02  0.21279735576E+02  0.00000000000E+00 0.  1.
         14    1    3    3    0    0 -0.25708979981E+02 -0.46011078986E+01 -0.75622766030E+02  0.80005778464E+02  0.00000000000E+00 0. -1.
         13    1    5    5    0    0 -0.53016939836E+02 -0.71271244798E+02  0.57017856313E+03  0.57705630583E+03  0.00000000000E+00 0. -1.
        -14    1    5    5    0    0  0.21973363022E+02 -0.92347649116E+00  0.25748638213E+03  0.25842391235E+03  0.00000000000E+00 0.  1.
          5    1    4    4  501    0  0.41349164580E+02  0.35415752348E+02  0.13200300534E+04  0.13211589015E+04  0.41800000000E+01 0.  1.
         -5    1    4    4    0  501  0.14933247429E+02  0.28529468455E+02  0.70922090616E+02  0.78002229369E+02  0.41800000000E+01 0.  1.
</event>
<event>
11    1  0.8041700E-009  0.1777590E+03  0.7561462E-02  0.1071470E+00
         22   -1    0    0    0    0  0.00000000000E+00  0.00000000000E+00  0.21893320780E+03  0.21893320780E+03  0.00000000000E+00 0.  1.
         22   -1    0    0    0    0 -0.00000000000E+00 -0.00000000000E+00 -0.87213315646E+03  0.87213315646E+03  0.00000000000E+00 0.  1.
         24    2    1    2    0    0 -0.12831603648E+03 -0.27209130883E+01 -0.60172552062E+03  0.62063057984E+03  0.81463524804E+02 0.  0.
         25    2    1    2    0    0  0.10644668264E+03  0.10975662654E+03 -0.19188980639E+03  0.27540293710E+03  0.12509063375E+03 0.  0.
        -24    2    1    2    0    0  0.21869353843E+02 -0.10703571345E+03  0.14041537836E+03  0.19503284733E+03  0.79915082842E+02 0.  0.
        -11    1    3    3    0    0 -0.13513643371E+03 -0.44899541109E+01 -0.47941336970E+03  0.49811564365E+03  0.00000000000E+00 0.  1.
         12    1    3    3    0    0  0.68203972348E+01  0.17690410226E+01 -0.12231215093E+03  0.12251493619E+03  0.00000000000E+00 0. -1.
         11    1    5    5    0    0  0.32416854019E+01 -0.23939009139E+02 -0.66807437032E+01  0.25064257804E+02  0.00000000000E+00 0. -1.
        -12    1    5    5    0    0  0.18627668441E+02 -0.83096704310E+02  0.14709612206E+03  0.16996858952E+03  0.00000000000E+00 0.  1.
          5    1    4    4  501    0  0.60086463535E+02 -0.73819544763E+01 -0.23526888803E+02  0.65083509807E+02  0.41800000000E+01 0. -1.
         -5    1    4    4    0  501  0.46360219102E+02  0.11713858101E+03 -0.16836291759E+03  0.21031942729E+03  0.41800000000E+01 0. -1.
</event>
<event>
11    1  0.8041700E-009  0.1525363E+03  0.7561462E-02  0.1094315E+00
         22   -1    0    0    0    0  0.00000000000E+00  0.00000000000E+00  0.18667894413E+04  0.18667894413E+04  0.00000000000E+00 0.  1.
         22   -1    0    0    0    0 -0.00000000000E+00 -0.00000000000E+00 -0.59560454635E+02  0.59560454635E+02  0.00000000000E+00 0. -1.
         24    2    1    2    0    0 -0.47480646384E+02 -0.62956385698E+02  0.49206340252E+02  0.12267904623E+03  0.80068509300E+02 0.  0.
         25    2    1    2    0    0  0.10893954541E+03  0.72653375080E+02  0.36842345728E+03  0.41052321985E+03  0.12508849945E+03 0.  0.
        -24    2    1    2    0    0 -0.61458899024E+02 -0.96969893816E+01  0.13895991892E+04  0.13931476299E+04  0.77480218583E+02 0.  0.
        -13    1    3    3    0    0  0.14335384803E+02  0.58713662952E+01  0.20739338066E+02  0.25886219173E+02  0.00000000000E+00 0.  1.
         14    1    3    3    0    0 -0.61816031187E+02 -0.68827751993E+02  0.28467002186E+02  0.96792827057E+02  0.00000000000E+00 0. -1.
         13    1    5    5    0    0 -0.20634978430E+02  0.15405413829E+02  0.12421269190E+03  0.12685393939E+03  0.00000000000E+00 0. -1.
        -14    1    5    5    0    0 -0.40823920594E+02 -0.25102403211E+02  0.12653864973E+04  0.12662936905E+04  0.00000000000E+00 0.  1.
          5    1    4    4  501    0  0.50974788134E+02 -0.17115516749E+02  0.22643200530E+03  0.23276661136E+03  0.41800000000E+01 0. -1.
         -5    1    4    4    0  501  0.57964757274E+02  0.89768891829E+02  0.14199145198E+03  0.17775660849E+03  0.41800000000E+01 0. -1.
</event>
<event>
11    1  0.8041700E-009  0.1588518E+03  0.7561462E-02  0.1088162E+00
         22   -1    0    0    0    0  0.00000000000E+00  0.00000000000E+00  0.60458615718E+03  0.60458615718E+03  0.00000000000E+00 0.  1.
         22   -1    0    0    0    0 -0.00000000000E+00 -0.00000000000E+00 -0.99099688779E+03  0.99099688779E+03  0.00000000000E+00 0. -1.
        -24    2    1    2    0    0  0.38316929739E+02  0.88382335558E+02 -0.89708746385E+03  0.90577644523E+03  0.79908864253E+02 0.  0.
         25    2    1    2    0    0 -0.10003285539E+03 -0.10647652378E+03  0.25773261485E+02  0.19404872148E+03  0.12508726165E+03 0.  0.
         24    2    1    2    0    0  0.61715925651E+02  0.18094188225E+02  0.48490347175E+03  0.49575787826E+03  0.80673674855E+02 0.  0.
        -11    1    5    5    0    0  0.86455257885E+01 -0.30167860020E+02  0.15522492876E+03  0.15836547415E+03  0.00000000000E+00 0.  1.
         12    1    5    5    0    0  0.53070399863E+02  0.48262048245E+02  0.32967854299E+03  0.33739240411E+03  0.00000000000E+00 0. -1.
         11    1    3    3    0    0  0.44761918627E+02  0.75101034764E+02 -0.44827257408E+03  0.45671883632E+03  0.00000000000E+00 0. -1.
        -12    1    3    3    0    0 -0.64449888880E+01  0.13281300793E+02 -0.44881488977E+03  0.44905760890E+03  0.00000000000E+00 0.  1.
          5    1    4    4  501    0 -0.10489779212E+02 -0.70244308729E+02  0.58358861090E+02  0.92019168896E+02  0.41800000000E+01 0. -1.
         -5    1    4    4    0  501 -0.89543076178E+02 -0.36232215054E+02 -0.32585599605E+02  0.10202955259E+03  0.41800000000E+01 0. -1.
</event>
<event>
11    1  0.8041700E-009  0.1972802E+03  0.7561462E-02  0.1056464E+00
         22   -1    0    0    0    0  0.00000000000E+00  0.00000000000E+00  0.20609845205E+03  0.20609845205E+03  0.00000000000E+00 0. -1.
         22   -1    0    0    0    0 -0.00000000000E+00 -0.00000000000E+00 -0.35346435270E+04  0.35346435270E+04  0.00000000000E+00 0.  1.
        -24    2    1    2    0    0  0.27472776067E+02  0.64050652926E+01 -0.33171620606E+04  0.33182656579E+04  0.80790230572E+02 0.  0.
         25    2    1    2    0    0  0.10237220767E+03  0.84448373216E+02 -0.11814292787E+03  0.21729315611E+03  0.12508783971E+03 0.  0.
         24    2    1    2    0    0 -0.12984498374E+03 -0.90853438508E+02  0.10675991361E+03  0.20518316502E+03  0.74755501223E+02 0.  0.
        -11    1    5    5    0    0 -0.40624853266E+02 -0.50647501151E+02  0.67795214970E+01  0.65280241938E+02  0.00000000000E+00 0.  1.
         12    1    5    5    0    0 -0.89220130472E+02 -0.40205937358E+02  0.99980392111E+02  0.13990292308E+03  0.00000000000E+00 0. -1.
         11    1    3    3    0    0  0.25308344378E+02  0.35274489237E+02 -0.10228287618E+04  0.10237497144E+04  0.00000000000E+00 0. -1.
        -12    1    3    3    0    0  0.21644316891E+01 -0.28869423944E+02 -0.22943332989E+04  0.22945159435E+04  0.00000000000E+00 0.  1.
          5    1    4    4  501    0 -0.18560499503E+02 -0.93404106834E+01  0.38435075675E+01  0.21540203433E+02  0.41800000000E+01 0. -1.
         -5    1    4    4    0  501  0.12093270717E+03  0.93788783899E+02 -0.12198643544E+03  0.19575295268E+03  0.41800000000E+01 0. -1.
</event>
<event>
11    1  0.8041700E-009  0.1393928E+03  0.7561462E-02  0.1108238E+00
         22   -1    0    0    0    0  0.00000000000E+00  0.00000000000E+00  0.31190891500E+03  0.31190891500E+03  0.00000000000E+00 0. -1.
         22   -1    0    0    0    0 -0.00000000000E+00 -0.00000000000E+00 -0.11989299079E+04  0.11989299079E+04  0.00000000000E+00 0.  1.
        -24    2    1    2    0    0 -0.61687146201E+02  0.37757126100E+01 -0.11227018479E+04  0.11271504780E+04  0.78671474631E+02 0.  0.
         25    2    1    2    0    0  0.46311230355E+02 -0.57958029894E+02  0.19867359965E+02  0.14678528219E+03  0.12508934323E+03 0.  0.
         24    2    1    2    0    0  0.15375915847E+02  0.54182317284E+02  0.21581349497E+03  0.23690306270E+03  0.79846441441E+02 0.  0.
        -11    1    5    5    0    0  0.17038696261E+02  0.51602316624E+02  0.59584197839E+02  0.80643616507E+02  0.00000000000E+00 0.  1.
         12    1    5    5    0    0 -0.16627804143E+01  0.25800006599E+01  0.15622929713E+03  0.15625944619E+03  0.00000000000E+00 0. -1.
         13    1    3    3    0    0 -0.91942706416E+01 -0.21365465872E+02 -0.95155500093E+02  0.97957066833E+02  0.00000000000E+00 0. -1.
        -14    1    3    3    0    0 -0.52492875560E+02  0.25141178482E+02 -0.10275463478E+04  0.10291934112E+04  0.00000000000E+00 0.  1.
          5    1    4    4  501    0  0.21262074417E+02  0.38615456637E+02  0.15212478763E+02  0.46820094083E+02  0.41800000000E+01 0. -1.
         -5    1    4    4    0  501  0.25049155938E+02 -0.96573486532E+02  0.46548812024E+01  0.99965188106E+02  0.41800000000E+01 0. -1.
</event>
<event>
11    1  0.8041700E-009  0.2088072E+03  0.7561462E-02  0.1048465E+00
         22   -1    0    0    0    0  0.00000000000E+00  0.00000000000E+00  0.64923259634E+03  0.64923259634E+03  0.00000000000E+00 0.  1.
         22   -1    0    0    0    0 -0.00000000000E+00 -0.00000000000E+00 -0.90610410757E+03  0.90610410757E+03  0.00000000000E+00 0. -1.
        -24    2    1    2    0    0 -0.22778529468E+02 -0.21785746192E+02 -0.83395375412E+03  0.84015013349E+03  0.96849897518E+02 0.  0.
         25    2    1    2    0    0 -0.80719269253E+02 -0.12106708147E+03  0.14123365680E+03  0.23825925923E+03  0.12509072769E+03 0.  0.
         24    2    1    2    0    0  0.10349779872E+03  0.14285282766E+03  0.43584858609E+03  0.47692731119E+03  0.79855779102E+02 0.  0.
        -13    1    5    5    0    0  0.43407598932E+02  0.12161884884E+03  0.31127363326E+03  0.33699649672E+03  0.00000000000E+00 0.  1.
         14    1    5    5    0    0  0.60090199790E+02  0.21233978823E+02  0.12457495283E+03  0.13993081448E+03  0.00000000000E+00 0. -1.
         13    1    3    3    0    0 -0.42914131634E+02 -0.28627507549E+02 -0.78601627169E+03  0.78770726558E+03  0.00000000000E+00 0. -1.
        -14    1    3    3    0    0  0.20135602166E+02  0.68417613562E+01 -0.47937482425E+02  0.52442867907E+02  0.00000000000E+00 0.  1.
          5    1    4    4  501    0 -0.10025422133E+03 -0.12062698258E+03  0.14941630712E+03  0.21666675577E+03  0.41800000000E+01 0.  1.
         -5    1    4    4    0  501  0.19534952077E+02 -0.44009888857E+00 -0.81826503220E+01  0.21592503467E+02  0.41800000000E+01 0.  1.
</event>
<event>
11    1  0.8041700E-009  0.1321749E+03  0.7561462E-02  0.1116625E+00
         22   -1    0    0    0    0  0.00000000000E+00  0.00000000000E+00  0.25781690851E+03  0.25781690851E+03  0.00000000000E+00 0. -1.
         22   -1    0    0    0    0 -0.00000000000E+00 -0.00000000000E+00 -0.29636780006E+03  0.29636780006E+03  0.00000000000E+00 0.  1.
         24    2    1    2    0    0  0.19836579449E+02 -0.42803939956E+02 -0.21846644677E+03  0.24398084068E+03  0.97843727937E+02 0.  0.
         25    2    1    2    0    0  0.53341163849E+02  0.26465152504E+02  0.57414533624E+02  0.14996822612E+03  0.12509338958E+03 0.  0.
        -24    2    1    2    0    0 -0.73177743298E+02  0.16338787452E+02  0.12250102160E+03  0.16023564177E+03  0.71042399388E+02 0.  0.
        -13    1    3    3    0    0  0.25026714515E+02  0.23448848804E+02 -0.12278648077E+03  0.12748609654E+03  0.00000000000E+00 0.  1.
         14    1    3    3    0    0 -0.51901350660E+01 -0.66252788761E+02 -0.95679965992E+02  0.11649474414E+03  0.00000000000E+00 0. -1.
         11    1    5    5    0    0 -0.60357920806E+02  0.39916908050E+02  0.67142175881E+02  0.98714284348E+02  0.00000000000E+00 0. -1.
        -12    1    5    5    0    0 -0.12819822492E+02 -0.23578120598E+02  0.55358845720E+02  0.61521357423E+02  0.00000000000E+00 0.  1.
          5    1    4    4  501    0  0.72875280599E+02  0.63253916293E+02  0.42543840361E+02  0.10554295430E+03  0.41800000000E+01 0.  1.
         -5    1    4    4    0  501 -0.19534116750E+02 -0.36788763789E+02  0.14870693263E+02  0.44425271822E+02  0.41800000000E+01 0.  1.
</event>
<event>
11    1  0.8041700E-009  0.3950923E+03  0.7561462E-02  0.9664350E-01
         22   -1    0    0    0    0  0.00000000000E+00  0.00000000000E+00  0.31734819082E+03  0.31734819082E+03  0.00000000000E+00 0.  1.
         22   -1    0    0    0    0 -0.00000000000E+00 -0.00000000000E+00 -0.18681296106E+04  0.18681296106E+04  0.00000000000E+00 0.  1.
         24    2    1    2    0    0  0.27208055323E+03  0.26236491605E+03 -0.14184500807E+04  0.14702299492E+04  0.81928600207E+02 0.  0.
         25    2    1    2    0    0 -0.26035534926E+03 -0.25400901932E+03 -0.32569414211E+03  0.50401279622E+03  0.12508690886E+03 0.  0.
        -24    2    1    2    0    0 -0.11725203968E+02 -0.83558967248E+01  0.19336280294E+03  0.21123505606E+03  0.83807958610E+02 0.  0.
        -11    1    3    3    0    0  0.22828970147E+03  0.17331280602E+03 -0.10084948006E+04  0.10484346805E+04  0.00000000000E+00 0.  1.
         12    1    3    3    0    0  0.43790851764E+02  0.89052110026E+02 -0.40995528010E+03  0.42179526868E+03  0.00000000000E+00 0. -1.
         11    1    5    5    0    0  0.46449347614E+01 -0.88825873853E+01 -0.56788669214E+01  0.11520646992E+02  0.00000000000E+00 0. -1.
        -12    1    5    5    0    0 -0.16370138729E+02  0.52669066049E+00  0.19904166987E+03  0.19971440906E+03  0.00000000000E+00 0.  1.
          5    1    4    4  501    0 -0.82744469281E+01  0.86268844984E+01  0.35533996447E+01  0.13152515240E+02  0.41800000000E+01 0.  1.
         -5    1    4    4    0  501 -0.25208090233E+03 -0.26263590382E+03 -0.32924754175E+03  0.49086028098E+03  0.41800000000E+01 0.  1.
</event>
<event>
11    1  0.8041700E-009  0.1998387E+03  0.7561462E-02  0.1054638E+00
         22   -1    0    0    0    0  0.00000000000E+00  0.00000000000E+00  0.15469012490E+03  0.15469012490E+03  0.00000000000E+00 0.  1.
         22   -1    0    0    0    0 -0.00000000000E+00 -0.00000000000E+00 -0.19013143135E+04  0.19013143135E+04  0.00000000000E+00 0.  1.
         24    2    1    2    0    0  0.49536511973E+02 -0.16814269709E+00 -0.13369531358E+04  0.13402193584E+04  0.79311708310E+02 0.  0.
         25    2    1    2    0    0 -0.11110999174E+03 -0.14069649264E+03 -0.48069049081E+03  0.52806402892E+03  0.12508931764E+03 0.  0.
        -24    2    1    2    0    0  0.61573479763E+02  0.14086463533E+03  0.71019437921E+02  0.18772105114E+03  0.81001812194E+02 0.  0.
        -13    1    3    3    0    0  0.54731276469E+02  0.10509755721E+02 -0.13040283810E+04  0.13052187502E+04  0.00000000000E+00 0.  1.
         14    1    3    3    0    0 -0.51947644960E+01 -0.10677898418E+02 -0.32924754800E+02  0.35000608158E+02  0.00000000000E+00 0. -1.
         13    1    5    5    0    0  0.38278182128E+01  0.42973680606E+01 -0.15164157450E+02  0.16219470881E+02  0.00000000000E+00 0. -1.
        -14    1    5    5    0    0  0.57745661550E+02  0.13656726727E+03  0.86183595371E+02  0.17150158025E+03  0.00000000000E+00 0.  1.
          5    1    4    4  501    0 -0.25370064409E+02  0.13340474267E+02 -0.21194994784E+02  0.35893016392E+02  0.41800000000E+01 0.  1.
         -5    1    4    4    0  501 -0.85739927327E+02 -0.15403696690E+03 -0.45949549602E+03  0.49217101253E+03  0.41800000000E+01 0.  1.
</event>
<event>
11    1  0.8041700E-009  0.1596408E+03  0.7561462E-02  0.1087416E+00
         22   -1    0    0    0    0  0.00000000000E+00  0.00000000000E+00  0.15472789369E+03  0.15472789369E+03  0.00000000000E+00 0. -1.
         22   -1    0    0    0    0 -0.00000000000E+00 -0.00000000000E+00 -0.72899304091E+03  0.72899304091E+03  0.00000000000E+00 0. -1.
         24    2    1    2    0    0 -0.22372160302E+02  0.11469247024E+01 -0.55924016214E+03  0.56569274159E+03  0.82200303770E+02 0.  0.
         25    2    1    2    0    0 -0.66500134961E+02  0.53080694359E+02 -0.78654679952E+02  0.17051027329E+03  0.12508943424E+03 0.  0.
        -24    2    1    2    0    0  0.88872295263E+02 -0.54227619061E+02  0.63629694867E+02  0.14751791972E+03  0.82908859810E+02 0.  0.
        -13    1    3    3    0    0 -0.24992008095E+02  0.25053336128E+02 -0.10473508737E+03  0.11055183692E+03  0.00000000000E+00 0.  1.
         14    1    3    3    0    0  0.26198477930E+01 -0.23906411425E+02 -0.45450507477E+03  0.45514090467E+03  0.00000000000E+00 0. -1.
         11    1    5    5    0    0  0.72033662420E+02 -0.67794324239E+02  0.23099558731E+02  0.10158005973E+03  0.00000000000E+00 0. -1.
        -12    1    5    5    0    0  0.16838632842E+02  0.13566705178E+02  0.40530136136E+02  0.45937859991E+02  0.00000000000E+00 0.  1.
          5    1    4    4  501    0 -0.83812995523E+02  0.32428298262E+02 -0.29168870212E+01  0.90012184601E+02  0.41800000000E+01 0. -1.
         -5    1    4    4    0  501  0.17312860562E+02  0.20652396097E+02 -0.75737792931E+02  0.80498088694E+02  0.41800000000E+01 0. -1.
</event>
<event>
11    1  0.8041700E-009  0.2019310E+03  0.7561462E-02  0.1053166E+00
         22   -1    0    0    0    0  0.00000000000E+00  0.00000000000E+00  0.59097210810E+03  0.59097210810E+03  0.00000000000E+00 0. -1.
         22   -1    0    0    0    0 -0.00000000000E+00 -0.00000000000E+00 -0.10296742967E+04  0.10296742967E+04  0.00000000000E+00 0. -1.
        -24    2    1    2    0    0  0.49529266525E+02  0.14565927854E+03 -0.87967694899E+03  0.89663900882E+03  0.80375393535E+02 0.  0.
         25    2    1    2    0    0 -0.12610024341E+03 -0.20461727987E+03  0.59458116691E+01  0.27101885453E+03  0.12508542770E+03 0.  0.
         24    2    1    2    0    0  0.76570976887E+02  0.58958001331E+02  0.43502894876E+03  0.45298854140E+03  0.81297428994E+02 0.  0.
        -11    1    5    5    0    0  0.26056213352E+02  0.29393902749E+02  0.50236883080E+02  0.63770464909E+02  0.00000000000E+00 0.  1.
         12    1    5    5    0    0  0.50514763535E+02  0.29564098582E+02  0.38479206568E+03  0.38921807650E+03  0.00000000000E+00 0. -1.
         11    1    3    3    0    0 -0.78310830363E+01  0.93161221063E+02 -0.40622058491E+03  0.41683990042E+03  0.00000000000E+00 0. -1.
        -12    1    3    3    0    0  0.57360349561E+02  0.52498057480E+02 -0.47345636408E+03  0.47979910841E+03  0.00000000000E+00 0.  1.
          5    1    4    4  501    0 -0.10440512573E+03 -0.20385391320E+03  0.37875464462E+02  0.23218284048E+03  0.41800000000E+01 0. -1.
         -5    1    4    4    0  501 -0.21695117687E+02 -0.76336667772E+00 -0.31929652793E+02  0.38836014054E+02  0.41800000000E+01 0. -1.
</event>
<event>
11    1  0.8041700E-009  0.1345075E+03  0.7561462E-02  0.1113851E+00
         22   -1    0    0    0    0  0.00000000000E+00  0.00000000000E+00  0.61113950723E+03  0.61113950723E+03  0.00000000000E+00 0.  1.
         22   -1    0    0    0    0 -0.00000000000E+00 -0.00000000000E+00 -0.11834934781E+04  0.11834934781E+04  0.00000000000E+00 0. -1.
         24    2    1    2    0    0  0.20335807837E+02  0.19866843758E+02 -0.11015864076E+04  0.11048641542E+04  0.80149542412E+02 0.  0.
         25    2    1    2    0    0  0.20669700396E+02 -0.47956354518E+02 -0.15954037496E+02  0.13648859450E+03  0.12509019412E+03 0.  0.
        -24    2    1    2    0    0 -0.41005508233E+02  0.28089510759E+02  0.54518647428E+03  0.55328023662E+03  0.80126501132E+02 0.  0.
        -13    1    3    3    0    0  0.13735124564E+02  0.24059164448E+02 -0.11657277798E+03  0.11981948759E+03  0.00000000000E+00 0.  1.
         14    1    3    3    0    0  0.66006832739E+01 -0.41923206894E+01 -0.98501362963E+03  0.98504466656E+03  0.00000000000E+00 0. -1.
         13    1    5    5    0    0 -0.34418227427E+02 -0.23584601555E+02  0.27033006304E+03  0.27353096862E+03  0.00000000000E+00 0. -1.
        -14    1    5    5    0    0 -0.65872808062E+01  0.51674112314E+02  0.27485641123E+03  0.27974926800E+03  0.00000000000E+00 0.  1.
          5    1    4    4  501    0  0.49943522061E+02 -0.46761783945E+01 -0.52389070278E+02  0.72651972615E+02  0.41800000000E+01 0. -1.
         -5    1    4    4    0  501 -0.29273821666E+02 -0.43280176123E+02  0.36435032783E+02  0.63836621888E+02  0.41800000000E+01 0. -1.
</event>
<event>
11    1  0.8041700E-009  0.2495950E+03  0.7561462E-02  0.1024115E+00
         22   -1    0    0    0    0  0.00000000000E+00  0.00000000000E+00  0.10722792163E+04  0.10722792163E+04  0.00000000000E+00 0. -1.
         22   -1    0    0    0    0 -0.00000000000E+00 -0.00000000000E+00 -0.14089802433E+03  0.14089802433E+03  0.00000000000E+00 0.  1.
        -24    2    1    2    0    0  0.10209437610E+03  0.19480573372E+02  0.22781097008E+02  0.13164018635E+03  0.77507457123E+02 0.  0.
         25    2    1    2    0    0  0.71102016549E+02 -0.16886060373E+03  0.11097226393E+03  0.24805541396E+03  0.12508894750E+03 0.  0.
         24    2    1    2    0    0 -0.17319639265E+03  0.14938003035E+03  0.79762783102E+03  0.83348164032E+03  0.78550009745E+02 0.  0.
        -13    1    5    5    0    0 -0.81227019878E+02  0.10409547666E+03  0.34531774964E+03  0.36969993946E+03  0.00000000000E+00 0.  1.
         14    1    5    5    0    0 -0.91969372773E+02  0.45284553690E+02  0.45231008139E+03  0.46378170086E+03  0.00000000000E+00 0. -1.
         11    1    3    3    0    0  0.71707037934E+02  0.47934475728E+02  0.25437661999E+02  0.89926013481E+02  0.00000000000E+00 0. -1.
        -12    1    3    3    0    0  0.30387338168E+02 -0.28453902356E+02 -0.26565649917E+01  0.41714172865E+02  0.00000000000E+00 0.  1.
          5    1    4    4  501    0  0.29313973902E+02 -0.21172191314E+02 -0.24017237650E+02  0.43610444338E+02  0.41800000000E+01 0.  1.
         -5    1    4    4    0  501  0.41788042647E+02 -0.14768841241E+03  0.13498950158E+03  0.20444496963E+03  0.41800000000E+01 0.  1.
</event>
<event>
11    1  0.8041700E-009  0.1869508E+03  0.7561462E-02  0.1064155E+00
         22   -1    0    0    0    0  0.00000000000E+00  0.00000000000E+00  0.44107153216E+03  0.44107153216E+03  0.00000000000E+00 0.  1.
         22   -1    0    0    0    0 -0.00000000000E+00 -0.00000000000E+00 -0.18144836301E+04  0.18144836301E+04  0.00000000000E+00 0.  1.
         24    2    1    2    0    0  0.24354971517E+02 -0.14378604047E+03 -0.14940923264E+04  0.15033052042E+04  0.79668483093E+02 0.  0.
         25    2    1    2    0    0 -0.62087759604E+02  0.94298373412E+02 -0.28657510416E+03  0.33244531694E+03  0.12509006879E+03 0.  0.
        -24    2    1    2    0    0  0.37732788087E+02  0.49487667057E+02  0.40725533262E+03  0.41980464108E+03  0.80661256078E+02 0.  0.
        -13    1    3    3    0    0  0.11722019159E+02 -0.15053659352E+03 -0.13147912876E+04  0.13234329608E+04  0.00000000000E+00 0.  1.
         14    1    3    3    0    0  0.12632952358E+02  0.67505530462E+01 -0.17930103883E+03  0.17987224348E+03  0.00000000000E+00 0. -1.
         11    1    5    5    0    0 -0.21690265971E+01  0.54383261223E+02  0.30704252241E+03  0.31182904666E+03  0.00000000000E+00 0. -1.
        -12    1    5    5    0    0  0.39901814684E+02 -0.48955941660E+01  0.10021281022E+03  0.10797559441E+03  0.00000000000E+00 0.  1.
          5    1    4    4  501    0  0.29401230081E+01 -0.28084819923E+02 -0.34723678402E+02  0.44951169898E+02  0.41800000000E+01 0. -1.
         -5    1    4    4    0  501 -0.65027882612E+02  0.12238319334E+03 -0.25185142576E+03  0.28749414704E+03  0.41800000000E+01 0. -1.
</event>
<event>
11    1  0.8041700E-009  0.1456555E+03  0.7561462E-02  0.1101403E+00
         22   -1    0    0    0    0  0.00000000000E+00  0.00000000000E+00  0.10714139519E+04  0.10714139519E+04  0.00000000000E+00 0.  1.
         22   -1    0    0    0    0 -0.00000000000E+00 -0.00000000000E+00 -0.17129383163E+04  0.17129383163E+04  0.00000000000E+00 0.  1.
        -24    2    1    2    0    0  0.49991239239E+02  0.55868584256E+02 -0.16829251080E+04  0.16864307673E+04  0.78685393394E+02 0.  0.
         25    2    1    2    0    0 -0.62808385477E+02  0.84142327216E+01  0.17020929774E+03  0.22053145664E+03  0.12508887133E+03 0.  0.
         24    2    1    2    0    0  0.12817146238E+02 -0.64282816978E+02  0.87119144584E+03  0.87739004419E+03  0.80883833566E+02 0.  0.
        -13    1    5    5    0    0  0.11741066912E+02 -0.82404481288E+02  0.77853668143E+03  0.78297363654E+03  0.00000000000E+00 0.  1.
         14    1    5    5    0    0  0.10760793256E+01  0.18121664310E+02  0.92654764415E+02  0.94416407646E+02  0.00000000000E+00 0. -1.
         11    1    3    3    0    0  0.37855123391E+02  0.35224075764E+02 -0.40579866565E+03  0.40907982464E+03  0.00000000000E+00 0. -1.
        -12    1    3    3    0    0  0.12136115848E+02  0.20644508492E+02 -0.12771264423E+04  0.12773509427E+04  0.00000000000E+00 0.  1.
          5    1    4    4  501    0  0.13004450263E+02 -0.43472650294E+02  0.37193157366E+02  0.58819983042E+02  0.41800000000E+01 0. -1.
         -5    1    4    4    0  501 -0.75812835739E+02  0.51886883015E+02  0.13301614037E+03  0.16171147359E+03  0.41800000000E+01 0. -1.
</event>
<event>
11    1  0.8041700E-009  0.1610409E+03  0.7561462E-02  0.1086102E+00
         22   -1    0    0    0    0  0.00000000000E+00  0.00000000000E+00  0.18674336123E+04  0.18674336123E+04  0.00000000000E+00 0.  1.
         22   -1    0    0    0    0 -0.00000000000E+00 -0.00000000000E+00 -0.45788266734E+03  0.45788266734E+03  0.00000000000E+00 0.  1.
         24    2    1    2    0    0 -0.26599273847E+02 -0.95911577417E+02 -0.38369613303E+03  0.40446761476E+03  0.80403835952E+02 0.  0.
         25    2    1    2    0    0  0.12452865114E+03  0.69970835045E+02  0.85365047072E+02  0.20817994608E+03  0.12509354890E+03 0.  0.
        -24    2    1    2    0    0 -0.97929377292E+02  0.25940742372E+02  0.17078820309E+04  0.17126687188E+04  0.78166641125E+02 0.  0.
        -11    1    3    3    0    0 -0.34781215502E+02 -0.70983454376E+02 -0.36168098060E+03  0.37021819981E+03  0.00000000000E+00 0.  1.
         12    1    3    3    0    0  0.81819416555E+01 -0.24928123042E+02 -0.22015152435E+02  0.34249414950E+02  0.00000000000E+00 0. -1.
         13    1    5    5    0    0 -0.45786721718E+02  0.47431327650E+02  0.11653400540E+04  0.11672033226E+04  0.00000000000E+00 0. -1.
        -14    1    5    5    0    0 -0.52142655574E+02 -0.21490585278E+02  0.54254197689E+03  0.54546539622E+03  0.00000000000E+00 0.  1.
          5    1    4    4  501    0  0.58382792964E+01  0.62261210985E+02  0.59434228558E+02  0.86373860761E+02  0.41800000000E+01 0. -1.
         -5    1    4    4    0  501  0.11869037184E+03  0.77096240597E+01  0.25930818514E+02  0.12180608532E+03  0.41800000000E+01 0. -1.
</event>
<event>
11    1  0.8041700E-009  0.1854667E+03  0.7561462E-02  0.1065305E+00
         22   -1    0    0    0    0  0.00000000000E+00  0.00000000000E+00  0.93599583944E+03  0.93599583944E+03  0.00000000000E+00 0.  1.
         22   -1    0    0    0    0 -0.00000000000E+00 -0.00000000000E+00 -0.20852998302E+04  0.20852998302E+04  0.00000000000E+00 0. -1.
        -24    2    1    2    0    0  0.48307276739E+02 -0.12766951918E+03 -0.20317649852E+04  0.20378312246E+04  0.77807749650E+02 0.  0.
         25    2    1    2    0    0 -0.11513902305E+03  0.14492251458E+03  0.22180055711E+03  0.31479799864E+03  0.12507103163E+03 0.  0.
         24    2    1    2    0    0  0.66831746309E+02 -0.17252995392E+02  0.66066043729E+03  0.66866644640E+03  0.76671083033E+02 0.  0.
        -11    1    5    5    0    0  0.76547212754E+02  0.66152057261E+01  0.46269886685E+03  0.46903462358E+03  0.00000000000E+00 0.  1.
         12    1    5    5    0    0 -0.97154664442E+01 -0.23868201118E+02  0.19796157044E+03  0.19963182283E+03  0.00000000000E+00 0. -1.
         11    1    3    3    0    0  0.15779476565E+02 -0.12231998019E+03 -0.15119028961E+04  0.15169250267E+04  0.00000000000E+00 0. -1.
        -12    1    3    3    0    0  0.32527800173E+02 -0.53495389944E+01 -0.51986208905E+03  0.52090619787E+03  0.00000000000E+00 0.  1.
          5    1    4    4  501    0 -0.13300640405E+03  0.12018600765E+03  0.22017720660E+03  0.28395572658E+03  0.41800000000E+01 0.  1.
         -5    1    4    4    0  501  0.17867381003E+02  0.24736506927E+02  0.16233505164E+01  0.30842272059E+02  0.41800000000E+01 0.  1.
</event>
<event>
11    1  0.8041700E-009  0.1350567E+03  0.7561462E-02  0.1113208E+00
         22   -1    0    0    0    0  0.00000000000E+00  0.00000000000E+00  0.39096859499E+03  0.39096859499E+03  0.00000000000E+00 0.  1.
         22   -1    0    0    0    0 -0.00000000000E+00 -0.00000000000E+00 -0.12080177405E+04  0.12080177405E+04  0.00000000000E+00 0.  1.
         24    2    1    2    0    0  0.15660419229E+02 -0.79539503716E+01 -0.11703126470E+04  0.11729517194E+04  0.76652008583E+02 0.  0.
         25    2    1    2    0    0 -0.11717924100E+02  0.56494347407E+02  0.16032306909E+03  0.21137625099E+03  0.12509001546E+03 0.  0.
        -24    2    1    2    0    0 -0.39424951290E+01 -0.48540397036E+02  0.19294043238E+03  0.21465836506E+03  0.80501489637E+02 0.  0.
        -11    1    3    3    0    0  0.16563987306E+02 -0.41527027307E+02 -0.72187559858E+03  0.72325876386E+03  0.00000000000E+00 0.  1.
         12    1    3    3    0    0 -0.90356807704E+00  0.33573076936E+02 -0.44843704839E+03  0.44969295558E+03  0.00000000000E+00 0. -1.
         11    1    5    5    0    0  0.96701828409E+01  0.20836842675E+02  0.39074093737E+02  0.45326275495E+02  0.00000000000E+00 0. -1.
        -12    1    5    5    0    0 -0.13612677970E+02 -0.69377239711E+02  0.15386633864E+03  0.16933208957E+03  0.00000000000E+00 0.  1.
          5    1    4    4  501    0 -0.34532176310E+02 -0.17684121482E+02  0.72308473030E+01  0.39685726729E+02  0.41800000000E+01 0. -1.
         -5    1    4    4    0  501  0.22814252210E+02  0.74178468889E+02  0.15309222178E+03  0.17169052426E+03  0.41800000000E+01 0. -1.
</event>
<event>
11    1  0.8041700E-009  0.1748015E+03  0.7561462E-02  0.1073927E+00
         22   -1    0    0    0    0  0.00000000000E+00  0.00000000000E+00  0.57299485366E+03  0.57299485366E+03  0.00000000000E+00 0.  1.
         22   -1    0    0    0    0 -0.00000000000E+00 -0.00000000000E+00 -0.79745958492E+03  0.79745958492E+03  0.00000000000E+00 0. -1.
         24    2    1    2    0    0 -0.88266557070E+02 -0.84285298352E+02 -0.68963239311E+03  0.70496340504E+03  0.80533025604E+02 0.  0.
         25    2    1    2    0    0  0.84484155565E+02  0.89176535330E+02 -0.17363581707E+02  0.17617599788E+03  0.12508581560E+03 0.  0.
        -24    2    1    2    0    0  0.37824015054E+01 -0.48912369784E+01  0.48253124356E+03  0.48931503565E+03  0.80960313406E+02 0.  0.
        -13    1    3    3    0    0 -0.51977845642E+02  0.25768809623E+01 -0.25362082823E+03  0.25890512020E+03  0.00000000000E+00 0.  1.
         14    1    3    3    0    0 -0.36288711429E+02 -0.86862179314E+02 -0.43601156488E+03  0.44605828485E+03  0.00000000000E+00 0. -1.
         13    1    5    5    0    0 -0.25321442414E+02  0.17077099268E+02  0.88932236478E+02  0.94030555940E+02  0.00000000000E+00 0. -1.
        -14    1    5    5    0    0  0.29103843920E+02 -0.21968336247E+02  0.39359900708E+03  0.39528447971E+03  0.00000000000E+00 0.  1.
          5    1    4    4  501    0  0.56629181597E+02  0.81302113702E+01 -0.57703927362E+02  0.81364489664E+02  0.41800000000E+01 0.  1.
         -5    1    4    4    0  501  0.27854973968E+02  0.81046323960E+02  0.40340345655E+02  0.94811508213E+02  0.41800000000E+01 0.  1.
</event>
<event>
11    1  0.8041700E-009  0.1360721E+03  0.7561462E-02  0.1112025E+00
         22   -1    0    0    0    0  0.00000000000E+00  0.00000000000E+00  0.37795693644E+03  0.37795693644E+03  0.00000000000E+00 0.  1.
         22   -1    0    0    0    0 -0.00000000000E+00 -0.00000000000E+00 -0.35576310322E+03  0.35576310322E+03  0.00000000000E+00 0.  1.
         24    2    1    2    0    0  0.50128185631E+02 -0.21990762582E+02 -0.31182734410E+03  0.32681222480E+03  0.81077179995E+02 0.  0.
         25    2    1    2    0    0 -0.15691737759E+02  0.35162072917E+02  0.12945574035E+03  0.18408914828E+03  0.12508966304E+03 0.  0.
        -24    2    1    2    0    0 -0.34436447873E+02 -0.13171310334E+02  0.20456543697E+03  0.22281866657E+03  0.80260748885E+02 0.  0.
        -13    1    3    3    0    0  0.47335220881E+02  0.19456251886E+02 -0.11861617417E+03  0.12918577958E+03  0.00000000000E+00 0.  1.
         14    1    3    3    0    0  0.27929647501E+01 -0.41447014468E+02 -0.19321116994E+03  0.19762644522E+03  0.00000000000E+00 0. -1.
         13    1    5    5    0    0 -0.27390664183E+02 -0.34895576528E+02  0.51127005137E+02  0.67689884029E+02  0.00000000000E+00 0. -1.
        -14    1    5    5    0    0 -0.70457836899E+01  0.21724266193E+02  0.15343843184E+03  0.15512878255E+03  0.00000000000E+00 0.  1.
          5    1    4    4  501    0 -0.66770147905E+02  0.16831819457E+02  0.10197212859E+03  0.12311519080E+03  0.41800000000E+01 0.  1.
         -5    1    4    4    0  501  0.51078410147E+02  0.18330253460E+02  0.27483611759E+02  0.60973957476E+02  0.41800000000E+01 0.  1.
</event>
<event>
11    1  0.8041700E-009  0.2266987E+03  0.7561462E-02  0.1037101E+00
         22   -1    0    0    0    0  0.00000000000E+00  0.00000000000E+00  0.23382259409E+03  0.23382259409E+03  0.00000000000E+00 0. -1.
         22   -1    0    0    0    0 -0.00000000000E+00 -0.00000000000E+00 -0.78638227854E+03  0.78638227854E+03  0.00000000000E+00 0. -1.
         24    2    1    2    0    0 -0.32264662138E+02 -0.17185023510E+03 -0.45738039756E+03  0.49620674424E+03  0.80316830317E+02 0.  0.
         25    2    1    2    0    0  0.12810797136E+03  0.21688928606E+03 -0.20762099092E+03  0.34958245990E+03  0.12509518641E+03 0.  0.
        -24    2    1    2    0    0 -0.95843309226E+02 -0.45039050959E+02  0.11244170402E+03  0.17441566848E+03  0.81013780156E+02 0.  0.
        -13    1    3    3    0    0  0.23693253370E+01 -0.20832900028E+02 -0.10950079585E+02  0.23654337214E+02  0.00000000000E+00 0.  1.
         14    1    3    3    0    0 -0.34633987475E+02 -0.15101733508E+03 -0.44643031797E+03  0.47255240703E+03  0.00000000000E+00 0. -1.
         11    1    5    5    0    0 -0.10255155484E+03 -0.18543504644E+02  0.99830184144E+02  0.14431475542E+03  0.00000000000E+00 0. -1.
        -12    1    5    5    0    0  0.67082456183E+01 -0.26495546314E+02  0.12611519877E+02  0.30100913066E+02  0.00000000000E+00 0.  1.
          5    1    4    4  501    0  0.33639196222E+02  0.33762218901E+02 -0.11317600033E+03  0.12287295226E+03  0.41800000000E+01 0. -1.
         -5    1    4    4    0  501  0.94468775142E+02  0.18312706716E+03 -0.94444990589E+02  0.22670950763E+03  0.41800000000E+01 0. -1.
</event>
<event>
11    1  0.8041700E-009  0.1507924E+03  0.7561462E-02  0.1096072E+00
         22   -1    0    0    0    0  0.00000000000E+00  0.00000000000E+00  0.72119576318E+02  0.72119576318E+02  0.00000000000E+00 0.  1.
         22   -1    0    0    0    0 -0.00000000000E+00 -0.00000000000E+00 -0.19043706564E+04  0.19043706564E+04  0.00000000000E+00 0. -1.
         24    2    1    2    0    0  0.15590797276E+02 -0.80130924475E+02 -0.15154241933E+04  0.15197049140E+04  0.79551882470E+02 0.  0.
         25    2    1    2    0    0 -0.71118281559E+02  0.98150633443E+02 -0.31478005831E+03  0.35975682032E+03  0.12508848004E+03 0.  0.
        -24    2    1    2    0    0  0.55527484283E+02 -0.18019708968E+02 -0.20468284214E+01  0.97028498339E+02  0.77474696264E+02 0.  0.
        -11    1    3    3    0    0  0.22881522604E+02  0.75361379710E+01 -0.45540092466E+03  0.45603767348E+03  0.00000000000E+00 0.  1.
         12    1    3    3    0    0 -0.72907253278E+01 -0.87667062447E+02 -0.10600232687E+04  0.10636672406E+04  0.00000000000E+00 0. -1.
         13    1    5    5    0    0  0.56617283013E+02 -0.38598782697E+02 -0.18137700777E+02  0.70882712638E+02  0.00000000000E+00 0. -1.
        -14    1    5    5    0    0 -0.10897987297E+01  0.20579073729E+02  0.16090872355E+02  0.26145785702E+02  0.00000000000E+00 0.  1.
          5    1    4    4  501    0 -0.82140757407E+02  0.17186998277E+02 -0.21427312100E+03  0.23015850999E+03  0.41800000000E+01 0. -1.
         -5    1    4    4    0  501  0.11022475847E+02  0.80963635167E+02 -0.10050693731E+03  0.12959831033E+03  0.41800000000E+01 0. -1.
</event>
<event>
11    1  0.8041700E-009  0.1672439E+03  0.7561462E-02  0.1080455E+00
         22   -1    0    0    0    0  0.00000000000E+00  0.00000000000E+00  0.15749624453E+04  0.15749624453E+04  0.00000000000E+00 0.  1.
         22   -1    0    0    0    0 -0.00000000000E+00 -0.00000000000E+00 -0.13777049991E+04  0.13777049991E+04  0.00000000000E+00 0. -1.
        -24    2    1    2    0    0 -0.31670977051E+02 -0.47374149869E+01 -0.13194636718E+04  0.13223486659E+04  0.81216494401E+02 0.  0.
         25    2    1    2    0    0 -0.37261041880E+02  0.92906820173E+02  0.66489028419E+02  0.17346009862E+03  0.12509017721E+03 0.  0.
         24    2    1    2    0    0  0.68932018931E+02 -0.88169405186E+02  0.14502320896E+04  0.14568586799E+04  0.82089173166E+02 0.  0.
        -13    1    5    5    0    0  0.45620858639E+02 -0.34460748277E+02  0.11212806374E+04  0.11227373129E+04  0.00000000000E+00 0.  1.
         14    1    5    5    0    0  0.23311160292E+02 -0.53708656909E+02  0.32895145220E+03  0.33412136706E+03  0.00000000000E+00 0. -1.
         13    1    3    3    0    0 -0.18921357819E+02  0.24768284160E+02 -0.11096118284E+04  0.11100495014E+04  0.00000000000E+00 0. -1.
        -14    1    3    3    0    0 -0.12749619232E+02 -0.29505699147E+02 -0.20985184339E+03  0.21229916450E+03  0.00000000000E+00 0.  1.
          5    1    4    4  501    0 -0.11316895967E+02  0.10859645961E+03  0.10648728082E+02  0.10978219794E+03  0.41800000000E+01 0.  1.
         -5    1    4    4    0  501 -0.25944145913E+02 -0.15689639439E+02  0.55840300337E+02  0.63677900677E+02  0.41800000000E+01 0.  1.
</event>
<event>
11    1  0.8041700E-009  0.1822673E+03  0.7561462E-02  0.1067823E+00
         22   -1    0    0    0    0  0.00000000000E+00  0.00000000000E+00  0.39500341243E+04  0.39500341243E+04  0.00000000000E+00 0. -1.
         22   -1    0    0    0    0 -0.00000000000E+00 -0.00000000000E+00 -0.80440173978E+03  0.80440173978E+03  0.00000000000E+00 0. -1.
        -24    2    1    2    0    0  0.38600036756E+02  0.74988700685E+02 -0.77923492798E+03  0.78789203277E+03  0.80333767795E+02 0.  0.
         25    2    1    2    0    0  0.82481473222E+02 -0.79501953097E+01  0.27573603561E+03  0.31391380704E+03  0.12508044566E+03 0.  0.
         24    2    1    2    0    0 -0.12108150998E+03 -0.67038505376E+02  0.36491312769E+04  0.36526300243E+04  0.79950765707E+02 0.  0.
        -13    1    5    5    0    0 -0.52955285769E+02 -0.31832432008E+02  0.76904930601E+03  0.77152731714E+03  0.00000000000E+00 0.  1.
         14    1    5    5    0    0 -0.68126224209E+02 -0.35206073368E+02  0.28800819709E+04  0.28811027071E+04  0.00000000000E+00 0. -1.
         11    1    3    3    0    0  0.65187780762E+01  0.79466065142E+02 -0.63952162867E+03  0.64447285708E+03  0.00000000000E+00 0. -1.
        -12    1    3    3    0    0  0.32081258679E+02 -0.44773644570E+01 -0.13971329931E+03  0.14341917569E+03  0.00000000000E+00 0.  1.
          5    1    4    4  501    0  0.53491300742E+01  0.11110411567E+02  0.21083866949E+03  0.21124031668E+03  0.41800000000E+01 0.  1.
         -5    1    4    4    0  501  0.77132343148E+02 -0.19060606877E+02  0.64897366120E+02  0.10267349036E+03  0.41800000000E+01 0.  1.
</event>
<event>
11    1  0.8041700E-009  0.1388872E+03  0.7561462E-02  0.1108807E+00
         22   -1    0    0    0    0  0.00000000000E+00  0.00000000000E+00  0.21802315097E+04  0.21802315097E+04  0.00000000000E+00 0.  1.
         22   -1    0    0    0    0 -0.00000000000E+00 -0.00000000000E+00 -0.46002014680E+03  0.46002014680E+03  0.00000000000E+00 0.  1.
        -24    2    1    2    0    0 -0.11541088582E+02  0.58829752200E+02 -0.44057506442E+03  0.45177479639E+03  0.79999642488E+02 0.  0.
         25    2    1    2    0    0  0.28778582620E+02 -0.91726179232E+02  0.47721612052E+03  0.50261737352E+03  0.12508836762E+03 0.  0.
         24    2    1    2    0    0 -0.17237494039E+02  0.32896427032E+02  0.16835703068E+04  0.16858594866E+04  0.79585956209E+02 0.  0.
        -11    1    5    5    0    0 -0.42737135245E+02 -0.32107414271E+01  0.71807994155E+03  0.71935775109E+03  0.00000000000E+00 0.  1.
         12    1    5    5    0    0  0.25499641206E+02  0.36107168459E+02  0.96549036525E+03  0.96650173549E+03  0.00000000000E+00 0. -1.
         13    1    3    3    0    0 -0.32226214034E+02  0.17486328367E+02 -0.77125973201E+02  0.85397402144E+02  0.00000000000E+00 0. -1.
        -14    1    3    3    0    0  0.20685125453E+02  0.41343423833E+02 -0.36344909122E+03  0.36637739425E+03  0.00000000000E+00 0.  1.
          5    1    4    4  501    0  0.23613654326E+02 -0.41737213565E+02  0.43264585243E+03  0.43531540944E+03  0.41800000000E+01 0. -1.
         -5    1    4    4    0  501  0.51649282940E+01 -0.49988965667E+02  0.44570268083E+02  0.67301964086E+02  0.41800000000E+01 0. -1.
</event>
<event>
11    1  0.8041700E-009  0.3368205E+03  0.7561462E-02  0.9857096E-01
         22   -1    0    0    0    0  0.00000000000E+00  0.00000000000E+00  0.44067520060E+03  0.44067520060E+03  0.00000000000E+00 0. -1.
         22   -1    0    0    0    0 -0.00000000000E+00 -0.00000000000E+00 -0.85396758348E+03  0.85396758348E+03  0.00000000000E+00 0.  1.
         24    2    1    2    0    0 -0.15023692507E+03 -0.13293753287E+03 -0.53747587001E+03  0.57907809915E+03  0.78788405012E+02 0.  0.
         25    2    1    2    0    0 -0.18957872491E+03  0.21654548849E+03 -0.47782793339E+02  0.31742788568E+03  0.12508087682E+03 0.  0.
        -24    2    1    2    0    0  0.33981564998E+03 -0.83607955618E+02  0.17196628047E+03  0.39813679925E+03  0.80470759160E+02 0.  0.
        -11    1    3    3    0    0 -0.11420761996E+03 -0.92436103957E+02 -0.47053543859E+03  0.49294159162E+03  0.00000000000E+00 0.  1.
         12    1    3    3    0    0 -0.36029305113E+02 -0.40501428917E+02 -0.66940431418E+02  0.86136507531E+02  0.00000000000E+00 0. -1.
         11    1    5    5    0    0  0.29733455951E+03 -0.68160804035E+02  0.11638561353E+03  0.32649555360E+03  0.00000000000E+00 0. -1.
        -12    1    5    5    0    0  0.42481090471E+02 -0.15447151583E+02  0.55580666941E+02  0.71641245643E+02  0.00000000000E+00 0.  1.
          5    1    4    4  501    0  0.14586556643E+02  0.14981241028E+02  0.11808647972E+02  0.24374613522E+02  0.41800000000E+01 0. -1.
         -5    1    4    4    0  501 -0.20416528155E+03  0.20156424746E+03 -0.59591441311E+02  0.29305327216E+03  0.41800000000E+01 0. -1.
</event>
<event>
11    1  0.8041700E-009  0.1374562E+03  0.7561462E-02  0.1110433E+00
         22   -1    0    0    0    0  0.00000000000E+00  0.00000000000E+00  0.59037694309E+03  0.59037694309E+03  0.00000000000E+00 0.  1.
         22   -1    0    0    0    0 -0.00000000000E+00 -0.00000000000E+00 -0.18943495422E+03  0.18943495422E+03  0.00000000000E+00 0. -1.
         24    2    1    2    0    0 -0.38685124535E+02 -0.42171668937E+02 -0.13249528761E+03  0.16102321399E+03  0.71403681165E+02 0.  0.
         25    2    1    2    0    0  0.64424557738E+02  0.13815272382E+02  0.92514761355E+02  0.16895192337E+03  0.12507751977E+03 0.  0.
        -24    2    1    2    0    0 -0.25739433203E+02  0.28356396555E+02  0.44092251512E+03  0.44983675995E+03  0.80460192744E+02 0.  0.
        -13    1    3    3    0    0  0.29224934622E+01 -0.27269803001E+02 -0.74828211328E+01  0.28428431822E+02  0.00000000000E+00 0.  1.
         14    1    3    3    0    0 -0.41607617997E+02 -0.14901865936E+02 -0.12501246648E+03  0.13259478217E+03  0.00000000000E+00 0. -1.
         11    1    5    5    0    0  0.21850853933E+02  0.23842789100E+02  0.89227643791E+02  0.94907907079E+02  0.00000000000E+00 0. -1.
        -12    1    5    5    0    0 -0.47590287135E+02  0.45136074552E+01  0.35169487133E+03  0.35492885287E+03  0.00000000000E+00 0.  1.
          5    1    4    4  501    0 -0.85325120815E+01  0.26454631572E+02  0.90497858475E+02  0.94762788491E+02  0.41800000000E+01 0.  1.
         -5    1    4    4    0  501  0.72957069819E+02 -0.12639359190E+02  0.20169028797E+01  0.74189134882E+02  0.41800000000E+01 0.  1.
</event>
<event>
11    1  0.8041700E-009  0.2926917E+03  0.7561462E-02  0.1003333E+00
         22   -1    0    0    0    0  0.00000000000E+00  0.00000000000E+00  0.85382302061E+03  0.85382302061E+03  0.00000000000E+00 0.  1.
         22   -1    0    0    0    0 -0.00000000000E+00 -0.00000000000E+00 -0.39214807596E+03  0.39214807596E+03  0.00000000000E+00 0. -1.
        -24    2    1    2    0    0  0.17445924681E+02 -0.50897610667E+02 -0.24020999810E+03  0.26011298341E+03  0.84041619994E+02 0.  0.
         25    2    1    2    0    0  0.69860702044E+02  0.29134661305E+03  0.12189392549E+03  0.34679788574E+03  0.12508907968E+03 0.  0.
         24    2    1    2    0    0 -0.87306626724E+02 -0.24044900239E+03  0.57999101725E+03  0.63906022741E+03  0.81056920443E+02 0.  0.
        -13    1    5    5    0    0 -0.13672954298E+02 -0.13888638799E+03  0.25487311552E+03  0.29057990891E+03  0.00000000000E+00 0.  1.
         14    1    5    5    0    0 -0.73633672426E+02 -0.10156261440E+03  0.32511790173E+03  0.34848031851E+03  0.00000000000E+00 0. -1.
         11    1    3    3    0    0  0.13567049264E+02 -0.47357499042E+02 -0.24681018698E+03  0.25167849717E+03  0.00000000000E+00 0. -1.
        -12    1    3    3    0    0  0.38788754165E+01 -0.35401116245E+01  0.66001888811E+01  0.84344862367E+01  0.00000000000E+00 0.  1.
          5    1    4    4  501    0  0.95302814958E+02  0.16216087685E+03  0.42131522600E+02  0.19279863619E+03  0.41800000000E+01 0.  1.
         -5    1    4    4    0  501 -0.25442112914E+02  0.12918573620E+03  0.79762402893E+02  0.15399924955E+03  0.41800000000E+01 0.  1.
</event>
<event>
11    1  0.8041700E-009  0.1513879E+03  0.7561462E-02  0.1095469E+00
         22   -1    0    0    0    0  0.00000000000E+00  0.00000000000E+00  0.48836554443E+03  0.48836554443E+03  0.00000000000E+00 0. -1.
         22   -1    0    0    0    0 -0.00000000000E+00 -0.00000000000E+00 -0.88481969643E+03  0.88481969643E+03  0.00000000000E+00 0.  1.
         24    2    1    2    0    0  0.32878491900E+02  0.51721692143E+02 -0.84050029338E+03  0.84704496838E+03  0.85371579652E+02 0.  0.
         25    2    1    2    0    0 -0.21505766811E+02  0.58215583153E+02  0.20632076711E+03  0.24912428460E+03  0.12507237150E+03 0.  0.
        -24    2    1    2    0    0 -0.11372725090E+02 -0.10993727530E+03  0.23772537427E+03  0.27701598789E+03  0.89492796334E+02 0.  0.
        -11    1    3    3    0    0  0.55187318095E+02  0.57964430739E+02 -0.71084621015E+03  0.71533757750E+03  0.00000000000E+00 0.  1.
         12    1    3    3    0    0 -0.22308826195E+02 -0.62427385960E+01 -0.12965408324E+03  0.13170739088E+03  0.00000000000E+00 0. -1.
         11    1    5    5    0    0  0.14191447315E+02 -0.72154562312E+02  0.21255038246E+03  0.22491185634E+03  0.00000000000E+00 0. -1.
        -12    1    5    5    0    0 -0.25564172405E+02 -0.37782712983E+02  0.25174991813E+02  0.52104131543E+02  0.00000000000E+00 0.  1.
          5    1    4    4  501    0 -0.22317907849E+02  0.56430975817E+02  0.22334761875E+03  0.23148255926E+03  0.41800000000E+01 0.  1.
         -5    1    4    4    0  501  0.81214103832E+00  0.17846073358E+01 -0.17026851637E+02  0.17641725343E+02  0.41800000000E+01 0.  1.
</event>
<event>
11    1  0.8041700E-009  0.3349144E+03  0.7561462E-02  0.9864096E-01
         22   -1    0    0    0    0  0.00000000000E+00  0.00000000000E+00  0.75098841856E+03  0.75098841856E+03  0.00000000000E+00 0. -1.
         22   -1    0    0    0    0 -0.00000000000E+00 -0.00000000000E+00 -0.91161813743E+03  0.91161813743E+03  0.00000000000E+00 0.  1.
        -24    2    1    2    0    0 -0.46452152357E+02 -0.11832791631E+03 -0.55367901553E+03  0.57376619535E+03  0.80547479462E+02 0.  0.
         25    2    1    2    0    0 -0.20678909812E+03  0.29192480015E+03 -0.19088722437E+03  0.42434807183E+03  0.12510608934E+03 0.  0.
         24    2    1    2    0    0  0.25324125048E+03 -0.17359688384E+03  0.58393652103E+03  0.66449228881E+03  0.79379671728E+02 0.  0.
        -11    1    5    5    0    0  0.60046786146E+02 -0.16062574852E+02  0.72212134865E+02  0.95279668656E+02  0.00000000000E+00 0.  1.
         12    1    5    5    0    0  0.19319446433E+03 -0.15753430899E+03  0.51172438616E+03  0.56921262016E+03  0.00000000000E+00 0. -1.
         13    1    3    3    0    0  0.20737950733E+02 -0.47407829611E+02 -0.16068151912E+03  0.16880792486E+03  0.00000000000E+00 0. -1.
        -14    1    3    3    0    0 -0.67190103091E+02 -0.70920086703E+02 -0.39299749641E+03  0.40495827049E+03  0.00000000000E+00 0.  1.
          5    1    4    4  501    0 -0.93959855320E+02  0.55569603958E+02 -0.18563737345E+02  0.11080848361E+03  0.41800000000E+01 0. -1.
         -5    1    4    4    0  501 -0.11282924280E+03  0.23635519620E+03 -0.17232348702E+03  0.31353958822E+03  0.41800000000E+01 0. -1.
</event>
<event>
11    1  0.8041700E-009  0.2226261E+03  0.7561462E-02  0.1039585E+00
         22   -1    0    0    0    0  0.00000000000E+00  0.00000000000E+00  0.45054569595E+03  0.45054569595E+03  0.00000000000E+00 0. -1.
         22   -1    0    0    0    0 -0.00000000000E+00 -0.00000000000E+00 -0.22213886937E+04  0.22213886937E+04  0.00000000000E+00 0. -1.
         24    2    1    2    0    0  0.18239687555E+03  0.33472669208E+02 -0.21397579581E+04  0.21493213172E+04  0.81418456945E+02 0.  0.
         25    2    1    2    0    0 -0.13865490837E+03 -0.59340721852E+02  0.68120470509E+02  0.20744742411E+03  0.12509008906E+03 0.  0.
        -24    2    1    2    0    0 -0.43741967179E+02  0.25868052645E+02  0.30079448989E+03  0.31516564839E+03  0.79180458039E+02 0.  0.
        -13    1    3    3    0    0  0.23104098273E+02 -0.21204689321E+02 -0.48573979786E+03  0.48675105488E+03  0.00000000000E+00 0.  1.
         14    1    3    3    0    0  0.15929277727E+03  0.54677358529E+02 -0.16540181603E+04  0.16625702623E+04  0.00000000000E+00 0. -1.
         11    1    5    5    0    0 -0.51067839235E+02 -0.62583703472E+01  0.24519954207E+03  0.25053923213E+03  0.00000000000E+00 0. -1.
        -12    1    5    5    0    0  0.73258720558E+01  0.32126422992E+02  0.55594947824E+02  0.64626416264E+02  0.00000000000E+00 0.  1.
          5    1    4    4  501    0 -0.12744011519E+03 -0.78765986579E+02  0.90834505571E+02  0.17525251326E+03  0.41800000000E+01 0.  1.
         -5    1    4    4    0  501 -0.11214793182E+02  0.19425264727E+02 -0.22714035062E+02  0.32194910849E+02  0.41800000000E+01 0.  1.
</event>
<event>
11    1  0.8041700E-009  0.1575316E+03  0.7561462E-02  0.1089422E+00
         22   -1    0    0    0    0  0.00000000000E+00  0.00000000000E+00  0.11060308315E+03  0.11060308315E+03  0.00000000000E+00 0. -1.
         22   -1    0    0    0    0 -0.00000000000E+00 -0.00000000000E+00 -0.59215467619E+03  0.59215467619E+03  0.00000000000E+00 0. -1.
         24    2    1    2    0    0  0.12564253533E+02 -0.40902713553E+02 -0.31095651615E+03  0.32430645706E+03  0.81546494147E+02 0.  0.
         25    2    1    2    0    0  0.82253520224E+02  0.58141943476E+02 -0.19263580783E+03  0.25080386410E+03  0.12509155291E+03 0.  0.
        -24    2    1    2    0    0 -0.94817773758E+02 -0.17239229923E+02  0.22040730941E+02  0.12764743818E+03  0.80749448204E+02 0.  0.
        -11    1    3    3    0    0 -0.33067139483E+02 -0.27256668926E+02 -0.11740995448E+03  0.12498583570E+03  0.00000000000E+00 0.  1.
         12    1    3    3    0    0  0.45631393017E+02 -0.13646044627E+02 -0.19354656167E+03  0.19932062136E+03  0.00000000000E+00 0. -1.
         11    1    5    5    0    0 -0.62885649820E+02  0.27629852278E+02  0.23384626270E+02  0.72559316673E+02  0.00000000000E+00 0. -1.
        -12    1    5    5    0    0 -0.31932123937E+02 -0.44869082201E+02 -0.13438953291E+01  0.55088121509E+02  0.00000000000E+00 0.  1.
          5    1    4    4  501    0  0.42426612965E+02  0.57225269751E+02 -0.20754325313E+02  0.74316642853E+02  0.41800000000E+01 0. -1.
         -5    1    4    4    0  501  0.39826907259E+02  0.91667372588E+00 -0.17188148252E+03  0.17648722125E+03  0.41800000000E+01 0. -1.
</event>
<event>
11    1  0.8041700E-009  0.1577445E+03  0.7561462E-02  0.1089218E+00
         22   -1    0    0    0    0  0.00000000000E+00  0.00000000000E+00  0.54802388392E+03  0.54802388392E+03  0.00000000000E+00 0. -1.
         22   -1    0    0    0    0 -0.00000000000E+00 -0.00000000000E+00 -0.44718188153E+03  0.44718188153E+03  0.00000000000E+00 0. -1.
        -24    2    1    2    0    0 -0.83705607340E+02  0.47278157652E+02 -0.39572265241E+03  0.41519707557E+03  0.80934177235E+02 0.  0.
         25    2    1    2    0    0  0.51290909707E+02 -0.10126263744E+03  0.17788356480E+03  0.24530673472E+03  0.12509177557E+03 0.  0.
         24    2    1    2    0    0  0.32414697634E+02  0.53984479791E+02  0.31868109001E+03  0.33470195516E+03  0.80639475303E+02 0.  0.
        -11    1    5    5    0    0  0.27019846905E+02 -0.12757510611E+02  0.54355000106E+02  0.62026544642E+02  0.00000000000E+00 0.  1.
         12    1    5    5    0    0  0.53948507285E+01  0.66741990401E+02  0.26432608990E+03  0.27267541051E+03  0.00000000000E+00 0. -1.
         11    1    3    3    0    0 -0.82745222670E+02  0.34638671856E+02 -0.39178595038E+03  0.40192392362E+03  0.00000000000E+00 0. -1.
        -12    1    3    3    0    0 -0.96038467069E+00  0.12639485796E+02 -0.39367020264E+01  0.13273151952E+02  0.00000000000E+00 0.  1.
          5    1    4    4  501    0  0.59798308832E+02 -0.88388947487E+02  0.19472266592E+03  0.22208744404E+03  0.41800000000E+01 0.  1.
         -5    1    4    4    0  501 -0.85073991254E+01 -0.12873689955E+02 -0.16839101126E+02  0.23219290680E+02  0.41800000000E+01 0.  1.
</event>
<event>
11    1  0.8041700E-009  0.1497213E+03  0.7561462E-02  0.1097164E+00
         22   -1    0    0    0    0  0.00000000000E+00  0.00000000000E+00  0.15781761556E+04  0.15781761556E+04  0.00000000000E+00 0. -1.
         22   -1    0    0    0    0 -0.00000000000E+00 -0.00000000000E+00 -0.11107128072E+04  0.11107128072E+04  0.00000000000E+00 0.  1.
        -24    2    1    2    0    0  0.44418232724E+02 -0.36673419808E+02 -0.87260896618E+03  0.87818740872E+03  0.80304407385E+02 0.  0.
         25    2    1    2    0    0 -0.27153466691E+02 -0.44152404335E+02 -0.21344819117E+03  0.25278808060E+03  0.12511969396E+03 0.  0.
         24    2    1    2    0    0 -0.17264766033E+02  0.80825824143E+02  0.15535205057E+04  0.15579134734E+04  0.82689436310E+02 0.  0.
        -13    1    5    5    0    0  0.15160045212E+02  0.55702534928E+02  0.45779832609E+03  0.46142378215E+03  0.00000000000E+00 0.  1.
         14    1    5    5    0    0 -0.32424811245E+02  0.25123289215E+02  0.10957221797E+04  0.10964896913E+04  0.00000000000E+00 0. -1.
         11    1    3    3    0    0  0.85622510063E+01 -0.18019073889E+02 -0.40992326949E+02  0.45589143826E+02  0.00000000000E+00 0. -1.
        -12    1    3    3    0    0  0.35855981718E+02 -0.18654345919E+02 -0.83161663923E+03  0.83259826489E+03  0.00000000000E+00 0.  1.
          5    1    4    4  501    0  0.23138403512E+02  0.91453966991E+01  0.18751100844E+01  0.25298467062E+02  0.41800000000E+01 0.  1.
         -5    1    4    4    0  501 -0.50291870203E+02 -0.53297801034E+02 -0.21532330126E+03  0.22748961354E+03  0.41800000000E+01 0.  1.
</event>
<event>
11    1  0.8041700E-009  0.1392548E+03  0.7561462E-02  0.1108393E+00
         22   -1    0    0    0    0  0.00000000000E+00  0.00000000000E+00  0.27661544466E+03  0.27661544466E+03  0.00000000000E+00 0. -1.
         22   -1    0    0    0    0 -0.00000000000E+00 -0.00000000000E+00 -0.14710083520E+03  0.14710083520E+03  0.00000000000E+00 0.  1.
        -24    2    1    2    0    0 -0.41728282011E+02  0.61021317403E+02 -0.17683262494E+02  0.11256149418E+03  0.83021331615E+02 0.  0.
         25    2    1    2    0    0  0.35657280317E+02 -0.28371144083E+02 -0.66298341054E+01  0.13329872688E+03  0.12509289521E+03 0.  0.
         24    2    1    2    0    0  0.60710016932E+01 -0.32650173321E+02  0.15382770606E+03  0.17785605879E+03  0.82866903030E+02 0.  0.
        -11    1    5    5    0    0  0.31366439064E+02 -0.48860650286E+02  0.11434897416E+03  0.12824548545E+03  0.00000000000E+00 0.  1.
         12    1    5    5    0    0 -0.25295437371E+02  0.16210476966E+02  0.39478731901E+02  0.49610573346E+02  0.00000000000E+00 0. -1.
         11    1    3    3    0    0 -0.41589730718E+01  0.71080287074E+02 -0.39352907789E+01  0.71310523634E+02  0.00000000000E+00 0. -1.
        -12    1    3    3    0    0 -0.37569308939E+02 -0.10058969670E+02 -0.13747971715E+02  0.41250970549E+02  0.00000000000E+00 0.  1.
          5    1    4    4  501    0 -0.38695436470E+02 -0.14555433384E+02  0.27907657827E+02  0.50055041804E+02  0.41800000000E+01 0.  1.
         -5    1    4    4    0  501  0.74352716787E+02 -0.13815710698E+02 -0.34537491933E+02  0.83243685074E+02  0.41800000000E+01 0.  1.
</event>
<event>
11    1  0.8041700E-009  0.2876048E+03  0.7561462E-02  0.1005578E+00
         22   -1    0    0    0    0  0.00000000000E+00  0.00000000000E+00  0.17468796570E+03  0.17468796570E+03  0.00000000000E+00 0.  1.
         22   -1    0    0    0    0 -0.00000000000E+00 -0.00000000000E+00 -0.22143062926E+04  0.22143062926E+04  0.00000000000E+00 0. -1.
         24    2    1    2    0    0  0.77185568605E+02 -0.22694229052E+03 -0.10836258521E+04  0.11126643276E+04  0.79476432308E+02 0.  0.
         25    2    1    2    0    0  0.31602764210E+02  0.30871096500E+03 -0.10432003111E+04  0.10955435523E+04  0.12509033279E+03 0.  0.
        -24    2    1    2    0    0 -0.10878833281E+03 -0.81768674482E+02  0.87207836272E+02  0.18078637842E+03  0.80978333100E+02 0.  0.
        -11    1    3    3    0    0  0.70863003529E+02 -0.93140364829E+02 -0.44419936306E+03  0.45935799435E+03  0.00000000000E+00 0.  1.
         12    1    3    3    0    0  0.63225650765E+01 -0.13380192569E+03 -0.63942648904E+03  0.65330633322E+03  0.00000000000E+00 0. -1.
         13    1    5    5    0    0 -0.19624325463E+02 -0.53087077407E+02  0.61732835867E+01  0.56933833243E+02  0.00000000000E+00 0. -1.
        -14    1    5    5    0    0 -0.89164007352E+02 -0.28681597075E+02  0.81034552686E+02  0.12385254518E+03  0.00000000000E+00 0.  1.
          5    1    4    4  501    0  0.65213890007E+02  0.80773604375E+02 -0.30488156626E+03  0.32209853843E+03  0.41800000000E+01 0. -1.
         -5    1    4    4    0  501 -0.33611125797E+02  0.22793736063E+03 -0.73831874482E+03  0.77344501388E+03  0.41800000000E+01 0. -1.
</event>
<event>
11    1  0.8041700E-009  0.1640050E+03  0.7561462E-02  0.1083370E+00
         22   -1    0    0    0    0  0.00000000000E+00  0.00000000000E+00  0.30954844985E+03  0.30954844985E+03  0.00000000000E+00 0.  1.
         22   -1    0    0    0    0 -0.00000000000E+00 -0.00000000000E+00 -0.50630466974E+03  0.50630466974E+03  0.00000000000E+00 0. -1.
         24    2    1    2    0    0 -0.74960872308E+02 -0.80079670694E+02 -0.43758554762E+03  0.45874586756E+03  0.83275287305E+02 0.  0.
         25    2    1    2    0    0  0.42262416161E+02  0.55013567933E+02  0.60749368965E+02  0.15540410174E+03  0.12508934619E+03 0.  0.
        -24    2    1    2    0    0  0.32698456148E+02  0.25066102762E+02  0.18007995877E+03  0.20170315031E+03  0.80980681355E+02 0.  0.
        -11    1    3    3    0    0 -0.28718617380E+02 -0.85374633764E+02 -0.31484222179E+03  0.32747398629E+03  0.00000000000E+00 0.  1.
         12    1    3    3    0    0 -0.46242254929E+02  0.52949630699E+01 -0.12274332583E+03  0.13127188127E+03  0.00000000000E+00 0. -1.
         13    1    5    5    0    0 -0.10968539885E+02 -0.11984479763E+02  0.42651219533E+01  0.16796662992E+02  0.00000000000E+00 0. -1.
        -14    1    5    5    0    0  0.43666996033E+02  0.37050582524E+02  0.17581483681E+03  0.18490648732E+03  0.00000000000E+00 0.  1.
          5    1    4    4  501    0  0.58097414447E+02 -0.22265429792E+02  0.15072995707E+02  0.64153928398E+02  0.41800000000E+01 0. -1.
         -5    1    4    4    0  501 -0.15834998286E+02  0.77278997725E+02  0.45676373258E+02  0.91250173337E+02  0.41800000000E+01 0. -1.
</event>
<event>
11    1  0.8041700E-009  0.2871106E+03  0.7561462E-02  0.1005799E+00
         22   -1    0    0    0    0  0.00000000000E+00  0.00000000000E+00  0.21781334127E+04  0.21781334127E+04  0.00000000000E+00 0.  1.
         22   -1    0    0    0    0 -0.00000000000E+00 -0.00000000000E+00 -0.14801618513E+03  0.14801618513E+03  0.00000000000E+00 0. -1.
         24    2    1    2    0    0 -0.10201838859E+03 -0.29803335015E+02 -0.67666100973E+02  0.14968957955E+03  0.80822513063E+02 0.  0.
         25    2    1    2    0    0 -0.99118391618E+01  0.26633548074E+03  0.88521770131E+03  0.93289306017E+03  0.12508497174E+03 0.  0.
        -24    2    1    2    0    0  0.11193022775E+03 -0.23653214572E+03  0.12125656272E+04  0.12435669581E+04  0.87564531034E+02 0.  0.
        -13    1    3    3    0    0 -0.44437375654E+02  0.18761597383E+02  0.29412447868E+00  0.48236546317E+02  0.00000000000E+00 0.  1.
         14    1    3    3    0    0 -0.57581012934E+02 -0.48564932399E+02 -0.67960225452E+02  0.10145303324E+03  0.00000000000E+00 0. -1.
         11    1    5    5    0    0  0.32611812181E+02 -0.87589827140E+01  0.11756391328E+03  0.12231730776E+03  0.00000000000E+00 0. -1.
        -12    1    5    5    0    0  0.79318415569E+02 -0.22777316301E+03  0.10950017139E+04  0.11212496503E+04  0.00000000000E+00 0.  1.
          5    1    4    4  501    0  0.17076620808E+02  0.23938941890E+03  0.61875014781E+03  0.66367772501E+03  0.41800000000E+01 0.  1.
         -5    1    4    4    0  501 -0.26988459970E+02  0.26946061838E+02  0.26646755350E+03  0.26921533517E+03  0.41800000000E+01 0.  1.
</event>
<event>
11    1  0.8041700E-009  0.1613154E+03  0.7561462E-02  0.1085847E+00
         22   -1    0    0    0    0  0.00000000000E+00  0.00000000000E+00  0.12538216551E+04  0.12538216551E+04  0.00000000000E+00 0.  1.
         22   -1    0    0    0    0 -0.00000000000E+00 -0.00000000000E+00 -0.86503004867E+03  0.86503004867E+03  0.00000000000E+00 0.  1.
        -24    2    1    2    0    0  0.30887029911E+02 -0.95424087182E+02 -0.79086658518E+03  0.80147094505E+03  0.82619338942E+02 0.  0.
         25    2    1    2    0    0 -0.25257097563E+02  0.14044516294E+03  0.67480724548E+02  0.20140389473E+03  0.12508843215E+03 0.  0.
         24    2    1    2    0    0 -0.56299323485E+01 -0.45021075755E+02  0.11121774670E+04  0.11159768640E+04  0.80044046175E+02 0.  0.
        -13    1    5    5    0    0  0.10618819757E+01  0.39691038402E+01  0.79142851083E+03  0.79143917589E+03  0.00000000000E+00 0.  1.
         14    1    5    5    0    0 -0.66918143242E+01 -0.48990179595E+02  0.32074895621E+03  0.32453768809E+03  0.00000000000E+00 0. -1.
         11    1    3    3    0    0  0.35972664615E+01 -0.41585231316E+02 -0.10558459014E+03  0.11353579817E+03  0.00000000000E+00 0. -1.
        -12    1    3    3    0    0  0.27289763450E+02 -0.53838855865E+02 -0.68528199504E+03  0.68793514688E+03  0.00000000000E+00 0.  1.
          5    1    4    4  501    0  0.40216024364E+02  0.10057628862E+03  0.17514557999E+02  0.10980505722E+03  0.41800000000E+01 0. -1.
         -5    1    4    4    0  501 -0.65473121927E+02  0.39868874314E+02  0.49966166549E+02  0.91598837512E+02  0.41800000000E+01 0. -1.
</event>
<event>
11    1  0.8041700E-009  0.2086146E+03  0.7561462E-02  0.1048594E+00
         22   -1    0    0    0    0  0.00000000000E+00  0.00000000000E+00  0.27764117931E+03  0.27764117931E+03  0.00000000000E+00 0. -1.
         22   -1    0    0    0    0 -0.00000000000E+00 -0.00000000000E+00 -0.40040904897E+03  0.40040904897E+03  0.00000000000E+00 0.  1.
         24    2    1    2    0    0  0.97361404340E+02  0.22296688894E+02 -0.11731390428E+03  0.17410048110E+03  0.81068119442E+02 0.  0.
         25    2    1    2    0    0 -0.18670908351E+02 -0.17360503865E+03 -0.15408517689E+03  0.26434166337E+03  0.12508781312E+03 0.  0.
        -24    2    1    2    0    0 -0.78690495989E+02  0.15130834976E+03  0.14863121151E+03  0.23960808381E+03  0.78958127660E+02 0.  0.
        -13    1    3    3    0    0  0.71498677379E+02  0.51206225840E+02 -0.66937595656E+02  0.11052049649E+03  0.00000000000E+00 0.  1.
         14    1    3    3    0    0  0.25862726961E+02 -0.28909536946E+02 -0.50376308624E+02  0.63579984609E+02  0.00000000000E+00 0. -1.
         11    1    5    5    0    0 -0.62254235403E+02  0.15443103340E+03  0.14814463986E+03  0.22287074330E+03  0.00000000000E+00 0. -1.
        -12    1    5    5    0    0 -0.16436260586E+02 -0.31226836381E+01  0.48657165604E+00  0.16737340504E+02  0.00000000000E+00 0.  1.
          5    1    4    4  501    0  0.10106344574E+02  0.14459501805E+02 -0.36203068460E+02  0.40488886858E+02  0.41800000000E+01 0.  1.
         -5    1    4    4    0  501 -0.28777252925E+02 -0.18806454046E+03 -0.11788210843E+03  0.22385277651E+03  0.41800000000E+01 0.  1.
</event>
<event>
11    1  0.8041700E-009  0.1416842E+03  0.7561462E-02  0.1105692E+00
         22   -1    0    0    0    0  0.00000000000E+00  0.00000000000E+00  0.11735726531E+04  0.11735726531E+04  0.00000000000E+00 0.  1.
         22   -1    0    0    0    0 -0.00000000000E+00 -0.00000000000E+00 -0.12276763558E+03  0.12276763558E+03  0.00000000000E+00 0. -1.
        -24    2    1    2    0    0  0.33222874312E+02  0.26337505369E+02 -0.63339207332E+02  0.11117282325E+03  0.80932798525E+02 0.  0.
         25    2    1    2    0    0 -0.11072623308E+02  0.39609917062E+02  0.10113080948E+03  0.16603203542E+03  0.12509055777E+03 0.  0.
         24    2    1    2    0    0 -0.22150251005E+02 -0.65947422431E+02  0.10130134154E+04  0.10191354300E+04  0.87184567507E+02 0.  0.
        -11    1    5    5    0    0 -0.39745795811E+01 -0.38138674903E+02  0.91186664108E+03  0.91267251899E+03  0.00000000000E+00 0.  1.
         12    1    5    5    0    0 -0.18175671423E+02 -0.27808747527E+02  0.10114677429E+03  0.10646291101E+03  0.00000000000E+00 0. -1.
         11    1    3    3    0    0  0.37930095604E+02  0.52290039722E+02 -0.40198269336E+02  0.76084435099E+02  0.00000000000E+00 0. -1.
        -12    1    3    3    0    0 -0.47072212915E+01 -0.25952534353E+02 -0.23140937996E+02  0.35088388150E+02  0.00000000000E+00 0.  1.
          5    1    4    4  501    0  0.52273649821E+02  0.43234096507E+02  0.48611165066E+02  0.83559794970E+02  0.41800000000E+01 0.  1.
         -5    1    4    4    0  501 -0.63346273129E+02 -0.36241794448E+01  0.52519644412E+02  0.82472240452E+02  0.41800000000E+01 0.  1.
</event>
<event>
11    1  0.8041700E-009  0.1754589E+03  0.7561462E-02  0.1073376E+00
         22   -1    0    0    0    0  0.00000000000E+00  0.00000000000E+00  0.59678947372E+02  0.59678947372E+02  0.00000000000E+00 0. -1.
         22   -1    0    0    0    0 -0.00000000000E+00 -0.00000000000E+00 -0.17713236052E+04  0.17713236052E+04  0.00000000000E+00 0.  1.
         24    2    1    2    0    0 -0.43526475477E+02  0.11586859718E+02 -0.11607195767E+04  0.11644682464E+04  0.81777452935E+02 0.  0.
         25    2    1    2    0    0 -0.81054265464E+02  0.34525472426E+02 -0.46328025644E+03  0.48789165979E+03  0.12509146049E+03 0.  0.
        -24    2    1    2    0    0  0.12458074094E+03 -0.46112332144E+02 -0.87644824681E+02  0.17864264635E+03  0.81147221847E+02 0.  0.
        -13    1    3    3    0    0 -0.95032541152E+01  0.15816191975E+02 -0.99825262920E+03  0.99842314450E+03  0.00000000000E+00 0.  1.
         14    1    3    3    0    0 -0.34023221362E+02 -0.42293322566E+01 -0.16246694752E+03  0.16604510195E+03  0.00000000000E+00 0. -1.
         11    1    5    5    0    0  0.12685920030E+03 -0.31362380000E+02 -0.53179934635E+02  0.14108494260E+03  0.00000000000E+00 0. -1.
        -12    1    5    5    0    0 -0.22784593619E+01 -0.14749952143E+02 -0.34464890046E+02  0.37557703753E+02  0.00000000000E+00 0.  1.
          5    1    4    4  501    0  0.12428945037E+02  0.49850010673E+02 -0.23710879840E+03  0.24264698003E+03  0.41800000000E+01 0.  1.
         -5    1    4    4    0  501 -0.93483210501E+02 -0.15324538247E+02 -0.22617145804E+03  0.24524467976E+03  0.41800000000E+01 0.  1.
</event>
<event>
11    1  0.8041700E-009  0.1461126E+03  0.7561462E-02  0.1100918E+00
         22   -1    0    0    0    0  0.00000000000E+00  0.00000000000E+00  0.12916974612E+03  0.12916974612E+03  0.00000000000E+00 0.  1.
         22   -1    0    0    0    0 -0.00000000000E+00 -0.00000000000E+00 -0.11249106048E+04  0.11249106048E+04  0.00000000000E+00 0. -1.
        -24    2    1    2    0    0  0.71280305178E+02 -0.21900237568E+02 -0.95451958628E+03  0.96067630530E+03  0.78935547571E+02 0.  0.
         25    2    1    2    0    0 -0.97633359600E+02 -0.16635698503E+02 -0.95275765306E+02  0.18583420149E+03  0.12509140505E+03 0.  0.
         24    2    1    2    0    0  0.26353054423E+02  0.38535936071E+02  0.54054492901E+02  0.10756984413E+03  0.80435572457E+02 0.  0.
        -13    1    5    5    0    0  0.53569097522E+02  0.12377161481E+02  0.27976500725E+02  0.61688953050E+02  0.00000000000E+00 0.  1.
         14    1    5    5    0    0 -0.27216043100E+02  0.26158774590E+02  0.26077992176E+02  0.45880891077E+02  0.00000000000E+00 0. -1.
         13    1    3    3    0    0  0.59791589728E+02 -0.40449480416E+02 -0.88190351780E+03  0.88485310045E+03  0.00000000000E+00 0. -1.
        -14    1    3    3    0    0  0.11488715450E+02  0.18549242848E+02 -0.72616068471E+02  0.75823204846E+02  0.00000000000E+00 0.  1.
          5    1    4    4  501    0  0.97598613965E+01 -0.24849737480E+02  0.15598079905E+02  0.31201551949E+02  0.41800000000E+01 0.  1.
         -5    1    4    4    0  501 -0.10739322100E+03  0.82140389771E+01 -0.11087384521E+03  0.15463264954E+03  0.41800000000E+01 0.  1.
</event>
<event>
11    1  0.8041700E-009  0.1601961E+03  0.7561462E-02  0.1086893E+00
         22   -1    0    0    0    0  0.00000000000E+00  0.00000000000E+00  0.61067714448E+03  0.61067714448E+03  0.00000000000E+00 0. -1.
         22   -1    0    0    0    0 -0.00000000000E+00 -0.00000000000E+00 -0.11560237105E+03  0.11560237105E+03  0.00000000000E+00 0. -1.
        -24    2    1    2    0    0  0.21227496770E+02  0.88938042239E+02 -0.40671007387E+01  0.12167032571E+03  0.80165733787E+02 0.  0.
         25    2    1    2    0    0  0.34772812565E+02 -0.13628006587E+03  0.15507096953E+03  0.24387693444E+03  0.12509016235E+03 0.  0.
         24    2    1    2    0    0 -0.56000309335E+02  0.47342023631E+02  0.34407090464E+03  0.36073225537E+03  0.79785153997E+02 0.  0.
        -13    1    5    5    0    0 -0.63672660928E+02  0.20441107509E+02  0.14466537395E+03  0.15937414171E+03  0.00000000000E+00 0.  1.
         14    1    5    5    0    0  0.76723515935E+01  0.26900916122E+02  0.19940553069E+03  0.20135811366E+03  0.00000000000E+00 0. -1.
         13    1    3    3    0    0  0.38456602778E+02  0.93091924259E+02 -0.13450793179E+02  0.10161663494E+03  0.00000000000E+00 0. -1.
        -14    1    3    3    0    0 -0.17229106008E+02 -0.41538820200E+01  0.93836924404E+01  0.20053690770E+02  0.00000000000E+00 0.  1.
          5    1    4    4  501    0 -0.13186880179E+02 -0.79868677307E+02  0.14880718360E+03  0.16945190974E+03  0.41800000000E+01 0.  1.
         -5    1    4    4    0  501  0.47959692744E+02 -0.56411388563E+02  0.62637859256E+01  0.74425024702E+02  0.41800000000E+01 0.  1.
</event>
<event>
11    1  0.8041700E-009  0.1402097E+03  0.7561462E-02  0.1107324E+00
         22   -1    0    0    0    0  0.00000000000E+00  0.00000000000E+00  0.96243873965E+03  0.96243873965E+03  0.00000000000E+00 0. -1.
         22   -1    0    0    0    0 -0.00000000000E+00 -0.00000000000E+00 -0.77289415533E+02  0.77289415533E+02  0.00000000000E+00 0.  1.
         24    2    1    2    0    0  0.43117437082E+02 -0.25292257407E+02  0.33155573117E+02  0.10192133104E+03  0.82400570549E+02 0.  0.
         25    2    1    2    0    0 -0.36108592100E+01  0.75338706535E+02  0.95770293575E+02  0.17466700836E+03  0.12509058986E+03 0.  0.
        -24    2    1    2    0    0 -0.39506577872E+02 -0.50046449127E+02  0.75622345743E+03  0.76313981579E+03  0.80268574871E+02 0.  0.
        -13    1    3    3    0    0  0.46174939256E+02  0.15381205978E+02 -0.10622474099E+01  0.48680949890E+02  0.00000000000E+00 0.  1.
         14    1    3    3    0    0 -0.30575021742E+01 -0.40673463385E+02  0.34217820527E+02  0.53240381149E+02  0.00000000000E+00 0. -1.
         13    1    5    5    0    0  0.81455750077E+01 -0.45283405199E+02  0.21870922238E+03  0.22349644546E+03  0.00000000000E+00 0. -1.
        -14    1    5    5    0    0 -0.47652152880E+02 -0.47630439283E+01  0.53751423505E+03  0.53964337033E+03  0.00000000000E+00 0.  1.
          5    1    4    4  501    0 -0.32915460052E+01  0.24404183120E+02  0.11677189718E+03  0.11941334431E+03  0.41800000000E+01 0. -1.
         -5    1    4    4    0  501 -0.31931320478E+00  0.50934523415E+02 -0.21001603606E+02  0.55253664045E+02  0.41800000000E+01 0. -1.
</event>
<event>
11    1  0.8041700E-009  0.1275143E+03  0.7561462E-02  0.1122361E+00
         22   -1    0    0    0    0  0.00000000000E+00  0.00000000000E+00  0.72641350633E+03  0.72641350633E+03  0.00000000000E+00 0. -1.
         22   -1    0    0    0    0 -0.00000000000E+00 -0.00000000000E+00 -0.50084841627E+02  0.50084841627E+02  0.00000000000E+00 0. -1.
         24    2    1    2    0    0  0.73184250514E+01  0.11112992419E+02 -0.29238559466E-01  0.62994964818E+02  0.61573588427E+02 0.  0.
         25    2    1    2    0    0  0.25253475877E+01 -0.31876685252E+02  0.28020978811E+03  0.30852294510E+03  0.12508549819E+03 0.  0.
        -24    2    1    2    0    0 -0.98437726392E+01  0.20763692833E+02  0.39614811515E+03  0.40498043804E+03  0.80918448172E+02 0.  0.
        -11    1    3    3    0    0  0.66793906049E+01  0.14229372451E+02  0.29429783294E+02  0.33364673593E+02  0.00000000000E+00 0.  1.
         12    1    3    3    0    0  0.63903444654E+00 -0.31163800328E+01 -0.29459021854E+02  0.29630291225E+02  0.00000000000E+00 0. -1.
         13    1    5    5    0    0 -0.12197732682E+02  0.42988272080E+02  0.12205487425E+03  0.12997756940E+03  0.00000000000E+00 0. -1.
        -14    1    5    5    0    0  0.23539600431E+01 -0.22224579247E+02  0.27409324090E+03  0.27500286863E+03  0.00000000000E+00 0.  1.
          5    1    4    4  501    0 -0.68690151411E+01  0.47295839494E+02  0.12700402809E+03  0.13576293807E+03  0.41800000000E+01 0. -1.
         -5    1    4    4    0  501  0.93943627289E+01 -0.79172524746E+02  0.15320576002E+03  0.17276000703E+03  0.41800000000E+01 0. -1.
</event>
<event>
11    1  0.8041700E-009  0.1538853E+03  0.7561462E-02  0.1092974E+00
         22   -1    0    0    0    0  0.00000000000E+00  0.00000000000E+00  0.61008110831E+03  0.61008110831E+03  0.00000000000E+00 0. -1.
         22   -1    0    0    0    0 -0.00000000000E+00 -0.00000000000E+00 -0.10825903621E+04  0.10825903621E+04  0.00000000000E+00 0. -1.
         24    2    1    2    0    0 -0.54798567119E+02  0.73746327281E+02 -0.10116298451E+04  0.10189160444E+04  0.79709211976E+02 0.  0.
         25    2    1    2    0    0  0.47628898320E+02 -0.18700094965E+02  0.13004869480E+02  0.13577780990E+03  0.12509309143E+03 0.  0.
        -24    2    1    2    0    0  0.71696687988E+01 -0.55046232317E+02  0.52611572179E+03  0.53797761606E+03  0.97676357583E+02 0.  0.
        -11    1    3    3    0    0  0.50280622875E+01 -0.95010009798E+01 -0.28568133223E+02  0.30523575574E+02  0.00000000000E+00 0.  1.
         12    1    3    3    0    0 -0.59826629406E+02  0.83247328261E+02 -0.98306171183E+03  0.98839246887E+03  0.00000000000E+00 0. -1.
         13    1    5    5    0    0 -0.34174370420E+02 -0.79209997089E+01  0.33524176597E+03  0.33707220515E+03  0.00000000000E+00 0. -1.
        -14    1    5    5    0    0  0.41344039219E+02 -0.47125232608E+02  0.19087395581E+03  0.20090541091E+03  0.00000000000E+00 0.  1.
          5    1    4    4  501    0  0.22112451060E+02  0.53702952494E+02  0.73324755844E+01  0.58687351250E+02  0.41800000000E+01 0.  1.
         -5    1    4    4    0  501  0.25516447260E+02 -0.72403047459E+02  0.56723938959E+01  0.77090458648E+02  0.41800000000E+01 0.  1.
</event>
<event>
11    1  0.8041700E-009  0.1572827E+03  0.7561462E-02  0.1089661E+00
         22   -1    0    0    0    0  0.00000000000E+00  0.00000000000E+00  0.30337359392E+03  0.30337359392E+03  0.00000000000E+00 0.  1.
         22   -1    0    0    0    0 -0.00000000000E+00 -0.00000000000E+00 -0.70200718717E+03  0.70200718717E+03  0.00000000000E+00 0.  1.
        -24    2    1    2    0    0  0.23010267057E+02  0.34878137808E+02 -0.59271257795E+03  0.59935276795E+03  0.78546696379E+02 0.  0.
         25    2    1    2    0    0 -0.12489810689E+02 -0.12441411584E+03 -0.12769012214E+01  0.17687219833E+03  0.12508907417E+03 0.  0.
         24    2    1    2    0    0 -0.10520456367E+02  0.89535978029E+02  0.19535588592E+03  0.22915581480E+03  0.78873911605E+02 0.  0.
        -13    1    5    5    0    0 -0.10641130899E+02 -0.22361827237E+00  0.90520177102E+02  0.91143766295E+02  0.00000000000E+00 0.  1.
         14    1    5    5    0    0  0.12067453191E+00  0.89759596301E+02  0.10483570882E+03  0.13801204851E+03  0.00000000000E+00 0. -1.
         13    1    3    3    0    0 -0.21221546090E+02  0.37929599317E+02 -0.34191346215E+03  0.34466479965E+03  0.00000000000E+00 0. -1.
        -14    1    3    3    0    0  0.44231813147E+02 -0.30514615082E+01 -0.25079911580E+03  0.25468796830E+03  0.00000000000E+00 0.  1.
          5    1    4    4  501    0 -0.53791609715E+02 -0.76355195865E+02 -0.40868358994E+02  0.10203601510E+03  0.41800000000E+01 0.  1.
         -5    1    4    4    0  501  0.41301799026E+02 -0.48058919972E+02  0.39591457773E+02  0.74836183229E+02  0.41800000000E+01 0.  1.
</event>
<event>
11    1  0.8041700E-009  0.1428210E+03  0.7561462E-02  0.1104449E+00
         22   -1    0    0    0    0  0.00000000000E+00  0.00000000000E+00  0.59355453772E+03  0.59355453772E+03  0.00000000000E+00 0. -1.
         22   -1    0    0    0    0 -0.00000000000E+00 -0.00000000000E+00 -0.55229272840E+03  0.55229272840E+03  0.00000000000E+00 0.  1.
        -24    2    1    2    0    0  0.11742844233E+02 -0.28042287811E+01 -0.38446784523E+03  0.39359322202E+03  0.83392699417E+02 0.  0.
         25    2    1    2    0    0  0.56499868646E+02 -0.88002301690E+01 -0.12956856203E+03  0.18895656375E+03  0.12508753540E+03 0.  0.
         24    2    1    2    0    0 -0.68242712879E+02  0.11604458950E+02  0.55529821657E+03  0.56329748035E+03  0.64468680057E+02 0.  0.
        -11    1    5    5    0    0 -0.28557000758E+02  0.25194958262E+02  0.41807191633E+03  0.41980282924E+03  0.00000000000E+00 0.  1.
         12    1    5    5    0    0 -0.39685712121E+02 -0.13590499312E+02  0.13722630024E+03  0.14349465111E+03  0.00000000000E+00 0. -1.
         11    1    3    3    0    0  0.23483009484E+02  0.45665232750E+01 -0.27883561768E+02  0.36739595618E+02  0.00000000000E+00 0. -1.
        -12    1    3    3    0    0 -0.11740165251E+02 -0.73707520562E+01 -0.35658428346E+03  0.35685362640E+03  0.00000000000E+00 0.  1.
          5    1    4    4  501    0  0.52599247158E+02 -0.63479257665E+02 -0.79128550248E+02  0.11434638962E+03  0.41800000000E+01 0. -1.
         -5    1    4    4    0  501  0.39006214877E+01  0.54679027496E+02 -0.50440011778E+02  0.74610174132E+02  0.41800000000E+01 0. -1.
</event>
<event>
11    1  0.8041700E-009  0.1310023E+03  0.7561462E-02  0.1118044E+00
         22   -1    0    0    0    0  0.00000000000E+00  0.00000000000E+00  0.17697928658E+03  0.17697928658E+03  0.00000000000E+00 0. -1.
         22   -1    0    0    0    0 -0.00000000000E+00 -0.00000000000E+00 -0.20455449712E+04  0.20455449712E+04  0.00000000000E+00 0.  1.
        -24    2    1    2    0    0 -0.33199933239E+02  0.18726023432E+02 -0.18462027973E+04  0.18482843320E+04  0.78976602682E+02 0.  0.
         25    2    1    2    0    0  0.41720336301E+02 -0.44288686323E+02 -0.16036640234E+03  0.21229316866E+03  0.12509569243E+03 0.  0.
         24    2    1    2    0    0 -0.85204030617E+01  0.25562662891E+02  0.13800351496E+03  0.16194675714E+03  0.80347588664E+02 0.  0.
        -11    1    5    5    0    0 -0.41055260048E+02  0.60013333328E+00  0.48847908831E+02  0.63812324317E+02  0.00000000000E+00 0.  1.
         12    1    5    5    0    0  0.32534856986E+02  0.24962529558E+02  0.89155606133E+02  0.98134432826E+02  0.00000000000E+00 0. -1.
         13    1    3    3    0    0 -0.14060809595E+02  0.22483527381E+02 -0.17772086822E+03  0.17968840356E+03  0.00000000000E+00 0. -1.
        -14    1    3    3    0    0 -0.19139123644E+02 -0.37575039493E+01 -0.16684819290E+04  0.16685959284E+04  0.00000000000E+00 0.  1.
          5    1    4    4  501    0  0.74535752869E+02 -0.26675525917E+02 -0.15544657325E+03  0.17449433135E+03  0.41800000000E+01 0.  1.
         -5    1    4    4    0  501 -0.32815416568E+02 -0.17613160406E+02 -0.49198290937E+01  0.37798837314E+02  0.41800000000E+01 0.  1.
</event>
<event>
11    1  0.8041700E-009  0.1268316E+03  0.7561462E-02  0.1123224E+00
         22   -1    0    0    0    0  0.00000000000E+00  0.00000000000E+00  0.18674270356E+03  0.18674270356E+03  0.00000000000E+00 0.  1.
         22   -1    0    0    0    0 -0.00000000000E+00 -0.00000000000E+00 -0.91594965510E+03  0.91594965510E+03  0.00000000000E+00 0. -1.
         24    2    1    2    0    0  0.14474233663E+02  0.38700970846E+01 -0.73987554602E+03  0.74438302244E+03  0.80410070326E+02 0.  0.
         25    2    1    2    0    0  0.73071813190E+01 -0.55000476471E+01 -0.13913812560E+03  0.18732069241E+03  0.12508388541E+03 0.  0.
        -24    2    1    2    0    0 -0.21781414982E+02  0.16299505625E+01  0.14980672007E+03  0.17098864381E+03  0.79485697817E+02 0.  0.
        -11    1    3    3    0    0  0.86524265340E+01  0.42038083043E+02 -0.41927784317E+03  0.42146883003E+03  0.00000000000E+00 0.  1.
         12    1    3    3    0    0  0.58218071285E+01 -0.38167985959E+02 -0.32059770284E+03  0.32291419241E+03  0.00000000000E+00 0. -1.
         13    1    5    5    0    0  0.27493949013E+02  0.89216070837E+01  0.81309183307E+02  0.86294238483E+02  0.00000000000E+00 0. -1.
        -14    1    5    5    0    0 -0.49275363995E+02 -0.72916565212E+01  0.68497536764E+02  0.84694405331E+02  0.00000000000E+00 0.  1.
          5    1    4    4  501    0  0.28159816412E+02  0.48116276491E+02 -0.28972569383E+02  0.62968511975E+02  0.41800000000E+01 0.  1.
         -5    1    4    4    0  501 -0.20852635093E+02 -0.53616324138E+02 -0.11016555621E+03  0.12435218044E+03  0.41800000000E+01 0.  1.
</event>
<event>
11    1  0.8041700E-009  0.1884162E+03  0.7561462E-02  0.1063031E+00
         22   -1    0    0    0    0  0.00000000000E+00  0.00000000000E+00  0.31065433121E+03  0.31065433121E+03  0.00000000000E+00 0.  1.
         22   -1    0    0    0    0 -0.00000000000E+00 -0.00000000000E+00 -0.19883559053E+03  0.19883559053E+03  0.00000000000E+00 0. -1.
         24    2    1    2    0    0  0.11116768172E+03 -0.85121362320E+02 -0.15279125917E+02  0.16154799213E+03  0.79122704012E+02 0.  0.
         25    2    1    2    0    0 -0.51243741891E+02  0.15189211046E+03  0.73564051757E+02  0.21623144547E+03  0.12508890436E+03 0.  0.
        -24    2    1    2    0    0 -0.59923939829E+02 -0.66770748141E+02  0.53533814839E+02  0.13171048415E+03  0.80203309979E+02 0.  0.
        -13    1    3    3    0    0 -0.68874565512E+00 -0.32708082497E+02 -0.19246676643E+02  0.37956917591E+02  0.00000000000E+00 0.  1.
         14    1    3    3    0    0  0.11185642737E+03 -0.52413279823E+02  0.39675507264E+01  0.12359107454E+03  0.00000000000E+00 0. -1.
         13    1    5    5    0    0  0.25414904723E+00 -0.43082590733E+02 -0.63766744592E+01  0.43552682962E+02  0.00000000000E+00 0. -1.
        -14    1    5    5    0    0 -0.60178088876E+02 -0.23688157408E+02  0.59910489298E+02  0.88157801187E+02  0.00000000000E+00 0.  1.
          5    1    4    4  501    0 -0.42969738034E+02  0.10009925569E+03  0.10791668623E+03  0.15339407728E+03  0.41800000000E+01 0. -1.
         -5    1    4    4    0  501 -0.82740038565E+01  0.51792854770E+02 -0.34352634478E+02  0.62837368186E+02  0.41800000000E+01 0. -1.
</event>
<event>
11    1  0.8041700E-009  0.1944428E+03  0.7561462E-02  0.1058524E+00
         22   -1    0    0    0    0  0.00000000000E+00  0.00000000000E+00  0.50347095782E+03  0.50347095782E+03  0.00000000000E+00 0.  1.
         22   -1    0    0    0    0 -0.00000000000E+00 -0.00000000000E+00 -0.53727528878E+03  0.53727528878E+03  0.00000000000E+00 0.  1.
        -24    2    1    2    0    0  0.73600740053E+02  0.12739746226E+03 -0.46458895750E+03  0.49399304341E+03  0.80864362873E+02 0.  0.
         25    2    1    2    0    0 -0.44526980075E+02 -0.18518844202E+03  0.24588266429E+03  0.33523685977E+03  0.12509219216E+03 0.  0.
         24    2    1    2    0    0 -0.29073759978E+02  0.57790979752E+02  0.18490196225E+03  0.21151634342E+03  0.79783124969E+02 0.  0.
        -13    1    5    5    0    0  0.16188464931E+01  0.65830684665E+02  0.15277766555E+03  0.16636500473E+03  0.00000000000E+00 0.  1.
         14    1    5    5    0    0 -0.30692606471E+02 -0.80397049128E+01  0.32124296696E+02  0.45151338688E+02  0.00000000000E+00 0. -1.
         13    1    3    3    0    0  0.37844698957E+02  0.75781188878E+02 -0.14196177100E+03  0.16531229311E+03  0.00000000000E+00 0. -1.
        -14    1    3    3    0    0  0.35756041096E+02  0.51616273386E+02 -0.32262718650E+03  0.32868075031E+03  0.00000000000E+00 0.  1.
          5    1    4    4  501    0  0.91838936099E+01 -0.20937600304E+02  0.11786335486E+03  0.12013313376E+03  0.41800000000E+01 0.  1.
         -5    1    4    4    0  501 -0.53710873685E+02 -0.16425084171E+03  0.12801930943E+03  0.21510372601E+03  0.41800000000E+01 0.  1.
</event>
<event>
11    1  0.8041700E-009  0.1264397E+03  0.7561462E-02  0.1123723E+00
         22   -1    0    0    0    0  0.00000000000E+00  0.00000000000E+00  0.47033390761E+03  0.47033390761E+03  0.00000000000E+00 0. -1.
         22   -1    0    0    0    0 -0.00000000000E+00 -0.00000000000E+00 -0.16248785540E+04  0.16248785540E+04  0.00000000000E+00 0.  1.
         24    2    1    2    0    0 -0.77912408563E+01 -0.23709966157E+02 -0.12865098407E+04  0.12888948061E+04  0.74292563867E+02 0.  0.
         25    2    1    2    0    0 -0.84207788739E+01  0.14526531368E+02 -0.32185762809E+03  0.34571800083E+03  0.12508666477E+03 0.  0.
        -24    2    1    2    0    0  0.16212019730E+02  0.91834347897E+01  0.45382282239E+03  0.46059965470E+03  0.76483480096E+02 0.  0.
        -11    1    3    3    0    0 -0.17259097549E+01 -0.17655867554E+02 -0.12714012519E+04  0.12715250103E+04  0.00000000000E+00 0.  1.
         12    1    3    3    0    0 -0.60653311014E+01 -0.60540986034E+01 -0.15108588755E+02  0.17369795780E+02  0.00000000000E+00 0. -1.
         13    1    5    5    0    0 -0.42517720829E+01 -0.21206188658E+00  0.41967090897E+03  0.41969249979E+03  0.00000000000E+00 0. -1.
        -14    1    5    5    0    0  0.20463791813E+02  0.93954966763E+01  0.34151913417E+02  0.40907154914E+02  0.00000000000E+00 0.  1.
          5    1    4    4  501    0  0.81184252748E+01 -0.15137976947E+01  0.96575441689E+01  0.13376881990E+02  0.41800000000E+01 0. -1.
         -5    1    4    4    0  501 -0.16539204149E+02  0.16040329062E+02 -0.33151517226E+03  0.33234111884E+03  0.41800000000E+01 0. -1.
</event>
<event>
11    1  0.8041700E-009  0.1481939E+03  0.7561462E-02  0.1098739E+00
         22   -1    0    0    0    0  0.00000000000E+00  0.00000000000E+00  0.64487492516E+03  0.64487492516E+03  0.00000000000E+00 0.  1.
         22   -1    0    0    0    0 -0.00000000000E+00 -0.00000000000E+00 -0.11274842537E+03  0.11274842537E+03  0.00000000000E+00 0. -1.
         24    2    1    2    0    0 -0.32697743300E+02 -0.69978605112E+02 -0.46576333713E+02  0.11791124922E+03  0.75944454965E+02 0.  0.
         25    2    1    2    0    0  0.38227199391E+02  0.86035906126E+02  0.20935717551E+03  0.26142095723E+03  0.12508794516E+03 0.  0.
        -24    2    1    2    0    0 -0.55294560913E+01 -0.16057301014E+02  0.36934565799E+03  0.37829114408E+03  0.79997267506E+02 0.  0.
        -11    1    3    3    0    0  0.78024181603E+00 -0.17007154024E+01  0.18030932083E+02  0.18127761085E+02  0.00000000000E+00 0.  1.
         12    1    3    3    0    0 -0.33477985116E+02 -0.68277889710E+02 -0.64607265796E+02  0.99783488134E+02  0.00000000000E+00 0. -1.
         11    1    5    5    0    0  0.33446822589E+02  0.99254290664E+01  0.16415281788E+03  0.16781940204E+03  0.00000000000E+00 0. -1.
        -12    1    5    5    0    0 -0.38976278680E+02 -0.25982730080E+02  0.20519284012E+03  0.21047174204E+03  0.00000000000E+00 0.  1.
          5    1    4    4  501    0 -0.84924405975E+01  0.81275559756E+02  0.51521972839E+02  0.96694489224E+02  0.41800000000E+01 0.  1.
         -5    1    4    4    0  501  0.46719639989E+02  0.47603463695E+01  0.15783520267E+03  0.16472646800E+03  0.41800000000E+01 0.  1.
</event>
<event>
11    1  0.8041700E-009  0.1306484E+03  0.7561462E-02  0.1118475E+00
         22   -1    0    0    0    0  0.00000000000E+00  0.00000000000E+00  0.48762471181E+03  0.48762471181E+03  0.00000000000E+00 0. -1.
         22   -1    0    0    0    0 -0.00000000000E+00 -0.00000000000E+00 -0.22395446940E+04  0.22395446940E+04  0.00000000000E+00 0. -1.
         24    2    1    2    0    0  0.33773188448E+02  0.16302991299E+02 -0.18331926774E+04  0.18353056302E+04  0.79655180916E+02 0.  0.
         25    2    1    2    0    0 -0.19761895175E+02 -0.47045817516E+02 -0.39005179385E+03  0.41278785665E+03  0.12509824646E+03 0.  0.
        -24    2    1    2    0    0 -0.14011293273E+02  0.30742826217E+02  0.47132448903E+03  0.47907591902E+03  0.78901993156E+02 0.  0.
        -13    1    3    3    0    0 -0.26126264922E+02  0.90690687991E+01 -0.60574187261E+03  0.60637286051E+03  0.00000000000E+00 0.  1.
         14    1    3    3    0    0  0.59899453370E+02  0.72339224996E+01 -0.12274508048E+04  0.12289327696E+04  0.00000000000E+00 0. -1.
         11    1    5    5    0    0 -0.30276657540E+02  0.17673662297E+02  0.44026500028E+03  0.44165858398E+03  0.00000000000E+00 0. -1.
        -12    1    5    5    0    0  0.16265364267E+02  0.13069163920E+02  0.31059488752E+02  0.37417335044E+02  0.00000000000E+00 0.  1.
          5    1    4    4  501    0 -0.38170082676E+02 -0.81034065275E+02 -0.32363938300E+03  0.33583239507E+03  0.41800000000E+01 0. -1.
         -5    1    4    4    0  501  0.18408187502E+02  0.33988247759E+02 -0.66412410841E+02  0.76955461578E+02  0.41800000000E+01 0. -1.
</event>
<event>
11    1  0.8082637E-009  0.2417218E+03  0.7561462E-02  0.1028404E+00
         22   -1    0    0    0    0  0.00000000000E+00  0.00000000000E+00  0.20032644086E+04  0.20032644086E+04  0.00000000000E+00 0.  1.
         22   -1    0    0    0    0 -0.00000000000E+00 -0.00000000000E+00 -0.56583404363E+03  0.56583404363E+03  0.00000000000E+00 0.  1.
        -24    2    1    2    0    0 -0.18052908550E+02 -0.61658325373E+02 -0.40821602104E+03  0.42039240205E+03  0.77212662672E+02 0.  0.
         25    2    1    2    0    0 -0.30769907480E+02  0.26018998994E+03  0.29429002169E+00  0.29033230212E+03  0.12508853257E+03 0.  0.
         24    2    1    2    0    0  0.48822816030E+02 -0.19853166456E+03  0.18453520960E+04  0.18583737481E+04  0.80188154098E+02 0.  0.
        -11    1    5    5    0    0  0.35296303806E+02 -0.11518149074E+03  0.13936362121E+04  0.13988332626E+04  0.00000000000E+00 0.  1.
         12    1    5    5    0    0  0.13526512225E+02 -0.83350173821E+02  0.45171588387E+03  0.45954048543E+03  0.00000000000E+00 0. -1.
         13    1    3    3    0    0 -0.29001511778E+02 -0.35237621564E+02 -0.90153524037E+02  0.10104669987E+03  0.00000000000E+00 0. -1.
        -14    1    3    3    0    0  0.10948603228E+02 -0.26420703809E+02 -0.31806249700E+03  0.31934570218E+03  0.00000000000E+00 0.  1.
          5    1    4    4  501    0  0.32609808320E+02  0.28935855959E+02 -0.22850666680E+02  0.49399481034E+02  0.41800000000E+01 0.  1.
         -5    1    4    4    0  501 -0.63379715800E+02  0.23125413398E+03  0.23144956701E+02  0.24093282109E+03  0.41800000000E+01 0.  1.
</event>
<event>
11    1  0.8041700E-009  0.2057918E+03  0.7561462E-02  0.1050502E+00
         22   -1    0    0    0    0  0.00000000000E+00  0.00000000000E+00  0.12514675145E+04  0.12514675145E+04  0.00000000000E+00 0. -1.
         22   -1    0    0    0    0 -0.00000000000E+00 -0.00000000000E+00 -0.83147677741E+03  0.83147677741E+03  0.00000000000E+00 0. -1.
         24    2    1    2    0    0 -0.11673918892E+03  0.11499079367E+03 -0.80170708527E+03  0.82210561256E+03  0.79198906408E+02 0.  0.
         25    2    1    2    0    0  0.40573955923E+02 -0.14465879263E+03  0.72440227867E+03  0.75031906319E+03  0.12509045950E+03 0.  0.
        -24    2    1    2    0    0  0.76165233001E+02  0.29667998961E+02  0.49729554367E+03  0.51051961614E+03  0.81523541554E+02 0.  0.
        -11    1    3    3    0    0 -0.23283661518E+01  0.34503377958E+02 -0.27395839193E+03  0.27613240464E+03  0.00000000000E+00 0.  1.
         12    1    3    3    0    0 -0.11441082277E+03  0.80487415714E+02 -0.52774869333E+03  0.54597320792E+03  0.00000000000E+00 0. -1.
         13    1    5    5    0    0  0.12721004223E+02  0.47787364865E+02  0.21668885282E+03  0.22226001693E+03  0.00000000000E+00 0. -1.
        -14    1    5    5    0    0  0.63444228778E+02 -0.18119365904E+02  0.28060669085E+03  0.28825959921E+03  0.00000000000E+00 0.  1.
          5    1    4    4  501    0 -0.15385887386E+02 -0.96746221175E+02  0.22419373008E+03  0.24469748231E+03  0.41800000000E+01 0. -1.
         -5    1    4    4    0  501  0.55959843309E+02 -0.47912571458E+02  0.50020854859E+03  0.50562158088E+03  0.41800000000E+01 0. -1.
</event>
<event>
11    1  0.8041700E-009  0.1559131E+03  0.7561462E-02  0.1090985E+00
         22   -1    0    0    0    0  0.00000000000E+00  0.00000000000E+00  0.61307994830E+02  0.61307994830E+02  0.00000000000E+00 0. -1.
         22   -1    0    0    0    0 -0.00000000000E+00 -0.00000000000E+00 -0.27509930681E+04  0.27509930681E+04  0.00000000000E+00 0. -1.
        -24    2    1    2    0    0 -0.86841784442E+02  0.27435461603E+02 -0.20676827588E+04  0.20710206203E+04  0.74298174051E+02 0.  0.
         25    2    1    2    0    0  0.86294598941E+02 -0.75935765040E+02 -0.62449182188E+03  0.64718622792E+03  0.12508788828E+03 0.  0.
         24    2    1    2    0    0  0.54718550049E+00  0.48500303437E+02  0.24895074239E+01  0.94094214678E+02  0.80591220014E+02 0.  0.
        -11    1    5    5    0    0  0.14040746203E+02  0.25242829691E+02 -0.36615308708E+02  0.46637150819E+02  0.00000000000E+00 0.  1.
         12    1    5    5    0    0 -0.13493560703E+02  0.23257473746E+02  0.39104816131E+02  0.47457063860E+02  0.00000000000E+00 0. -1.
         13    1    3    3    0    0 -0.74852853835E+02  0.48724087447E+02 -0.18036010176E+04  0.18058110691E+04  0.00000000000E+00 0. -1.
        -14    1    3    3    0    0 -0.11988930607E+02 -0.21288625844E+02 -0.26408174115E+03  0.26520955122E+03  0.00000000000E+00 0.  1.
          5    1    4    4  501    0  0.71003385321E+02 -0.68567235476E+02 -0.62167920821E+03  0.62948030695E+03  0.41800000000E+01 0.  1.
         -5    1    4    4    0  501  0.15291213620E+02 -0.73685295640E+01 -0.28126136675E+01  0.17705920974E+02  0.41800000000E+01 0.  1.
</event>
<event>
11    1  0.8041700E-009  0.2356526E+03  0.7561462E-02  0.1031833E+00
         22   -1    0    0    0    0  0.00000000000E+00  0.00000000000E+00  0.48295226671E+03  0.48295226671E+03  0.00000000000E+00 0.  1.
         22   -1    0    0    0    0 -0.00000000000E+00 -0.00000000000E+00 -0.41322283936E+03  0.41322283936E+03  0.00000000000E+00 0. -1.
        -24    2    1    2    0    0 -0.17294529941E+03 -0.10997193015E+03 -0.26728653653E+03  0.34625128995E+03  0.80274287135E+02 0.  0.
         25    2    1    2    0    0  0.15684344158E+03  0.95179745410E+02  0.22092804662E+02  0.22315003634E+03  0.12509515418E+03 0.  0.
         24    2    1    2    0    0  0.16101857832E+02  0.14792184736E+02  0.31492315922E+03  0.32677377978E+03  0.84418175673E+02 0.  0.
        -13    1    5    5    0    0  0.24204704900E+02  0.31680399121E+02  0.30049885448E+03  0.30313211142E+03  0.00000000000E+00 0.  1.
         14    1    5    5    0    0 -0.81028470680E+01 -0.16888214385E+02  0.14424304734E+02  0.23641668359E+02  0.00000000000E+00 0. -1.
         11    1    3    3    0    0 -0.58046924613E+02 -0.79301942130E+02 -0.14921385188E+03  0.17867013482E+03  0.00000000000E+00 0. -1.
        -12    1    3    3    0    0 -0.11489837480E+03 -0.30669988016E+02 -0.11807268465E+03  0.16758115513E+03  0.00000000000E+00 0.  1.
          5    1    4    4  501    0  0.12333942258E+03  0.10292221815E+03 -0.27120354769E+02  0.16296804041E+03  0.41800000000E+01 0.  1.
         -5    1    4    4    0  501  0.33504019003E+02 -0.77424727442E+01  0.49213159431E+02  0.60181995935E+02  0.41800000000E+01 0.  1.
</event>
<event>
11    1  0.8041700E-009  0.1350683E+03  0.7561462E-02  0.1113194E+00
         22   -1    0    0    0    0  0.00000000000E+00  0.00000000000E+00  0.30352433967E+03  0.30352433967E+03  0.00000000000E+00 0.  1.
         22   -1    0    0    0    0 -0.00000000000E+00 -0.00000000000E+00 -0.14575157310E+03  0.14575157310E+03  0.00000000000E+00 0.  1.
         24    2    1    2    0    0  0.23951332815E+02 -0.37972778485E+02 -0.29257644426E+02  0.96870277087E+02  0.80698467000E+02 0.  0.
         25    2    1    2    0    0  0.21781267899E+02  0.61063121499E+02 -0.25726241128E+01  0.14089390939E+03  0.12506537039E+03 0.  0.
        -24    2    1    2    0    0 -0.45732600713E+02 -0.23090343014E+02  0.18960303510E+03  0.21151172630E+03  0.78506462991E+02 0.  0.
        -13    1    3    3    0    0  0.99049388576E+01  0.12692288352E+02 -0.40079256855E+02  0.43191999577E+02  0.00000000000E+00 0.  1.
         14    1    3    3    0    0  0.14046393957E+02 -0.50665066838E+02  0.10821612430E+02  0.53678277510E+02  0.00000000000E+00 0. -1.
         11    1    5    5    0    0  0.65221886253E+01 -0.79041455045E+01 -0.35457537919E+01  0.10843746150E+02  0.00000000000E+00 0. -1.
        -12    1    5    5    0    0 -0.52254789339E+02 -0.15186197509E+02  0.19314878890E+03  0.20066798014E+03  0.00000000000E+00 0.  1.
          5    1    4    4  501    0  0.11309571821E+02  0.30560403343E+02  0.61114137319E+02  0.69384831537E+02  0.41800000000E+01 0.  1.
         -5    1    4    4    0  501  0.10471696078E+02  0.30502718156E+02 -0.63686761432E+02  0.71509077852E+02  0.41800000000E+01 0.  1.
</event>
<event>
11    1  0.8041700E-009  0.3392848E+03  0.7561462E-02  0.9848120E-01
         22   -1    0    0    0    0  0.00000000000E+00  0.00000000000E+00  0.21810380301E+03  0.21810380301E+03  0.00000000000E+00 0. -1.
         22   -1    0    0    0    0 -0.00000000000E+00 -0.00000000000E+00 -0.25583384016E+04  0.25583384016E+04  0.00000000000E+00 0. -1.
        -24    2    1    2    0    0  0.30222437854E+03  0.10668193101E+03 -0.18437516816E+04  0.18730484034E+04  0.78545838972E+02 0.  0.
         25    2    1    2    0    0 -0.25481492493E+03 -0.17478256348E+03 -0.63855108899E+03  0.72032471833E+03  0.12506244888E+03 0.  0.
         24    2    1    2    0    0 -0.47409453614E+02  0.68100632469E+02  0.14206817200E+03  0.18306908285E+03  0.80284314575E+02 0.  0.
        -13    1    5    5    0    0  0.19367874310E+02  0.82487267742E+01  0.96833505468E+01  0.23171606041E+02  0.00000000000E+00 0.  1.
         14    1    5    5    0    0 -0.66777327924E+02  0.59851905695E+02  0.13238482145E+03  0.15989747681E+03  0.00000000000E+00 0. -1.
         13    1    3    3    0    0  0.30282964058E+03  0.11270617171E+03 -0.17873610450E+04  0.18163336636E+04  0.00000000000E+00 0. -1.
        -14    1    3    3    0    0 -0.60526203913E+00 -0.60242406990E+01 -0.56390636519E+02  0.56714739752E+02  0.00000000000E+00 0.  1.
          5    1    4    4  501    0 -0.25196997238E+03 -0.17349244505E+03 -0.53242423327E+03  0.61406964755E+03  0.41800000000E+01 0. -1.
         -5    1    4    4    0  501 -0.28449525550E+01 -0.12901184236E+01 -0.10612685572E+03  0.10625507078E+03  0.41800000000E+01 0. -1.
</event>
<event>
11    1  0.8041700E-009  0.2432685E+03  0.7561462E-02  0.1027548E+00
         22   -1    0    0    0    0  0.00000000000E+00  0.00000000000E+00  0.21837271309E+04  0.21837271309E+04  0.00000000000E+00 0.  1.
         22   -1    0    0    0    0 -0.00000000000E+00 -0.00000000000E+00 -0.83904028604E+02  0.83904028604E+02  0.00000000000E+00 0.  1.
        -24    2    1    2    0    0  0.24761653588E+02 -0.24840828978E+02  0.13699785042E+02  0.89325881435E+02  0.81001374749E+02 0.  0.
         25    2    1    2    0    0  0.17050686451E+03  0.10421936057E+03  0.32156870602E+03  0.39873512346E+03  0.12509596327E+03 0.  0.
         24    2    1    2    0    0 -0.19526851810E+03 -0.79378531596E+02  0.17645546112E+04  0.17795701546E+04  0.93734805178E+02 0.  0.
        -13    1    5    5    0    0 -0.38263975164E+02 -0.60212577738E+02  0.63502147709E+03  0.63901640251E+03  0.00000000000E+00 0.  1.
         14    1    5    5    0    0 -0.15700454294E+03 -0.19165953858E+02  0.11295331341E+04  0.11405537521E+04  0.00000000000E+00 0. -1.
         11    1    3    3    0    0  0.29466419867E+02 -0.50131832639E+02  0.22183666585E+02  0.62238136273E+02  0.00000000000E+00 0. -1.
        -12    1    3    3    0    0 -0.47047662788E+01  0.25291003662E+02 -0.84838815433E+01  0.27087745162E+02  0.00000000000E+00 0.  1.
          5    1    4    4  501    0  0.17114636290E+03  0.56844021570E+02  0.29041087832E+03  0.34187464218E+03  0.41800000000E+01 0. -1.
         -5    1    4    4    0  501 -0.63949838991E+00  0.47375339003E+02  0.31157827702E+02  0.56860481276E+02  0.41800000000E+01 0. -1.
</event>
<event>
11    1  0.8041700E-009  0.1304474E+03  0.7561462E-02  0.1118720E+00
         22   -1    0    0    0    0  0.00000000000E+00  0.00000000000E+00  0.62207723563E+02  0.62207723563E+02  0.00000000000E+00 0.  1.
         22   -1    0    0    0    0 -0.00000000000E+00 -0.00000000000E+00 -0.25973458649E+04  0.25973458649E+04  0.00000000000E+00 0. -1.
        -24    2    1    2    0    0  0.18027929109E+02 -0.11317824360E+02 -0.23032329989E+04  0.23047930384E+04  0.82070720113E+02 0.  0.
         25    2    1    2    0    0  0.15472739872E+02 -0.10970881100E+02 -0.23265565928E+03  0.26483145792E+03  0.12508908584E+03 0.  0.
         24    2    1    2    0    0 -0.33500668981E+02  0.22288705460E+02  0.75051686378E+00  0.89929092157E+02  0.80421372329E+02 0.  0.
        -11    1    5    5    0    0 -0.35993253349E+02 -0.83221169938E+01  0.29945117746E+02  0.47555041739E+02  0.00000000000E+00 0.  1.
         12    1    5    5    0    0  0.24925843685E+01  0.30610822454E+02 -0.29194600883E+02  0.42374050418E+02  0.00000000000E+00 0. -1.
         11    1    3    3    0    0  0.24752855322E+02  0.71574756071E+01 -0.21665481750E+04  0.21667013934E+04  0.00000000000E+00 0. -1.
        -12    1    3    3    0    0 -0.67249262134E+01 -0.18475299967E+02 -0.13668482392E+03  0.13809164505E+03  0.00000000000E+00 0.  1.
          5    1    4    4  501    0  0.47629644611E+02  0.41984100054E+02 -0.13254586899E+03  0.14702764192E+03  0.41800000000E+01 0. -1.
         -5    1    4    4    0  501 -0.32156904739E+02 -0.52954981154E+02 -0.10010979029E+03  0.11780381600E+03  0.41800000000E+01 0. -1.
</event>
<event>
11    1  0.8041700E-009  0.1726710E+03  0.7561462E-02  0.1075730E+00
         22   -1    0    0    0    0  0.00000000000E+00  0.00000000000E+00  0.61137839064E+03  0.61137839064E+03  0.00000000000E+00 0. -1.
         22   -1    0    0    0    0 -0.00000000000E+00 -0.00000000000E+00 -0.22900594423E+03  0.22900594423E+03  0.00000000000E+00 0.  1.
        -24    2    1    2    0    0 -0.11037397845E+03 -0.23571698948E+02 -0.14276085977E+03  0.19856173507E+03  0.79423292826E+02 0.  0.
         25    2    1    2    0    0  0.17652990885E+03 -0.12090626144E+02  0.18613113852E+03  0.28565905626E+03  0.12508918314E+03 0.  0.
         24    2    1    2    0    0 -0.66155930399E+02  0.35662325093E+02  0.33900216766E+03  0.35616354353E+03  0.79256491868E+02 0.  0.
        -11    1    5    5    0    0 -0.10163519942E+02 -0.11437489414E+02  0.81867076702E+01  0.17353255723E+02  0.00000000000E+00 0.  1.
         12    1    5    5    0    0 -0.55992410458E+02  0.47099814507E+02  0.33081545999E+03  0.33881028781E+03  0.00000000000E+00 0. -1.
         13    1    3    3    0    0 -0.17163106577E+02 -0.23120392411E+02 -0.88844445097E+00  0.28808229834E+02  0.00000000000E+00 0. -1.
        -14    1    3    3    0    0 -0.93210871870E+02 -0.45130653710E+00 -0.14187241532E+03  0.16975350524E+03  0.00000000000E+00 0.  1.
          5    1    4    4  501    0  0.47951221880E+02  0.39170801576E+02  0.12054970254E+02  0.63217608969E+02  0.41800000000E+01 0.  1.
         -5    1    4    4    0  501  0.12857868697E+03 -0.51261427721E+02  0.17407616827E+03  0.22244144729E+03  0.41800000000E+01 0.  1.
</event>
<event>
11    1  0.8041700E-009  0.2329062E+03  0.7561462E-02  0.1033421E+00
         22   -1    0    0    0    0  0.00000000000E+00  0.00000000000E+00  0.78381166500E+03  0.78381166500E+03  0.00000000000E+00 0.  1.
         22   -1    0    0    0    0 -0.00000000000E+00 -0.00000000000E+00 -0.71551687805E+03  0.71551687805E+03  0.00000000000E+00 0. -1.
         24    2    1    2    0    0 -0.97965832600E+02  0.66201610964E+02 -0.53613251320E+03  0.55423334533E+03  0.75872074696E+02 0.  0.
         25    2    1    2    0    0  0.71847933993E+02  0.13613513844E+03 -0.89364076885E+02  0.21755000141E+03  0.12508862195E+03 0.  0.
        -24    2    1    2    0    0  0.26117898607E+02 -0.20233674940E+03  0.69379137703E+03  0.72754519631E+03  0.79707170532E+02 0.  0.
        -11    1    3    3    0    0 -0.35654325166E+02  0.67529969554E+02 -0.33846758136E+03  0.34697526039E+03  0.00000000000E+00 0.  1.
         12    1    3    3    0    0 -0.62311507434E+02 -0.13283585902E+01 -0.19766493184E+03  0.20725808494E+03  0.00000000000E+00 0. -1.
         13    1    5    5    0    0  0.19467268732E+02 -0.37907884237E+01  0.49601627014E+02  0.53419715753E+02  0.00000000000E+00 0. -1.
        -14    1    5    5    0    0  0.66506298753E+01 -0.19854596098E+03  0.64418975002E+03  0.67412548055E+03  0.00000000000E+00 0.  1.
          5    1    4    4  501    0 -0.30963014025E+02  0.66509362723E+02 -0.24930383981E+02  0.77596391751E+02  0.41800000000E+01 0. -1.
         -5    1    4    4    0  501  0.10281094802E+03  0.69625775718E+02 -0.64433692903E+02  0.13995360966E+03  0.41800000000E+01 0. -1.
</event>
<event>
11    1  0.8041700E-009  0.1408797E+03  0.7561462E-02  0.1106580E+00
         22   -1    0    0    0    0  0.00000000000E+00  0.00000000000E+00  0.52979763164E+03  0.52979763164E+03  0.00000000000E+00 0.  1.
         22   -1    0    0    0    0 -0.00000000000E+00 -0.00000000000E+00 -0.87921715435E+03  0.87921715435E+03  0.00000000000E+00 0.  1.
        -24    2    1    2    0    0  0.68545501409E+01 -0.47400283490E+01 -0.79361879402E+03  0.79821345551E+03  0.85114497012E+02 0.  0.
         25    2    1    2    0    0 -0.70792394937E+02  0.11056694711E+02 -0.96602534247E+01  0.14448482675E+03  0.12509488793E+03 0.  0.
         24    2    1    2    0    0  0.63937844797E+02 -0.63166663624E+01  0.45385952474E+03  0.46631650373E+03  0.85642659868E+02 0.  0.
        -11    1    5    5    0    0  0.61147406580E+02  0.18216542036E+02  0.41761439804E+03  0.42246021491E+03  0.00000000000E+00 0.  1.
         12    1    5    5    0    0  0.27904382163E+01 -0.24533208398E+02  0.36245126697E+02  0.43856288820E+02  0.00000000000E+00 0. -1.
         13    1    3    3    0    0 -0.23916064879E+02 -0.27829667279E+02 -0.19922873533E+03  0.20257975595E+03  0.00000000000E+00 0. -1.
        -14    1    3    3    0    0  0.30770615020E+02  0.23089638930E+02 -0.59439005869E+03  0.59563369956E+03  0.00000000000E+00 0.  1.
          5    1    4    4  501    0 -0.16928193660E+02 -0.55561459502E+02 -0.60555447010E+00  0.58236402866E+02  0.41800000000E+01 0.  1.
         -5    1    4    4    0  501 -0.53864201278E+02  0.66618154213E+02 -0.90546989546E+01  0.86248423888E+02  0.41800000000E+01 0.  1.
</event>
<event>
11    1  0.8041700E-009  0.1661801E+03  0.7561462E-02  0.1081405E+00
         22   -1    0    0    0    0  0.00000000000E+00  0.00000000000E+00  0.11541378800E+03  0.11541378800E+03  0.00000000000E+00 0.  1.
         22   -1    0    0    0    0 -0.00000000000E+00 -0.00000000000E+00 -0.11197866299E+04  0.11197866299E+04  0.00000000000E+00 0. -1.
        -24    2    1    2    0    0  0.88306433794E+01  0.35947660430E+02 -0.69881919344E+03  0.70450601821E+03  0.81303444071E+02 0.  0.
         25    2    1    2    0    0 -0.11166335426E+03 -0.66125468169E+02 -0.34738647993E+03  0.39136413184E+03  0.12508890850E+03 0.  0.
         24    2    1    2    0    0  0.10283271089E+03  0.30177807739E+02  0.41832831449E+02  0.13933026786E+03  0.78598163135E+02 0.  0.
        -11    1    5    5    0    0  0.47169405638E+02  0.27853169902E+02 -0.17918754233E+02  0.57635350741E+02  0.00000000000E+00 0.  1.
         12    1    5    5    0    0  0.55663305247E+02  0.23246378374E+01  0.59751585683E+02  0.81694917123E+02  0.00000000000E+00 0. -1.
         11    1    3    3    0    0 -0.28511217037E+02  0.42732876425E+02 -0.39692731948E+03  0.40023778579E+03  0.00000000000E+00 0. -1.
        -12    1    3    3    0    0  0.37341860417E+02 -0.67852159951E+01 -0.30189187396E+03  0.30426823242E+03  0.00000000000E+00 0.  1.
          5    1    4    4  501    0 -0.83351798780E+02  0.29265110975E+01 -0.27466051862E+03  0.28707483295E+03  0.41800000000E+01 0.  1.
         -5    1    4    4    0  501 -0.28311555484E+02 -0.69051979267E+02 -0.72725961314E+02  0.10428929889E+03  0.41800000000E+01 0.  1.
</event>
<event>
11    1  0.8041700E-009  0.1793159E+03  0.7561462E-02  0.1070198E+00
         22   -1    0    0    0    0  0.00000000000E+00  0.00000000000E+00  0.94912382391E+03  0.94912382391E+03  0.00000000000E+00 0. -1.
         22   -1    0    0    0    0 -0.00000000000E+00 -0.00000000000E+00 -0.14560126511E+03  0.14560126511E+03  0.00000000000E+00 0. -1.
         24    2    1    2    0    0 -0.83596645751E+01  0.14323348377E+03 -0.32605620165E+02  0.16707789247E+03  0.79159211851E+02 0.  0.
         25    2    1    2    0    0  0.14784693404E+02 -0.95217902714E+02  0.10281787769E+03  0.18841918246E+03  0.12508091856E+03 0.  0.
        -24    2    1    2    0    0 -0.64250288292E+01 -0.48015581054E+02  0.73331030127E+03  0.73922801410E+03  0.79795249602E+02 0.  0.
        -11    1    3    3    0    0  0.21724623494E+02  0.14998978627E+02  0.10612483427E+02  0.28452652430E+02  0.00000000000E+00 0.  1.
         12    1    3    3    0    0 -0.30084288069E+02  0.12823450514E+03 -0.43218103592E+02  0.13862524004E+03  0.00000000000E+00 0. -1.
         13    1    5    5    0    0  0.15975479994E+02  0.15270880268E+02  0.10250220863E+03  0.10485761069E+03  0.00000000000E+00 0. -1.
        -14    1    5    5    0    0 -0.22400508823E+02 -0.63286461321E+02  0.63080809264E+03  0.63437040341E+03  0.00000000000E+00 0.  1.
          5    1    4    4  501    0  0.39770564703E+02 -0.64046134292E+02  0.12233570965E+03  0.14376057662E+03  0.41800000000E+01 0.  1.
         -5    1    4    4    0  501 -0.24985871298E+02 -0.31171768422E+02 -0.19517831956E+02  0.44658605838E+02  0.41800000000E+01 0.  1.
</event>
<event>
11    1  0.8041700E-009  0.1766627E+03  0.7561462E-02  0.1072375E+00
         22   -1    0    0    0    0  0.00000000000E+00  0.00000000000E+00  0.30646002660E+03  0.30646002660E+03  0.00000000000E+00 0. -1.
         22   -1    0    0    0    0 -0.00000000000E+00 -0.00000000000E+00 -0.42510706325E+03  0.42510706325E+03  0.00000000000E+00 0.  1.
         24    2    1    2    0    0  0.93151095234E+02 -0.85036022611E+02 -0.33121101372E+03  0.36352857903E+03  0.80895243831E+02 0.  0.
         25    2    1    2    0    0 -0.13357452672E+03  0.14673245409E+02  0.11333947858E+03  0.21575156478E+03  0.12508174120E+03 0.  0.
        -24    2    1    2    0    0  0.40423431487E+02  0.70362777202E+02  0.99224498494E+02  0.15228694605E+03  0.82224318827E+02 0.  0.
        -13    1    3    3    0    0  0.79986948964E+02 -0.10109479912E+03 -0.29089967577E+03  0.31818342474E+03  0.00000000000E+00 0.  1.
         14    1    3    3    0    0  0.13164146271E+02  0.16058776514E+02 -0.40311337950E+02  0.45345154288E+02  0.00000000000E+00 0. -1.
         11    1    5    5    0    0  0.54406309774E+02  0.13379593929E+02  0.57554463272E+02  0.80321705158E+02  0.00000000000E+00 0. -1.
        -12    1    5    5    0    0 -0.13982878287E+02  0.56983183272E+02  0.41670035222E+02  0.71965240891E+02  0.00000000000E+00 0.  1.
          5    1    4    4  501    0 -0.65765212943E+02  0.42266907700E+02 -0.28704924720E+01  0.78340710023E+02  0.41800000000E+01 0.  1.
         -5    1    4    4    0  501 -0.67809313779E+02 -0.27593662291E+02  0.11620997105E+03  0.13741085476E+03  0.41800000000E+01 0.  1.
</event>
<event>
11    1  0.8041700E-009  0.1509351E+03  0.7561462E-02  0.1095927E+00
         22   -1    0    0    0    0  0.00000000000E+00  0.00000000000E+00  0.68139490189E+03  0.68139490189E+03  0.00000000000E+00 0.  1.
         22   -1    0    0    0    0 -0.00000000000E+00 -0.00000000000E+00 -0.55979968085E+03  0.55979968085E+03  0.00000000000E+00 0. -1.
         24    2    1    2    0    0  0.68107642353E+00 -0.93893209938E-01 -0.46274313855E+03  0.46960855840E+03  0.80003207219E+02 0.  0.
         25    2    1    2    0    0  0.82394365726E+02 -0.15378339071E+02 -0.23690967125E+02  0.15242692460E+03  0.12508949038E+03 0.  0.
        -24    2    1    2    0    0 -0.83075442150E+02  0.15472232281E+02  0.60802932671E+03  0.61915909974E+03  0.80730474958E+02 0.  0.
        -13    1    3    3    0    0  0.36329028518E+02 -0.53202485080E+01 -0.13544527459E+03  0.14033362308E+03  0.00000000000E+00 0.  1.
         14    1    3    3    0    0 -0.35647952094E+02  0.52263552981E+01 -0.32729786397E+03  0.32927493533E+03  0.00000000000E+00 0. -1.
         13    1    5    5    0    0 -0.52715156306E+02  0.23138557321E+01  0.13457488071E+03  0.14454978433E+03  0.00000000000E+00 0. -1.
        -14    1    5    5    0    0 -0.30360285844E+02  0.13158376548E+02  0.47345444600E+03  0.47460931541E+03  0.00000000000E+00 0.  1.
          5    1    4    4  501    0  0.72042903531E+01  0.44751688034E+02 -0.32090120643E+02  0.55694376954E+02  0.41800000000E+01 0. -1.
         -5    1    4    4    0  501  0.75190075373E+02 -0.60130027105E+02  0.83991535178E+01  0.96732547646E+02  0.41800000000E+01 0. -1.
</event>
<event>
11    1  0.8041700E-009  0.1824708E+03  0.7561462E-02  0.1067662E+00
         22   -1    0    0    0    0  0.00000000000E+00  0.00000000000E+00  0.28193378430E+04  0.28193378430E+04  0.00000000000E+00 0.  1.
         22   -1    0    0    0    0 -0.00000000000E+00 -0.00000000000E+00 -0.56699108350E+03  0.56699108350E+03  0.00000000000E+00 0.  1.
        -24    2    1    2    0    0 -0.13175506145E+03 -0.14451630133E+01 -0.53237485647E+03  0.55390770236E+03  0.77648375537E+02 0.  0.
         25    2    1    2    0    0  0.19760301519E+03  0.57162382814E+02  0.62898168521E+03  0.67348331037E+03  0.12508924570E+03 0.  0.
         24    2    1    2    0    0 -0.65847953741E+02 -0.55717219800E+02  0.21557399308E+04  0.21589379138E+04  0.79736471436E+02 0.  0.
        -11    1    5    5    0    0 -0.56201687894E+02 -0.38053865867E+02  0.20594052354E+04  0.20605233922E+04  0.00000000000E+00 0.  1.
         12    1    5    5    0    0 -0.96462658471E+01 -0.17663353933E+02  0.96334695429E+02  0.98414521593E+02  0.00000000000E+00 0. -1.
         11    1    3    3    0    0 -0.24830319100E+02  0.32255668237E+02 -0.13213372447E+03  0.13826168675E+03  0.00000000000E+00 0. -1.
        -12    1    3    3    0    0 -0.10692474235E+03 -0.33700831250E+02 -0.40024113200E+03  0.41564601562E+03  0.00000000000E+00 0.  1.
          5    1    4    4  501    0  0.94753616475E+02 -0.16443468845E+02  0.40445044161E+03  0.41574784139E+03  0.41800000000E+01 0. -1.
         -5    1    4    4    0  501  0.10284939872E+03  0.73605851659E+02  0.22453124361E+03  0.25773546898E+03  0.41800000000E+01 0. -1.
</event>
<event>
11    1  0.8041700E-009  0.1421352E+03  0.7561462E-02  0.1105197E+00
         22   -1    0    0    0    0  0.00000000000E+00  0.00000000000E+00  0.50907384783E+03  0.50907384783E+03  0.00000000000E+00 0. -1.
         22   -1    0    0    0    0 -0.00000000000E+00 -0.00000000000E+00 -0.27057072598E+03  0.27057072598E+03  0.00000000000E+00 0. -1.
         24    2    1    2    0    0  0.70240315160E+02 -0.85416013695E+01 -0.22618782912E+03  0.25064116067E+03  0.81568355089E+02 0.  0.
         25    2    1    2    0    0 -0.12439357660E+02  0.39991448826E+02  0.16237146877E+03  0.20920325523E+03  0.12508978587E+03 0.  0.
        -24    2    1    2    0    0 -0.57800957499E+02 -0.31449847457E+02  0.30231948220E+03  0.31980015791E+03  0.80901347859E+02 0.  0.
        -13    1    3    3    0    0 -0.89347441967E+01  0.19070782363E+02 -0.25061382573E+02  0.32735260657E+02  0.00000000000E+00 0.  1.
         14    1    3    3    0    0  0.79175059356E+02 -0.27612383733E+02 -0.20112644655E+03  0.21790590002E+03  0.00000000000E+00 0. -1.
         11    1    5    5    0    0 -0.17251443166E+02 -0.38194383720E+01  0.23919950236E+03  0.23985120873E+03  0.00000000000E+00 0. -1.
        -12    1    5    5    0    0 -0.40549514333E+02 -0.27630409085E+02  0.63119979839E+02  0.79948949172E+02  0.00000000000E+00 0.  1.
          5    1    4    4  501    0 -0.65250096234E+02  0.25575403720E+02  0.57182163991E+02  0.90548045880E+02  0.41800000000E+01 0.  1.
         -5    1    4    4    0  501  0.52810738574E+02  0.14416045106E+02  0.10518930478E+03  0.11865520935E+03  0.41800000000E+01 0.  1.
</event>
<event>
11    1  0.8041700E-009  0.3570791E+03  0.7561462E-02  0.9785643E-01
         22   -1    0    0    0    0  0.00000000000E+00  0.00000000000E+00  0.12040882193E+04  0.12040882193E+04  0.00000000000E+00 0.  1.
         22   -1    0    0    0    0 -0.00000000000E+00 -0.00000000000E+00 -0.79028636485E+03  0.79028636485E+03  0.00000000000E+00 0. -1.
         24    2    1    2    0    0 -0.32241379034E+03  0.96897318079E+02 -0.48758181974E+03  0.59783713495E+03  0.79583079403E+02 0.  0.
         25    2    1    2    0    0  0.32715440725E+03 -0.52680675257E+02 -0.11781352896E+03  0.37327346838E+03  0.12509114621E+03 0.  0.
        -24    2    1    2    0    0 -0.47406169103E+01 -0.44216642822E+02  0.10191972032E+04  0.10232639809E+04  0.79552816279E+02 0.  0.
        -11    1    3    3    0    0 -0.29024940329E+03  0.71021065303E+02 -0.38567961994E+03  0.48789084544E+03  0.00000000000E+00 0.  1.
         12    1    3    3    0    0 -0.32164387049E+02  0.25876252776E+02 -0.10190219980E+03  0.10994628950E+03  0.00000000000E+00 0. -1.
         11    1    5    5    0    0  0.30383305114E+02 -0.41703755563E+02  0.44362569670E+03  0.44661628635E+03  0.00000000000E+00 0. -1.
        -12    1    5    5    0    0 -0.35123922024E+02 -0.25128872592E+01  0.57557150649E+03  0.57664769451E+03  0.00000000000E+00 0.  1.
          5    1    4    4  501    0  0.16146881303E+01  0.27648274337E+01  0.16072011909E+02  0.16912523623E+02  0.41800000000E+01 0. -1.
         -5    1    4    4    0  501  0.32553971912E+03 -0.55445502691E+02 -0.13388554087E+03  0.35636094476E+03  0.41800000000E+01 0. -1.
</event>
<event>
11    1  0.8041700E-009  0.1642980E+03  0.7561462E-02  0.1083103E+00
         22   -1    0    0    0    0  0.00000000000E+00  0.00000000000E+00  0.90633299755E+03  0.90633299755E+03  0.00000000000E+00 0. -1.
         22   -1    0    0    0    0 -0.00000000000E+00 -0.00000000000E+00 -0.16199781680E+03  0.16199781680E+03  0.00000000000E+00 0.  1.
        -24    2    1    2    0    0 -0.66991881302E+02  0.77927154275E+02 -0.74059926704E+02  0.15037472237E+03  0.81037835922E+02 0.  0.
         25    2    1    2    0    0  0.65426842886E+02 -0.10519978503E+03  0.11780660391E+03  0.21183323811E+03  0.12508900153E+03 0.  0.
         24    2    1    2    0    0  0.15650384164E+01  0.27272630755E+02  0.70058850354E+03  0.70612285387E+03  0.83898675361E+02 0.  0.
        -13    1    5    5    0    0 -0.15108930364E+02  0.36777835600E+02  0.14939988026E+03  0.15460017203E+03  0.00000000000E+00 0.  1.
         14    1    5    5    0    0  0.16673968780E+02 -0.95052048452E+01  0.55118862327E+03  0.55152268184E+03  0.00000000000E+00 0. -1.
         11    1    3    3    0    0 -0.39810035154E+01  0.31661373213E+02  0.12017229215E+02  0.34098456574E+02  0.00000000000E+00 0. -1.
        -12    1    3    3    0    0 -0.63010877786E+02  0.46265781063E+02 -0.86077155919E+02  0.11627626580E+03  0.00000000000E+00 0.  1.
          5    1    4    4  501    0  0.10097389305E+03 -0.84445164341E+02  0.71948243832E+02  0.15006910091E+03  0.41800000000E+01 0. -1.
         -5    1    4    4    0  501 -0.35547050162E+02 -0.20754620689E+02  0.45858360077E+02  0.61764137201E+02  0.41800000000E+01 0. -1.
</event>
<event>
11    1  0.8041700E-009  0.1357732E+03  0.7561462E-02  0.1112372E+00
         22   -1    0    0    0    0  0.00000000000E+00  0.00000000000E+00  0.68436558312E+03  0.68436558312E+03  0.00000000000E+00 0. -1.
         22   -1    0    0    0    0 -0.00000000000E+00 -0.00000000000E+00 -0.10678208877E+04  0.10678208877E+04  0.00000000000E+00 0.  1.
         24    2    1    2    0    0 -0.52311661165E+02  0.96585059534E+01 -0.10054912907E+04  0.10101631148E+04  0.81160250373E+02 0.  0.
         25    2    1    2    0    0  0.39713116546E+02 -0.21579713869E+01  0.17776264319E+02  0.13246235004E+03  0.12509392527E+03 0.  0.
        -24    2    1    2    0    0  0.12598544619E+02 -0.75005345665E+01  0.60425972181E+03  0.60956100595E+03  0.78865881284E+02 0.  0.
        -11    1    3    3    0    0 -0.40262161689E+02 -0.20988419484E+02 -0.85054866755E+03  0.85175970279E+03  0.00000000000E+00 0.  1.
         12    1    3    3    0    0 -0.12049499476E+02  0.30646925437E+02 -0.15494262316E+03  0.15840341205E+03  0.00000000000E+00 0. -1.
         11    1    5    5    0    0  0.15135864718E+02 -0.48451941090E+01  0.60548178052E+03  0.60569031431E+03  0.00000000000E+00 0. -1.
        -12    1    5    5    0    0 -0.25373200996E+01 -0.26553404575E+01 -0.12220587170E+01  0.38706916360E+01  0.00000000000E+00 0.  1.
          5    1    4    4  501    0  0.76690795056E+02 -0.30293239759E+02  0.22494279611E+02  0.85572328685E+02  0.41800000000E+01 0.  1.
         -5    1    4    4    0  501 -0.36977678510E+02  0.28135268372E+02 -0.47180152923E+01  0.46890021355E+02  0.41800000000E+01 0.  1.
</event>
<event>
11    1  0.8041700E-009  0.1977465E+03  0.7561462E-02  0.1056129E+00
         22   -1    0    0    0    0  0.00000000000E+00  0.00000000000E+00  0.15234681361E+03  0.15234681361E+03  0.00000000000E+00 0. -1.
         22   -1    0    0    0    0 -0.00000000000E+00 -0.00000000000E+00 -0.88593836572E+03  0.88593836572E+03  0.00000000000E+00 0.  1.
         24    2    1    2    0    0 -0.94970647567E+01  0.18912243176E+02 -0.39831523522E+03  0.40699463390E+03  0.80881012815E+02 0.  0.
         25    2    1    2    0    0  0.15684628957E+03  0.20804525252E+02 -0.39967261258E+03  0.44768238100E+03  0.12509088773E+03 0.  0.
        -24    2    1    2    0    0 -0.14734922482E+03 -0.39716768429E+02  0.64396295692E+02  0.18360816443E+03  0.79220321878E+02 0.  0.
        -13    1    3    3    0    0 -0.18643656332E+02 -0.97077235421E+01 -0.34620743162E+03  0.34684493873E+03  0.00000000000E+00 0.  1.
         14    1    3    3    0    0  0.91465915757E+01  0.28619966718E+02 -0.52107803608E+02  0.60149695172E+02  0.00000000000E+00 0. -1.
         11    1    5    5    0    0 -0.14478578292E+02 -0.35980206310E+02  0.10555893837E+02  0.40194917218E+02  0.00000000000E+00 0. -1.
        -12    1    5    5    0    0 -0.13287064652E+03 -0.37365621186E+01  0.53840401855E+02  0.14341324721E+03  0.00000000000E+00 0.  1.
          5    1    4    4  501    0  0.61981823159E+02  0.48681505889E-01 -0.30755901397E+03  0.31377024755E+03  0.41800000000E+01 0.  1.
         -5    1    4    4    0  501  0.94864466415E+02  0.20755843746E+02 -0.92113598603E+02  0.13391213345E+03  0.41800000000E+01 0.  1.
</event>
<event>
11    1  0.8041700E-009  0.1586929E+03  0.7561462E-02  0.1088313E+00
         22   -1    0    0    0    0  0.00000000000E+00  0.00000000000E+00  0.76465246280E+03  0.76465246280E+03  0.00000000000E+00 0. -1.
         22   -1    0    0    0    0 -0.00000000000E+00 -0.00000000000E+00 -0.11485771145E+03  0.11485771145E+03  0.00000000000E+00 0.  1.
        -24    2    1    2    0    0 -0.37798113256E+02 -0.90175137986E+02 -0.25988077525E+01  0.12671602442E+03  0.80560189718E+02 0.  0.
         25    2    1    2    0    0  0.83822427406E+02  0.66048852932E+02  0.10080166495E+03  0.19285623119E+03  0.12507557692E+03 0.  0.
         24    2    1    2    0    0 -0.46024314150E+02  0.24126285054E+02  0.55159189415E+03  0.55993791864E+03  0.81095868664E+02 0.  0.
        -11    1    5    5    0    0  0.36204775588E+01  0.46215618628E+01  0.99039194245E-01  0.58716693169E+01  0.00000000000E+00 0.  1.
         12    1    5    5    0    0 -0.49644791709E+02  0.19504723191E+02  0.55149285496E+03  0.55406624932E+03  0.00000000000E+00 0. -1.
         13    1    3    3    0    0 -0.18836094128E+02 -0.29293861495E+02  0.37667482210E+02  0.51300760027E+02  0.00000000000E+00 0. -1.
        -14    1    3    3    0    0 -0.18962019127E+02 -0.60881276491E+02 -0.40266289963E+02  0.75415264396E+02  0.00000000000E+00 0.  1.
          5    1    4    4  501    0  0.81971528938E+02  0.15925468007E+02  0.39437497423E+01  0.83701718320E+02  0.41800000000E+01 0.  1.
         -5    1    4    4    0  501  0.18508984677E+01  0.50123384925E+02  0.96857915203E+02  0.10915451287E+03  0.41800000000E+01 0.  1.
</event>
<event>
11    1  0.8041700E-009  0.1422899E+03  0.7561462E-02  0.1105028E+00
         22   -1    0    0    0    0  0.00000000000E+00  0.00000000000E+00  0.24407326848E+03  0.24407326848E+03  0.00000000000E+00 0.  1.
         22   -1    0    0    0    0 -0.00000000000E+00 -0.00000000000E+00 -0.35842577762E+03  0.35842577762E+03  0.00000000000E+00 0.  1.
        -24    2    1    2    0    0 -0.75390902847E+00  0.23321493614E+02 -0.16672291346E+03  0.18549553685E+03  0.77894825717E+02 0.  0.
         25    2    1    2    0    0 -0.64646178833E+02 -0.34573060015E+01 -0.13949042877E+03  0.19823224695E+03  0.12508941846E+03 0.  0.
         24    2    1    2    0    0  0.65400087862E+02 -0.19864187612E+02  0.19186083309E+03  0.21877126230E+03  0.79865690338E+02 0.  0.
        -11    1    5    5    0    0  0.73025564041E+02 -0.37565234247E+02  0.17438757951E+03  0.19275608347E+03  0.00000000000E+00 0.  1.
         12    1    5    5    0    0 -0.76254761787E+01  0.17701046634E+02  0.17473253576E+02  0.26015178827E+02  0.00000000000E+00 0. -1.
         11    1    3    3    0    0  0.25274780653E+02 -0.19006032824E+02 -0.65281818671E+02  0.72537987770E+02  0.00000000000E+00 0. -1.
        -12    1    3    3    0    0 -0.26028689681E+02  0.42327526438E+02 -0.10144109479E+03  0.11295754908E+03  0.00000000000E+00 0.  1.
          5    1    4    4  501    0 -0.77805821855E+02 -0.25509679808E+02 -0.32617069879E+02  0.88237380548E+02  0.41800000000E+01 0.  1.
         -5    1    4    4    0  501  0.13159643022E+02  0.22052373807E+02 -0.10687335889E+03  0.10999486640E+03  0.41800000000E+01 0.  1.
</event>
<event>
11    1  0.8041700E-009  0.1906549E+03  0.7561462E-02  0.1061336E+00
         22   -1    0    0    0    0  0.00000000000E+00  0.00000000000E+00  0.16768325127E+04  0.16768325127E+04  0.00000000000E+00 0.  1.
         22   -1    0    0    0    0 -0.00000000000E+00 -0.00000000000E+00 -0.22882332467E+03  0.22882332467E+03  0.00000000000E+00 0. -1.
        -24    2    1    2    0    0 -0.29560485333E+02  0.48377953399E+02 -0.13051585645E+03  0.16704700596E+03  0.87498941406E+02 0.  0.
         25    2    1    2    0    0 -0.18676767873E+02  0.90456669926E+02  0.44116726637E+01  0.15555548207E+03  0.12508722698E+03 0.  0.
         24    2    1    2    0    0  0.48237253206E+02 -0.13883462332E+03  0.15741133718E+04  0.15830533493E+04  0.81382518267E+02 0.  0.
        -11    1    5    5    0    0  0.38831063686E+02 -0.11380861723E+03  0.14888114685E+04  0.14936598815E+04  0.00000000000E+00 0.  1.
         12    1    5    5    0    0  0.94061895199E+01 -0.25026006098E+02  0.85301903330E+02  0.89393467850E+02  0.00000000000E+00 0. -1.
         13    1    3    3    0    0  0.25033310973E+02  0.37937974094E+02 -0.79628828578E+02  0.91688095614E+02  0.00000000000E+00 0. -1.
        -14    1    3    3    0    0 -0.54593796306E+02  0.10439979306E+02 -0.50887027873E+02  0.75358910347E+02  0.00000000000E+00 0.  1.
          5    1    4    4  501    0  0.34998305966E+01 -0.28957087229E+02 -0.14032178219E+02  0.32636423526E+02  0.41800000000E+01 0.  1.
         -5    1    4    4    0  501 -0.22176598470E+02  0.11941375715E+03  0.18443850883E+02  0.12291905854E+03  0.41800000000E+01 0.  1.
</event>
<event>
11    1  0.8041700E-009  0.1433847E+03  0.7561462E-02  0.1103837E+00
         22   -1    0    0    0    0  0.00000000000E+00  0.00000000000E+00  0.31998686368E+04  0.31998686368E+04  0.00000000000E+00 0.  1.
         22   -1    0    0    0    0 -0.00000000000E+00 -0.00000000000E+00 -0.56248741095E+02  0.56248741095E+02  0.00000000000E+00 0.  1.
        -24    2    1    2    0    0  0.71453152527E+02 -0.81280735066E+01  0.26373886292E+02  0.13011344681E+03  0.10517750985E+03 0.  0.
         25    2    1    2    0    0 -0.21747697721E+02 -0.17463976369E+02  0.21520070922E+04  0.21558199742E+04  0.12508910070E+03 0.  0.
         24    2    1    2    0    0 -0.49705454806E+02  0.25592049875E+02  0.96523891712E+03  0.97018395687E+03  0.80281740084E+02 0.  0.
        -13    1    5    5    0    0 -0.71840764369E+01 -0.49694074204E+01  0.68728139363E+03  0.68733690429E+03  0.00000000000E+00 0.  1.
         14    1    5    5    0    0 -0.42521378369E+02  0.30561457296E+02  0.27795752349E+03  0.28284705258E+03  0.00000000000E+00 0. -1.
         11    1    3    3    0    0  0.87402985785E+02  0.17825420750E+02  0.38720722780E+02  0.97243621496E+02  0.00000000000E+00 0. -1.
        -12    1    3    3    0    0 -0.15949833258E+02 -0.25953494257E+02 -0.12346836488E+02  0.32869825316E+02  0.00000000000E+00 0.  1.
          5    1    4    4  501    0 -0.49706877493E+02 -0.28538048170E+02  0.46474361298E+03  0.46828334592E+03  0.41800000000E+01 0.  1.
         -5    1    4    4    0  501  0.27959179772E+02  0.11074071802E+02  0.16872634793E+04  0.16875366282E+04  0.41800000000E+01 0.  1.
</event>
<event>
11    1  0.9389053E-009  0.1530112E+03  0.7561462E-02  0.1093841E+00
         22   -1    0    0    0    0  0.00000000000E+00  0.00000000000E+00  0.48926302845E+03  0.48926302845E+03  0.00000000000E+00 0.  1.
         22   -1    0    0    0    0 -0.00000000000E+00 -0.00000000000E+00 -0.30007638263E+04  0.30007638263E+04  0.00000000000E+00 0. -1.
        -24    2    1    2    0    0 -0.22138427560E+02 -0.14944928102E+02 -0.23839992388E+04  0.23854973343E+04  0.80197883484E+02 0.  0.
         25    2    1    2    0    0 -0.62021761186E+02 -0.12195895488E+02 -0.60050733161E+03  0.61664581681E+03  0.12509024477E+03 0.  0.
         24    2    1    2    0    0  0.84160188747E+02  0.27140823590E+02  0.47300577262E+03  0.48788370359E+03  0.80476615370E+02 0.  0.
        -13    1    5    5    0    0  0.87473198438E+00  0.16015127231E+02  0.23379784820E+03  0.23434735603E+03  0.00000000000E+00 0.  1.
         14    1    5    5    0    0  0.83285456762E+02  0.11125696359E+02  0.23920792442E+03  0.25353634756E+03  0.00000000000E+00 0. -1.
         13    1    3    3    0    0  0.13905195254E+02 -0.33616365124E+01 -0.18883894188E+04  0.18884436057E+04  0.00000000000E+00 0. -1.
        -14    1    3    3    0    0 -0.36043622814E+02 -0.11583291590E+02 -0.49560982002E+03  0.49705372857E+03  0.00000000000E+00 0.  1.
          5    1    4    4  501    0  0.30273312596E+02  0.23972031298E+01 -0.53169513595E+02  0.61373362417E+02  0.41800000000E+01 0. -1.
         -5    1    4    4    0  501 -0.92295073782E+02 -0.14593098618E+02 -0.54733781802E+03  0.55527245439E+03  0.41800000000E+01 0. -1.
</event>
<event>
11    1  0.8041700E-009  0.1304151E+03  0.7561462E-02  0.1118760E+00
         22   -1    0    0    0    0  0.00000000000E+00  0.00000000000E+00  0.18687820698E+03  0.18687820698E+03  0.00000000000E+00 0. -1.
         22   -1    0    0    0    0 -0.00000000000E+00 -0.00000000000E+00 -0.64583801096E+03  0.64583801096E+03  0.00000000000E+00 0. -1.
        -24    2    1    2    0    0 -0.10942481260E+02 -0.17744261401E+01 -0.53942670269E+03  0.54547569071E+03  0.80247586299E+02 0.  0.
         25    2    1    2    0    0 -0.22904499248E+02  0.19297996640E+02 -0.42381794294E+02  0.13542997099E+03  0.12509209326E+03 0.  0.
         24    2    1    2    0    0  0.33846980508E+02 -0.17523570500E+02  0.12284869300E+03  0.15181055623E+03  0.80634669963E+02 0.  0.
        -13    1    5    5    0    0 -0.72889196903E+01 -0.28096431046E+02  0.91448160645E+01  0.30432966477E+02  0.00000000000E+00 0.  1.
         14    1    5    5    0    0  0.41135900198E+02  0.10572860546E+02  0.11370387694E+03  0.12137758976E+03  0.00000000000E+00 0. -1.
         11    1    3    3    0    0 -0.24602466901E+02 -0.36162338286E+02 -0.26988742444E+03  0.27340851845E+03  0.00000000000E+00 0. -1.
        -12    1    3    3    0    0  0.13659985642E+02  0.34387912146E+02 -0.26953927824E+03  0.27206717227E+03  0.00000000000E+00 0.  1.
          5    1    4    4  501    0  0.37818125331E+02 -0.90689861864E+01 -0.54610890638E+02  0.67173498422E+02  0.41800000000E+01 0. -1.
         -5    1    4    4    0  501 -0.60722624579E+02  0.28366982826E+02  0.12229096344E+02  0.68256472571E+02  0.41800000000E+01 0. -1.
</event>
<event>
11    1  0.8041700E-009  0.1478146E+03  0.7561462E-02  0.1099133E+00
         22   -1    0    0    0    0  0.00000000000E+00  0.00000000000E+00  0.23968785712E+03  0.23968785712E+03  0.00000000000E+00 0.  1.
         22   -1    0    0    0    0 -0.00000000000E+00 -0.00000000000E+00 -0.60455153411E+03  0.60455153411E+03  0.00000000000E+00 0. -1.
        -24    2    1    2    0    0  0.23176391561E+02  0.59649833053E+02 -0.51802986287E+03  0.52807409317E+03  0.80075347945E+02 0.  0.
         25    2    1    2    0    0  0.59104160522E+02 -0.18044934960E+02  0.29437074664E+02  0.14259884701E+03  0.12509583660E+03 0.  0.
         24    2    1    2    0    0 -0.82280552083E+02 -0.41604898093E+02  0.12372911121E+03  0.17356645105E+03  0.79469259287E+02 0.  0.
        -13    1    5    5    0    0 -0.25018261496E+02 -0.70920799376E+01  0.98875097972E+02  0.10223744913E+03  0.00000000000E+00 0.  1.
         14    1    5    5    0    0 -0.57262290587E+02 -0.34512818155E+02  0.24854013243E+02  0.71329001918E+02  0.00000000000E+00 0. -1.
         13    1    3    3    0    0  0.56895008109E+01  0.35843496431E+02 -0.47192451169E+03  0.47331793901E+03  0.00000000000E+00 0. -1.
        -14    1    3    3    0    0  0.17486890750E+02  0.23806336622E+02 -0.46105351183E+02  0.54756154167E+02  0.00000000000E+00 0.  1.
          5    1    4    4  501    0  0.65917056325E+02 -0.61984541583E+02  0.28516114637E+01  0.90624200950E+02  0.41800000000E+01 0.  1.
         -5    1    4    4    0  501 -0.68128958031E+01  0.43939606623E+02  0.26585463200E+02  0.51974646060E+02  0.41800000000E+01 0.  1.
</event>
<event>
11    1  0.8041700E-009  0.1297280E+03  0.7561462E-02  0.1119604E+00
         22   -1    0    0    0    0  0.00000000000E+00  0.00000000000E+00  0.28713946222E+03  0.28713946222E+03  0.00000000000E+00 0.  1.
         22   -1    0    0    0    0 -0.00000000000E+00 -0.00000000000E+00 -0.70385069625E+03  0.70385069625E+03  0.00000000000E+00 0.  1.
         24    2    1    2    0    0  0.26853888889E+02 -0.17113589749E+02 -0.63730611096E+03  0.64277668357E+03  0.77387205459E+02 0.  0.
         25    2    1    2    0    0 -0.15377216007E+02 -0.18622193067E+02  0.17827591327E+02  0.12863289698E+03  0.12508139081E+03 0.  0.
        -24    2    1    2    0    0 -0.11476672883E+02  0.35735782816E+02  0.20276728560E+03  0.21958057792E+03  0.75447318681E+02 0.  0.
        -11    1    3    3    0    0  0.43826264268E+02  0.14618865616E+02 -0.41690206401E+03  0.41945414964E+03  0.00000000000E+00 0.  1.
         12    1    3    3    0    0 -0.16972375378E+02 -0.31732455365E+02 -0.22040404695E+03  0.22332253393E+03  0.00000000000E+00 0. -1.
         11    1    5    5    0    0 -0.25930389363E+02  0.29690199259E+02  0.40349849358E+02  0.56409248955E+02  0.00000000000E+00 0. -1.
        -12    1    5    5    0    0  0.14453716480E+02  0.60455835574E+01  0.16241743624E+03  0.16317132896E+03  0.00000000000E+00 0.  1.
          5    1    4    4  501    0  0.53869408837E+02 -0.19192753283E+02  0.14671387072E+02  0.59186121562E+02  0.41800000000E+01 0. -1.
         -5    1    4    4    0  501 -0.69246624843E+02  0.57056021629E+00  0.31562042553E+01  0.69446775422E+02  0.41800000000E+01 0. -1.
</event>
<event>
11    1  0.8041700E-009  0.1795694E+03  0.7561462E-02  0.1069992E+00
         22   -1    0    0    0    0  0.00000000000E+00  0.00000000000E+00  0.36394161288E+02  0.36394161288E+02  0.00000000000E+00 0.  1.
         22   -1    0    0    0    0 -0.00000000000E+00 -0.00000000000E+00 -0.24403578215E+04  0.24403578215E+04  0.00000000000E+00 0.  1.
         24    2    1    2    0    0  0.15165837254E+03 -0.54753843774E+02 -0.16682067649E+04  0.16779695741E+04  0.81669062536E+02 0.  0.
         25    2    1    2    0    0 -0.54880915925E+02  0.49729876747E+02 -0.58322773534E+03  0.60107181307E+03  0.12509099735E+03 0.  0.
        -24    2    1    2    0    0 -0.96777456618E+02  0.50239670262E+01 -0.15252916003E+03  0.19771059568E+03  0.80207347736E+02 0.  0.
        -11    1    3    3    0    0  0.11328490114E+03 -0.63027688358E+02 -0.14826048294E+04  0.14882617507E+04  0.00000000000E+00 0.  1.
         12    1    3    3    0    0  0.38373471400E+02  0.82738445845E+01 -0.18560193547E+03  0.18970782341E+03  0.00000000000E+00 0. -1.
         11    1    5    5    0    0 -0.15920305439E+02 -0.29392451059E+02 -0.68030340993E+02  0.75799073874E+02  0.00000000000E+00 0. -1.
        -12    1    5    5    0    0 -0.80857151179E+02  0.34416418085E+02 -0.84498819035E+02  0.12191152180E+03  0.00000000000E+00 0.  1.
          5    1    4    4  501    0 -0.85802312018E+02  0.30672719491E+02 -0.25518042919E+03  0.27099331415E+03  0.41800000000E+01 0. -1.
         -5    1    4    4    0  501  0.30921396092E+02  0.19057157256E+02 -0.32804730615E+03  0.33007849892E+03  0.41800000000E+01 0. -1.
</event>
<event>
11    1  0.8041700E-009  0.1746557E+03  0.7561462E-02  0.1074050E+00
         22   -1    0    0    0    0  0.00000000000E+00  0.00000000000E+00  0.13051206161E+04  0.13051206161E+04  0.00000000000E+00 0. -1.
         22   -1    0    0    0    0 -0.00000000000E+00 -0.00000000000E+00 -0.35927387215E+03  0.35927387215E+03  0.00000000000E+00 0.  1.
         24    2    1    2    0    0 -0.12038210271E+03 -0.19640368197E+02 -0.31139154279E+03  0.34380404669E+03  0.79742930000E+02 0.  0.
         25    2    1    2    0    0  0.11169884156E+03  0.60221456511E+02  0.23671347724E+03  0.29628759518E+03  0.12509921551E+03 0.  0.
        -24    2    1    2    0    0  0.86832611562E+01 -0.40581088314E+02  0.10205248095E+04  0.10243028464E+04  0.77480388021E+02 0.  0.
        -13    1    3    3    0    0 -0.12400316609E+03 -0.17053333541E+01 -0.29146432630E+03  0.31675092244E+03  0.00000000000E+00 0.  1.
         14    1    3    3    0    0  0.36210633766E+01 -0.17935034842E+02 -0.19927216494E+02  0.27053124255E+02  0.00000000000E+00 0. -1.
         11    1    5    5    0    0 -0.13169013628E+02 -0.58166839251E+02  0.66052771332E+03  0.66321464411E+03  0.00000000000E+00 0. -1.
        -12    1    5    5    0    0  0.21852274784E+02  0.17585750937E+02  0.35999709618E+03  0.36108820225E+03  0.00000000000E+00 0.  1.
          5    1    4    4  501    0  0.76170065382E+02  0.20913221815E+02  0.32918360746E+02  0.85675740914E+02  0.41800000000E+01 0.  1.
         -5    1    4    4    0  501  0.35528776174E+02  0.39308234696E+02  0.20379511649E+03  0.21061185426E+03  0.41800000000E+01 0.  1.
</event>
<event>
11    1  0.8041700E-009  0.1765393E+03  0.7561462E-02  0.1072477E+00
         22   -1    0    0    0    0  0.00000000000E+00  0.00000000000E+00  0.10165143438E+04  0.10165143438E+04  0.00000000000E+00 0. -1.
         22   -1    0    0    0    0 -0.00000000000E+00 -0.00000000000E+00 -0.19018908136E+04  0.19018908136E+04  0.00000000000E+00 0.  1.
         24    2    1    2    0    0  0.84062212202E+02  0.94091968504E+02 -0.17093146563E+04  0.17173535101E+04  0.10782731840E+03 0.  0.
         25    2    1    2    0    0 -0.67157335509E+02 -0.87193168166E+02 -0.14965665182E+03  0.22395824825E+03  0.12508967678E+03 0.  0.
        -24    2    1    2    0    0 -0.16904876694E+02 -0.68988003383E+01  0.97359483826E+03  0.97709339896E+03  0.80568187836E+02 0.  0.
        -13    1    3    3    0    0  0.92690232623E+02  0.98000671503E+02 -0.16938913525E+04  0.16992538142E+04  0.00000000000E+00 0.  1.
         14    1    3    3    0    0 -0.86280204203E+01 -0.39087029990E+01 -0.15423303742E+02  0.18099695960E+02  0.00000000000E+00 0. -1.
         13    1    5    5    0    0 -0.16243427327E+01 -0.33967736607E+02  0.80101618255E+03  0.80173771916E+03  0.00000000000E+00 0. -1.
        -14    1    5    5    0    0 -0.15280533961E+02  0.27068936269E+02  0.17257865571E+03  0.17535567979E+03  0.00000000000E+00 0.  1.
          5    1    4    4  501    0  0.11850202150E+02  0.24041655363E+02 -0.42502735185E+02  0.50422052535E+02  0.41800000000E+01 0.  1.
         -5    1    4    4    0  501 -0.79007537658E+02 -0.11123482353E+03 -0.10715391663E+03  0.17353619571E+03  0.41800000000E+01 0.  1.
</event>
<event>
11    1  0.8041700E-009  0.1460029E+03  0.7561462E-02  0.1101034E+00
         22   -1    0    0    0    0  0.00000000000E+00  0.00000000000E+00  0.28810015427E+03  0.28810015427E+03  0.00000000000E+00 0. -1.
         22   -1    0    0    0    0 -0.00000000000E+00 -0.00000000000E+00 -0.28045336508E+03  0.28045336508E+03  0.00000000000E+00 0. -1.
         24    2    1    2    0    0  0.40293088460E+02  0.69726410981E+02 -0.16298689273E+03  0.19972562357E+03  0.82706058682E+02 0.  0.
         25    2    1    2    0    0  0.11187690136E+02 -0.70420763718E+02 -0.29564095915E+02  0.14698596032E+03  0.12508632375E+03 0.  0.
        -24    2    1    2    0    0 -0.51480778595E+02  0.69435273710E+00  0.20019777783E+03  0.22184193546E+03  0.80522924616E+02 0.  0.
        -11    1    3    3    0    0  0.20101980806E+02  0.60626046866E+02 -0.41348565844E+02  0.76087522553E+02  0.00000000000E+00 0.  1.
         12    1    3    3    0    0  0.20191107654E+02  0.91003641144E+01 -0.12163832689E+03  0.12363810102E+03  0.00000000000E+00 0. -1.
         11    1    5    5    0    0 -0.54006714397E+02  0.71860268149E+01  0.20580828705E+03  0.21289766368E+03  0.00000000000E+00 0. -1.
        -12    1    5    5    0    0  0.25259358012E+01 -0.64916740778E+01 -0.56105092176E+01  0.89442717806E+01  0.00000000000E+00 0.  1.
          5    1    4    4  501    0  0.12354941672E+02  0.12858661219E+02 -0.56465603940E+02  0.59361827636E+02  0.41800000000E+01 0. -1.
         -5    1    4    4    0  501 -0.11672515364E+01 -0.83279424936E+02  0.26901508025E+02  0.87624132680E+02  0.41800000000E+01 0. -1.
</event>
<event>
11    1  0.8041700E-009  0.1368900E+03  0.7561462E-02  0.1111082E+00
         22   -1    0    0    0    0  0.00000000000E+00  0.00000000000E+00  0.45211652522E+03  0.45211652522E+03  0.00000000000E+00 0.  1.
         22   -1    0    0    0    0 -0.00000000000E+00 -0.00000000000E+00 -0.37962636053E+03  0.37962636053E+03  0.00000000000E+00 0. -1.
         24    2    1    2    0    0  0.35737282815E+02 -0.11646794137E+02 -0.16681281329E+03  0.18830086447E+03  0.78853659944E+02 0.  0.
         25    2    1    2    0    0  0.20555787268E+02  0.53663111597E+01 -0.17579706599E+03  0.21680486428E+03  0.12509357729E+03 0.  0.
        -24    2    1    2    0    0 -0.56293070083E+02  0.62804829776E+01  0.41510004396E+03  0.42663715700E+03  0.80640331266E+02 0.  0.
        -13    1    3    3    0    0  0.14220429068E+02  0.93973250092E+01  0.16925383635E+01  0.17128777140E+02  0.00000000000E+00 0.  1.
         14    1    3    3    0    0  0.21516853747E+02 -0.21044119146E+02 -0.16850535165E+03  0.17117208733E+03  0.00000000000E+00 0. -1.
         13    1    5    5    0    0 -0.48000988966E+02  0.38417668110E+02  0.32152471931E+03  0.32735020588E+03  0.00000000000E+00 0. -1.
        -14    1    5    5    0    0 -0.82920811170E+01 -0.32137185132E+02  0.93575324652E+02  0.99286951112E+02  0.00000000000E+00 0.  1.
          5    1    4    4  501    0  0.56271684953E+02  0.13376430101E+02 -0.27834323792E+02  0.64324593980E+02  0.41800000000E+01 0. -1.
         -5    1    4    4    0  501 -0.35715897685E+02 -0.80101189412E+01 -0.14796274220E+03  0.15248027030E+03  0.41800000000E+01 0. -1.
</event>
<event>
11    1  0.8041700E-009  0.1379124E+03  0.7561462E-02  0.1109912E+00
         22   -1    0    0    0    0  0.00000000000E+00  0.00000000000E+00  0.17185818560E+03  0.17185818560E+03  0.00000000000E+00 0.  1.
         22   -1    0    0    0    0 -0.00000000000E+00 -0.00000000000E+00 -0.29909363763E+03  0.29909363763E+03  0.00000000000E+00 0.  1.
         24    2    1    2    0    0 -0.18243871786E+01  0.56027625598E+02 -0.19711413499E+03  0.22045867560E+03  0.81274979014E+02 0.  0.
         25    2    1    2    0    0  0.25712755534E+02 -0.76600390939E+02  0.66536529597E+02  0.16310749700E+03  0.12509268611E+03 0.  0.
        -24    2    1    2    0    0 -0.23888368355E+02  0.20572765341E+02  0.33421533642E+01  0.87385650633E+02  0.81432113635E+02 0.  0.
        -11    1    3    3    0    0  0.38398258713E+02  0.39949177951E+02 -0.10962484382E+03  0.12283309601E+03  0.00000000000E+00 0.  1.
         12    1    3    3    0    0 -0.40222645892E+02  0.16078447647E+02 -0.87489291168E+02  0.97625579591E+02  0.00000000000E+00 0. -1.
         13    1    5    5    0    0 -0.85463092115E+01 -0.31410352520E+02 -0.35674093984E+01  0.32747153409E+02  0.00000000000E+00 0. -1.
        -14    1    5    5    0    0 -0.15342059144E+02  0.51983117861E+02  0.69095627625E+01  0.54638497224E+02  0.00000000000E+00 0.  1.
          5    1    4    4  501    0 -0.68536871981E+01  0.18041425378E+01  0.77022998514E+02  0.77461233263E+02  0.41800000000E+01 0. -1.
         -5    1    4    4    0  501  0.32566442732E+02 -0.78404533477E+02 -0.10486468917E+02  0.85646263738E+02  0.41800000000E+01 0. -1.
</event>
<event>
11    1  0.8041700E-009  0.1499390E+03  0.7561462E-02  0.1096941E+00
         22   -1    0    0    0    0  0.00000000000E+00  0.00000000000E+00  0.17151177832E+04  0.17151177832E+04  0.00000000000E+00 0.  1.
         22   -1    0    0    0    0 -0.00000000000E+00 -0.00000000000E+00 -0.86281612392E+03  0.86281612392E+03  0.00000000000E+00 0.  1.
        -24    2    1    2    0    0  0.54902270287E+02  0.62344565647E+02 -0.83987544357E+03  0.84773949312E+03  0.79814681166E+02 0.  0.
         25    2    1    2    0    0 -0.69005457550E+02 -0.94352166897E+01  0.27835490274E+03  0.31301527930E+03  0.12508531772E+03 0.  0.
         24    2    1    2    0    0  0.14103187263E+02 -0.52909348957E+02  0.14138222001E+04  0.14171791347E+04  0.80654740763E+02 0.  0.
        -11    1    5    5    0    0  0.18114122630E+02 -0.54309774139E+02  0.14108102189E+04  0.14119713689E+04  0.00000000000E+00 0.  1.
         12    1    5    5    0    0 -0.40109353674E+01  0.14004251812E+01  0.30119812094E+01  0.52077657412E+01  0.00000000000E+00 0. -1.
         11    1    3    3    0    0  0.67438313449E+01  0.19310850207E+02 -0.37056805358E+02  0.42327237333E+02  0.00000000000E+00 0. -1.
        -12    1    3    3    0    0  0.48158438942E+02  0.43033715441E+02 -0.80281863821E+03  0.80541225578E+03  0.00000000000E+00 0.  1.
          5    1    4    4  501    0 -0.15985150811E+01  0.40335521059E+02  0.28874858416E+02  0.49807021173E+02  0.41800000000E+01 0. -1.
         -5    1    4    4    0  501 -0.67406942469E+02 -0.49770737748E+02  0.24948004432E+03  0.26320825813E+03  0.41800000000E+01 0. -1.
</event>
<event>
11    1  0.8041700E-009  0.1919973E+03  0.7561462E-02  0.1060332E+00
         22   -1    0    0    0    0  0.00000000000E+00  0.00000000000E+00  0.11605706114E+04  0.11605706114E+04  0.00000000000E+00 0. -1.
         22   -1    0    0    0    0 -0.00000000000E+00 -0.00000000000E+00 -0.11332612608E+04  0.11332612608E+04  0.00000000000E+00 0. -1.
         24    2    1    2    0    0 -0.10661059048E+03  0.95288417475E+02 -0.96720962897E+03  0.98098733237E+03  0.79974867255E+02 0.  0.
         25    2    1    2    0    0  0.22539766575E+03 -0.25019582793E+02 -0.43440596186E+02  0.26260577409E+03  0.12507845513E+03 0.  0.
        -24    2    1    2    0    0 -0.11878707527E+03 -0.70268834682E+02  0.10379595757E+04  0.10502387658E+04  0.81199174548E+02 0.  0.
        -13    1    3    3    0    0 -0.31025236929E+02  0.53080742062E+02 -0.20912794131E+03  0.21797849972E+03  0.00000000000E+00 0.  1.
         14    1    3    3    0    0 -0.75585353554E+02  0.42207675413E+02 -0.75808168766E+03  0.76300883265E+03  0.00000000000E+00 0. -1.
         13    1    5    5    0    0 -0.25910959475E+02  0.13642105155E+02  0.33024197787E+03  0.33153770344E+03  0.00000000000E+00 0. -1.
        -14    1    5    5    0    0 -0.92876115794E+02 -0.83910939837E+02  0.70771759788E+03  0.71870106237E+03  0.00000000000E+00 0.  1.
          5    1    4    4  501    0  0.10022365342E+03  0.10457794178E+02  0.39436165370E+02  0.10829048759E+03  0.41800000000E+01 0. -1.
         -5    1    4    4    0  501  0.12517401234E+03 -0.35477376970E+02 -0.82876761555E+02  0.15431528650E+03  0.41800000000E+01 0. -1.
</event>
<event>
11    1  0.8041700E-009  0.1375527E+03  0.7561462E-02  0.1110322E+00
         22   -1    0    0    0    0  0.00000000000E+00  0.00000000000E+00  0.21977270115E+03  0.21977270115E+03  0.00000000000E+00 0. -1.
         22   -1    0    0    0    0 -0.00000000000E+00 -0.00000000000E+00 -0.24885425997E+03  0.24885425997E+03  0.00000000000E+00 0. -1.
         24    2    1    2    0    0  0.38314795507E+02  0.29865575817E+02 -0.54041531018E+02  0.10835833939E+03  0.80380759311E+02 0.  0.
         25    2    1    2    0    0 -0.43028084830E+02 -0.53060803480E+02 -0.12467585712E+03  0.18936143155E+03  0.12508723939E+03 0.  0.
        -24    2    1    2    0    0  0.47132893235E+01  0.23195227663E+02  0.14963582932E+03  0.17090719019E+03  0.79108486017E+02 0.  0.
        -11    1    3    3    0    0  0.42179634803E+02  0.28359616584E+02  0.32368038147E+01  0.50930014175E+02  0.00000000000E+00 0.  1.
         12    1    3    3    0    0 -0.38648392964E+01  0.15059592325E+01 -0.57278334832E+02  0.57428325216E+02  0.00000000000E+00 0. -1.
         11    1    5    5    0    0 -0.13233307241E+02  0.41378167138E+02  0.42525677269E+02  0.60792321582E+02  0.00000000000E+00 0. -1.
        -12    1    5    5    0    0  0.17946596564E+02 -0.18182939475E+02  0.10711015205E+03  0.11011486861E+03  0.00000000000E+00 0.  1.
          5    1    4    4  501    0 -0.54642896888E+02 -0.87194504475E+02 -0.73095754690E+02  0.12629010074E+03  0.41800000000E+01 0. -1.
         -5    1    4    4    0  501  0.11614812058E+02  0.34133700995E+02 -0.51580102434E+02  0.63071330807E+02  0.41800000000E+01 0. -1.
</event>
<event>
11    1  0.8041700E-009  0.1433939E+03  0.7561462E-02  0.1103827E+00
         22   -1    0    0    0    0  0.00000000000E+00  0.00000000000E+00  0.68411732481E+02  0.68411732481E+02  0.00000000000E+00 0. -1.
         22   -1    0    0    0    0 -0.00000000000E+00 -0.00000000000E+00 -0.19573606159E+04  0.19573606159E+04  0.00000000000E+00 0. -1.
         24    2    1    2    0    0 -0.94750792309E+01  0.24013505232E+02 -0.15449048243E+04  0.15472172308E+04  0.80522155927E+02 0.  0.
         25    2    1    2    0    0 -0.23066924543E+02 -0.83464292496E+02 -0.33837356566E+03  0.37100232517E+03  0.12509070395E+03 0.  0.
        -24    2    1    2    0    0  0.32542003774E+02  0.59450787264E+02 -0.56704934209E+01  0.10755279237E+03  0.83319088655E+02 0.  0.
        -11    1    3    3    0    0 -0.14109265822E+02 -0.28335085357E+02 -0.51397893788E+03  0.51495271339E+03  0.00000000000E+00 0.  1.
         12    1    3    3    0    0  0.46341865910E+01  0.52348590589E+02 -0.10309258865E+04  0.10322645175E+04  0.00000000000E+00 0. -1.
         11    1    5    5    0    0  0.64893779879E+01  0.71435142724E+02  0.13593808966E+02  0.73006049646E+02  0.00000000000E+00 0. -1.
        -12    1    5    5    0    0  0.26052625786E+02 -0.11984355461E+02 -0.19264302386E+02  0.34546742721E+02  0.00000000000E+00 0.  1.
          5    1    4    4  501    0  0.10480023704E+01 -0.10529641277E+03 -0.17429326598E+03  0.20367633102E+03  0.41800000000E+01 0. -1.
         -5    1    4    4    0  501 -0.24114926914E+02  0.21832120274E+02 -0.16408029968E+03  0.16732599415E+03  0.41800000000E+01 0. -1.
</event>
<event>
11    1  0.8041700E-009  0.1458178E+03  0.7561462E-02  0.1101230E+00
         22   -1    0    0    0    0  0.00000000000E+00  0.00000000000E+00  0.74430201489E+03  0.74430201489E+03  0.00000000000E+00 0.  1.
         22   -1    0    0    0    0 -0.00000000000E+00 -0.00000000000E+00 -0.13109313066E+03  0.13109313066E+03  0.00000000000E+00 0. -1.
         24    2    1    2    0    0  0.70527618228E+01  0.70216445711E+02 -0.65661257932E+02  0.12409377768E+03  0.78152249917E+02 0.  0.
         25    2    1    2    0    0 -0.15936931051E+02 -0.10617199016E+03  0.18523077659E+03  0.24796219769E+03  0.12509329967E+03 0.  0.
        -24    2    1    2    0    0  0.88841692277E+01  0.35955544450E+02  0.49363936557E+03  0.50333917018E+03  0.91097570541E+02 0.  0.
        -13    1    3    3    0    0 -0.34677077923E+02  0.24088620890E+02 -0.18821812825E+02  0.46227935577E+02  0.00000000000E+00 0.  1.
         14    1    3    3    0    0  0.41729839746E+02  0.46127824821E+02 -0.46839445107E+02  0.77865842099E+02  0.00000000000E+00 0. -1.
         11    1    5    5    0    0 -0.16147899501E+02  0.60344409786E+02  0.28222876214E+03  0.28905929604E+03  0.00000000000E+00 0. -1.
        -12    1    5    5    0    0  0.25032068729E+02 -0.24388865336E+02  0.21141060344E+03  0.21427987415E+03  0.00000000000E+00 0.  1.
          5    1    4    4  501    0  0.33968098350E+02 -0.97508157850E+02  0.16182856431E+03  0.19200945076E+03  0.41800000000E+01 0.  1.
         -5    1    4    4    0  501 -0.49905029401E+02 -0.86638323107E+01  0.23402212278E+02  0.55952746933E+02  0.41800000000E+01 0.  1.
</event>
<event>
11    1  0.8041700E-009  0.1496351E+03  0.7561462E-02  0.1097252E+00
         22   -1    0    0    0    0  0.00000000000E+00  0.00000000000E+00  0.94327860237E+03  0.94327860237E+03  0.00000000000E+00 0.  1.
         22   -1    0    0    0    0 -0.00000000000E+00 -0.00000000000E+00 -0.18632054408E+03  0.18632054408E+03  0.00000000000E+00 0. -1.
         24    2    1    2    0    0  0.95068981416E+01  0.47300695767E+02 -0.10997475429E+03  0.14518711070E+03  0.81591136776E+02 0.  0.
         25    2    1    2    0    0 -0.30590215006E+02 -0.12349703752E+03  0.89672924627E+02  0.19968996595E+03  0.12509024566E+03 0.  0.
        -24    2    1    2    0    0  0.21083316864E+02  0.76196341755E+02  0.77725988795E+03  0.78472206980E+03  0.73521457168E+02 0.  0.
        -11    1    3    3    0    0  0.26302275094E+01 -0.13916717471E+02  0.47759150028E+01  0.14946654677E+02  0.00000000000E+00 0.  1.
         12    1    3    3    0    0  0.68766706322E+01  0.61217413238E+02 -0.11475066929E+03  0.13024045602E+03  0.00000000000E+00 0. -1.
         13    1    5    5    0    0 -0.33560805740E+01  0.81262480738E+02  0.64706440550E+03  0.65215580878E+03  0.00000000000E+00 0. -1.
        -14    1    5    5    0    0  0.24439397439E+02 -0.50661389828E+01  0.13019548245E+03  0.13256626102E+03  0.00000000000E+00 0.  1.
          5    1    4    4  501    0 -0.19731059118E+02  0.22860580071E+02  0.24246739253E+02  0.38952504149E+02  0.41800000000E+01 0.  1.
         -5    1    4    4    0  501 -0.10859155888E+02 -0.14635761759E+03  0.65426185374E+02  0.16073746180E+03  0.41800000000E+01 0.  1.
</event>
<event>
11    1  0.8041700E-009  0.1383931E+03  0.7561462E-02  0.1109366E+00
         22   -1    0    0    0    0  0.00000000000E+00  0.00000000000E+00  0.99978447611E+03  0.99978447611E+03  0.00000000000E+00 0. -1.
         22   -1    0    0    0    0 -0.00000000000E+00 -0.00000000000E+00 -0.22747310597E+03  0.22747310597E+03  0.00000000000E+00 0.  1.
        -24    2    1    2    0    0  0.46096735250E+02  0.24743389635E+02 -0.17206410903E+03  0.19665647333E+03  0.79564857540E+02 0.  0.
         25    2    1    2    0    0 -0.74000573126E+02 -0.73457570368E+02  0.12499565303E+03  0.20528208633E+03  0.12507886402E+03 0.  0.
         24    2    1    2    0    0  0.27903837876E+02  0.48714180734E+02  0.81937982613E+03  0.82531902242E+03  0.81341832585E+02 0.  0.
        -13    1    5    5    0    0  0.17923686184E+02 -0.19857792069E+02  0.32617588291E+03  0.32727098409E+03  0.00000000000E+00 0.  1.
         14    1    5    5    0    0  0.99801516922E+01  0.68571972803E+02  0.49320394322E+03  0.49804803833E+03  0.00000000000E+00 0. -1.
         13    1    3    3    0    0  0.23750018177E+02 -0.28277112655E+02 -0.79660068444E+02  0.87803103408E+02  0.00000000000E+00 0. -1.
        -14    1    3    3    0    0  0.22346717073E+02  0.53020502290E+02 -0.92404040583E+02  0.10885336992E+03  0.00000000000E+00 0.  1.
          5    1    4    4  501    0 -0.16049485890E+01 -0.26579274872E+02 -0.22005616183E+02  0.34795879875E+02  0.41800000000E+01 0.  1.
         -5    1    4    4    0  501 -0.72395624537E+02 -0.46878295496E+02  0.14700126921E+03  0.17048620645E+03  0.41800000000E+01 0.  1.
</event>
<event>
11    1  0.8041700E-009  0.1560877E+03  0.7561462E-02  0.1090816E+00
         22   -1    0    0    0    0  0.00000000000E+00  0.00000000000E+00  0.15697198409E+04  0.15697198409E+04  0.00000000000E+00 0.  1.
         22   -1    0    0    0    0 -0.00000000000E+00 -0.00000000000E+00 -0.98612585205E+02  0.98612585205E+02  0.00000000000E+00 0. -1.
         24    2    1    2    0    0  0.39924568898E+02  0.31554970482E+02 -0.35716347260E+02  0.98803615518E+02  0.76790687027E+02 0.  0.
         25    2    1    2    0    0 -0.23761309537E+02 -0.12115777203E+03  0.24295886391E+03  0.29986787686E+03  0.12509168023E+03 0.  0.
        -24    2    1    2    0    0 -0.16163259361E+02  0.89602801545E+02  0.12638647391E+04  0.12696609338E+04  0.79968087715E+02 0.  0.
        -11    1    3    3    0    0  0.48207028441E+02  0.16937915897E+02  0.82306473080E+01  0.51754749938E+02  0.00000000000E+00 0.  1.
         12    1    3    3    0    0 -0.82824595432E+01  0.14617054584E+02 -0.43946994568E+02  0.47048865580E+02  0.00000000000E+00 0. -1.
         11    1    5    5    0    0 -0.26489135374E+01 -0.87026741148E+01  0.40195297841E+03  0.40205590424E+03  0.00000000000E+00 0. -1.
        -12    1    5    5    0    0 -0.13514345824E+02  0.98305475660E+02  0.86191176067E+03  0.86760502953E+03  0.00000000000E+00 0.  1.
          5    1    4    4  501    0 -0.37570352481E+02 -0.12028057229E+03  0.25272091608E+03  0.28242570931E+03  0.41800000000E+01 0.  1.
         -5    1    4    4    0  501  0.13809042944E+02 -0.87719974119E+00 -0.97620521623E+01  0.17442167550E+02  0.41800000000E+01 0.  1.
</event>
<event>
11    1  0.8041700E-009  0.1382646E+03  0.7561462E-02  0.1109512E+00
         22   -1    0    0    0    0  0.00000000000E+00  0.00000000000E+00  0.71301099110E+03  0.71301099110E+03  0.00000000000E+00 0. -1.
         22   -1    0    0    0    0 -0.00000000000E+00 -0.00000000000E+00 -0.17620496235E+03  0.17620496235E+03  0.00000000000E+00 0.  1.
        -24    2    1    2    0    0  0.37595285262E+02 -0.27625177292E+02 -0.11983023618E+03  0.15250637772E+03  0.81989961875E+02 0.  0.
         25    2    1    2    0    0 -0.55321393508E+02 -0.30166933894E+02  0.10297077749E+03  0.17384320596E+03  0.12509188127E+03 0.  0.
         24    2    1    2    0    0  0.17726108246E+02  0.57792111186E+02  0.55366548743E+03  0.56286636978E+03  0.81356838836E+02 0.  0.
        -11    1    5    5    0    0 -0.53869843255E+01 -0.84561267880E+01  0.83285676356E+01  0.13034213411E+02  0.00000000000E+00 0.  1.
         12    1    5    5    0    0  0.23113092572E+02  0.66248237974E+02  0.54533691980E+03  0.54983215637E+03  0.00000000000E+00 0. -1.
         13    1    3    3    0    0 -0.97028077139E+01 -0.19228098139E+02  0.19190221157E+01  0.21622832411E+02  0.00000000000E+00 0. -1.
        -14    1    3    3    0    0  0.47298092976E+02 -0.83970791533E+01 -0.12174925829E+03  0.13088354531E+03  0.00000000000E+00 0.  1.
          5    1    4    4  501    0  0.64628033141E+01  0.70794353036E+01  0.10101306302E+03  0.10155292970E+03  0.41800000000E+01 0.  1.
         -5    1    4    4    0  501 -0.61784196822E+02 -0.37246369197E+02  0.19577144784E+01  0.72290276257E+02  0.41800000000E+01 0.  1.
</event>
<event>
11    1  0.8041700E-009  0.1401755E+03  0.7561462E-02  0.1107363E+00
         22   -1    0    0    0    0  0.00000000000E+00  0.00000000000E+00  0.42090783177E+03  0.42090783177E+03  0.00000000000E+00 0. -1.
         22   -1    0    0    0    0 -0.00000000000E+00 -0.00000000000E+00 -0.49003048662E+03  0.49003048662E+03  0.00000000000E+00 0. -1.
         24    2    1    2    0    0 -0.32175416529E+02 -0.54777834332E+02 -0.37509109847E+03  0.38867321232E+03  0.79609454604E+02 0.  0.
         25    2    1    2    0    0  0.30829514637E+02  0.53095832652E+02 -0.56960942760E+02  0.15053819108E+03  0.12509025364E+03 0.  0.
        -24    2    1    2    0    0  0.13459018926E+01  0.16820016801E+01  0.36292938638E+03  0.37172691500E+03  0.80364913063E+02 0.  0.
        -13    1    3    3    0    0 -0.37182338524E+02 -0.37483523298E+01 -0.70459874824E+02  0.79756945801E+02  0.00000000000E+00 0.  1.
         14    1    3    3    0    0  0.50069219944E+01 -0.51029482002E+02 -0.30463122365E+03  0.30891626652E+03  0.00000000000E+00 0. -1.
         13    1    5    5    0    0 -0.84598135318E+01 -0.23434013717E+02  0.32042508481E+03  0.32139221587E+03  0.00000000000E+00 0. -1.
        -14    1    5    5    0    0  0.98057154245E+01  0.25116015397E+02  0.42504301573E+02  0.50334699131E+02  0.00000000000E+00 0.  1.
          5    1    4    4  501    0  0.59167433783E+01 -0.43562609292E+01  0.36773742035E+02  0.37732815489E+02  0.41800000000E+01 0. -1.
         -5    1    4    4    0  501  0.24912771258E+02  0.57452093581E+02 -0.93734684795E+02  0.11280537559E+03  0.41800000000E+01 0. -1.
</event>
<event>
11    1  0.8041700E-009  0.1290493E+03  0.7561462E-02  0.1120443E+00
         22   -1    0    0    0    0  0.00000000000E+00  0.00000000000E+00  0.49482530508E+02  0.49482530508E+02  0.00000000000E+00 0. -1.
         22   -1    0    0    0    0 -0.00000000000E+00 -0.00000000000E+00 -0.13633523438E+04  0.13633523438E+04  0.00000000000E+00 0. -1.
         24    2    1    2    0    0 -0.23826426333E+02  0.21251401080E+02 -0.11262537062E+04  0.11294233182E+04  0.78296234652E+02 0.  0.
         25    2    1    2    0    0  0.26991308663E+02 -0.13311845529E+02 -0.14757417971E+03  0.19577924574E+03  0.12508252704E+03 0.  0.
        -24    2    1    2    0    0 -0.31648823298E+01 -0.79395555505E+01 -0.40041927328E+02  0.87632310295E+02  0.77479112289E+02 0.  0.
        -13    1    3    3    0    0 -0.22969382957E+02 -0.22769113985E+02 -0.25278004398E+03  0.25484068698E+03  0.00000000000E+00 0.  1.
         14    1    3    3    0    0 -0.85704337601E+00  0.44020515065E+02 -0.87347366225E+03  0.87458263127E+03  0.00000000000E+00 0. -1.
         13    1    5    5    0    0 -0.26244022946E+02  0.21627427241E+02 -0.17824509060E+01  0.34053949560E+02  0.00000000000E+00 0. -1.
        -14    1    5    5    0    0  0.23079140616E+02 -0.29566982791E+02 -0.38259476422E+02  0.53578360735E+02  0.00000000000E+00 0.  1.
          5    1    4    4  501    0 -0.38887229501E+02 -0.16821325136E+02 -0.10884735147E+02  0.43944549796E+02  0.41800000000E+01 0. -1.
         -5    1    4    4    0  501  0.65878538164E+02  0.35094796064E+01 -0.13668944456E+03  0.15183469594E+03  0.41800000000E+01 0. -1.
</event>
<event>
11    1  0.8041700E-009  0.1463951E+03  0.7561462E-02  0.1100620E+00
         22   -1    0    0    0    0  0.00000000000E+00  0.00000000000E+00  0.48115027019E+03  0.48115027019E+03  0.00000000000E+00 0.  1.
         22   -1    0    0    0    0 -0.00000000000E+00 -0.00000000000E+00 -0.58921544543E+03  0.58921544543E+03  0.00000000000E+00 0.  1.
         24    2    1    2    0    0 -0.17469846723E+02  0.72909812983E+02 -0.47145250841E+03  0.48408107771E+03  0.80286896423E+02 0.  0.
         25    2    1    2    0    0  0.33044410237E+02 -0.79584662228E+02 -0.53887477166E+02  0.16117385817E+03  0.12508997103E+03 0.  0.
        -24    2    1    2    0    0 -0.15574563514E+02  0.66748492444E+01  0.41727481033E+03  0.42511077974E+03  0.79459342297E+02 0.  0.
        -11    1    3    3    0    0 -0.26888325276E+02  0.62650352923E+02 -0.46255967798E+03  0.46755695316E+03  0.00000000000E+00 0.  1.
         12    1    3    3    0    0  0.94184785526E+01  0.10259460061E+02 -0.88928304278E+01  0.16524124546E+02  0.00000000000E+00 0. -1.
         11    1    5    5    0    0  0.19099852299E+02 -0.73160692743E+01  0.31689186809E+02  0.37716492255E+02  0.00000000000E+00 0. -1.
        -12    1    5    5    0    0 -0.34674415813E+02  0.13990918519E+02  0.38558562352E+03  0.38739428749E+03  0.00000000000E+00 0.  1.
          5    1    4    4  501    0 -0.23647675454E+02 -0.90383326697E+02 -0.26790730300E+02  0.97280902181E+02  0.41800000000E+01 0.  1.
         -5    1    4    4    0  501  0.56692085691E+02  0.10798664469E+02 -0.27096746867E+02  0.63892955990E+02  0.41800000000E+01 0.  1.
</event>
<event>
11    1  0.8041700E-009  0.1376803E+03  0.7561462E-02  0.1110177E+00
         22   -1    0    0    0    0  0.00000000000E+00  0.00000000000E+00  0.71650353765E+02  0.71650353765E+02  0.00000000000E+00 0.  1.
         22   -1    0    0    0    0 -0.00000000000E+00 -0.00000000000E+00 -0.46969748439E+03  0.46969748439E+03  0.00000000000E+00 0. -1.
         24    2    1    2    0    0  0.44652071593E+01  0.30901103838E+02 -0.56887577982E+02  0.10430210773E+03  0.81657313544E+02 0.  0.
         25    2    1    2    0    0  0.11055359943E+01 -0.67338015052E+02 -0.31376271186E+03  0.34442850675E+03  0.12509327092E+03 0.  0.
        -24    2    1    2    0    0 -0.55707431536E+01  0.36436911214E+02 -0.27396840782E+02  0.92617223670E+02  0.80428114223E+02 0.  0.
        -11    1    3    3    0    0  0.61872155603E+01  0.19799564671E+02  0.18673381084E+02  0.27910563567E+02  0.00000000000E+00 0.  1.
         12    1    3    3    0    0 -0.17220084010E+01  0.11101539167E+02 -0.75560959066E+02  0.76391544164E+02  0.00000000000E+00 0. -1.
         11    1    5    5    0    0 -0.13195162876E+02  0.12022167833E+02 -0.53302645851E+02  0.56212248643E+02  0.00000000000E+00 0. -1.
        -12    1    5    5    0    0  0.76244197228E+01  0.24414743381E+02  0.25905805070E+02  0.36404975028E+02  0.00000000000E+00 0.  1.
          5    1    4    4  501    0 -0.18192456784E+02  0.19039650704E+02 -0.10788368530E+02  0.28763433006E+02  0.41800000000E+01 0. -1.
         -5    1    4    4    0  501  0.19297992778E+02 -0.86377665756E+02 -0.30297434333E+03  0.31566507374E+03  0.41800000000E+01 0. -1.
</event>
<event>
11    1  0.8041700E-009  0.1743360E+03  0.7561462E-02  0.1074319E+00
         22   -1    0    0    0    0  0.00000000000E+00  0.00000000000E+00  0.83380588969E+03  0.83380588969E+03  0.00000000000E+00 0.  1.
         22   -1    0    0    0    0 -0.00000000000E+00 -0.00000000000E+00 -0.99882976152E+03  0.99882976152E+03  0.00000000000E+00 0.  1.
        -24    2    1    2    0    0 -0.78484039480E+02  0.76976319690E+02 -0.66426006160E+03  0.67824243519E+03  0.81769635032E+02 0.  0.
         25    2    1    2    0    0  0.14446941841E+03 -0.11694226180E+03 -0.28460700308E+03  0.36221078568E+03  0.12509437082E+03 0.  0.
         24    2    1    2    0    0 -0.65985378928E+02  0.39965942108E+02  0.78384319285E+03  0.79218243035E+03  0.84802742992E+02 0.  0.
        -13    1    5    5    0    0 -0.43089131919E+02  0.14909373107E+02  0.70333957398E+03  0.70481594691E+03  0.00000000000E+00 0.  1.
         14    1    5    5    0    0 -0.22896247009E+02  0.25056569001E+02  0.80503618867E+02  0.87366483435E+02  0.00000000000E+00 0. -1.
         11    1    3    3    0    0  0.92243396505E+01  0.38955247946E+02 -0.24270417321E+03  0.24598356750E+03  0.00000000000E+00 0. -1.
        -12    1    3    3    0    0 -0.87708379130E+02  0.38021071744E+02 -0.42155588839E+03  0.43225886769E+03  0.00000000000E+00 0.  1.
          5    1    4    4  501    0  0.98065062281E+02 -0.39480426930E+02 -0.63623827341E+02  0.12345413868E+03  0.41800000000E+01 0. -1.
         -5    1    4    4    0  501  0.46404356126E+02 -0.77461834868E+02 -0.22098317574E+03  0.23875664700E+03  0.41800000000E+01 0. -1.
</event>
<event>
11    1  0.8041700E-009  0.2767007E+03  0.7561462E-02  0.1010564E+00
         22   -1    0    0    0    0  0.00000000000E+00  0.00000000000E+00  0.17278082287E+04  0.17278082287E+04  0.00000000000E+00 0. -1.
         22   -1    0    0    0    0 -0.00000000000E+00 -0.00000000000E+00 -0.36910647351E+03  0.36910647351E+03  0.00000000000E+00 0. -1.
        -24    2    1    2    0    0 -0.24790499548E+02  0.73461576616E+02 -0.30969667907E+03  0.32891278094E+03  0.79122767471E+02 0.  0.
         25    2    1    2    0    0  0.46742416374E+02 -0.29597358850E+03  0.72876440286E+03  0.79782826895E+03  0.12508866171E+03 0.  0.
         24    2    1    2    0    0 -0.21951916826E+02  0.22251201189E+03  0.93963403139E+03  0.97017365231E+03  0.91276068089E+02 0.  0.
        -11    1    5    5    0    0  0.17444929038E+02  0.74689955018E+02  0.18644156884E+03  0.20160201765E+03  0.00000000000E+00 0.  1.
         12    1    5    5    0    0 -0.39396845864E+02  0.14782205687E+03  0.75319246255E+03  0.76857163466E+03  0.00000000000E+00 0. -1.
         13    1    3    3    0    0 -0.53451381506E+02  0.48397227216E+02 -0.21837895969E+03  0.22997545918E+03  0.00000000000E+00 0. -1.
        -14    1    3    3    0    0  0.28660881958E+02  0.25064349399E+02 -0.91317719375E+02  0.98937321762E+02  0.00000000000E+00 0.  1.
          5    1    4    4  501    0 -0.42651208581E+02 -0.10894171714E+03  0.27953737897E+03  0.30306111920E+03  0.41800000000E+01 0. -1.
         -5    1    4    4    0  501  0.89393624955E+02 -0.18703187137E+03  0.44922702388E+03  0.49476714975E+03  0.41800000000E+01 0. -1.
</event>
<event>
11    1  0.8041700E-009  0.1381731E+03  0.7561462E-02  0.1109616E+00
         22   -1    0    0    0    0  0.00000000000E+00  0.00000000000E+00  0.40794738183E+04  0.40794738183E+04  0.00000000000E+00 0.  1.
         22   -1    0    0    0    0 -0.00000000000E+00 -0.00000000000E+00 -0.47291618409E+03  0.47291618409E+03  0.00000000000E+00 0.  1.
         24    2    1    2    0    0  0.21060262689E+02 -0.62012625069E+01 -0.45914584697E+03  0.46714005721E+03  0.83204170170E+02 0.  0.
         25    2    1    2    0    0 -0.75007203240E+02  0.25120085110E+02  0.59385410908E+03  0.61201584524E+03  0.12507434885E+03 0.  0.
        -24    2    1    2    0    0  0.53946940551E+02 -0.18918822603E+02  0.34718493721E+04  0.34732341000E+04  0.79679710461E+02 0.  0.
        -13    1    3    3    0    0 -0.19505447133E+02 -0.14344602841E+02 -0.34284097419E+03  0.34369487002E+03  0.00000000000E+00 0.  1.
         14    1    3    3    0    0  0.40565709822E+02  0.81433403336E+01 -0.11630487278E+03  0.12344518718E+03  0.00000000000E+00 0. -1.
         11    1    5    5    0    0  0.30820535632E+02 -0.19704997680E+02  0.51637148830E+03  0.51766563173E+03  0.00000000000E+00 0. -1.
        -12    1    5    5    0    0  0.23126404919E+02  0.78617507687E+00  0.29554778838E+04  0.29555684683E+04  0.00000000000E+00 0.  1.
          5    1    4    4  501    0 -0.68385544318E+02  0.72455436961E+02  0.41851466070E+03  0.43023059705E+03  0.41800000000E+01 0. -1.
         -5    1    4    4    0  501 -0.66216589226E+01 -0.47335351851E+02  0.17533944839E+03  0.18178524820E+03  0.41800000000E+01 0. -1.
</event>
<event>
11    1  0.8041700E-009  0.1383927E+03  0.7561462E-02  0.1109367E+00
         22   -1    0    0    0    0  0.00000000000E+00  0.00000000000E+00  0.30639877249E+03  0.30639877249E+03  0.00000000000E+00 0. -1.
         22   -1    0    0    0    0 -0.00000000000E+00 -0.00000000000E+00 -0.34657806345E+03  0.34657806345E+03  0.00000000000E+00 0. -1.
        -24    2    1    2    0    0  0.30489470183E+02 -0.26074417021E+02 -0.27929916049E+03  0.29491459325E+03  0.85773616260E+02 0.  0.
         25    2    1    2    0    0 -0.30289966933E+02  0.78881648703E+02  0.78320764655E+02  0.17007992560E+03  0.12511291826E+03 0.  0.
         24    2    1    2    0    0 -0.19950324977E+00 -0.52807231683E+02  0.16079910487E+03  0.18798231710E+03  0.81806820587E+02 0.  0.
        -11    1    5    5    0    0 -0.13919812131E+02 -0.49459665858E+02  0.36845259601E+02  0.63226520319E+02  0.00000000000E+00 0.  1.
         12    1    5    5    0    0  0.13720308881E+02 -0.33475658244E+01  0.12395384527E+03  0.12475579678E+03  0.00000000000E+00 0. -1.
         11    1    3    3    0    0  0.53585909222E+02  0.42274547398E+01 -0.19738539272E+03  0.20457349364E+03  0.00000000000E+00 0. -1.
        -12    1    3    3    0    0 -0.23096439039E+02 -0.30301871760E+02 -0.81913767764E+02  0.90341099605E+02  0.00000000000E+00 0.  1.
          5    1    4    4  501    0  0.24381667675E+02 -0.14650285847E+02  0.50561117391E+02  0.58163524531E+02  0.41800000000E+01 0. -1.
         -5    1    4    4    0  501 -0.54671634608E+02  0.93531934550E+02  0.27759647264E+02  0.11191640107E+03  0.41800000000E+01 0. -1.
</event>
<event>
11    1  0.8041700E-009  0.1366828E+03  0.7561462E-02  0.1111320E+00
         22   -1    0    0    0    0  0.00000000000E+00  0.00000000000E+00  0.18207042226E+04  0.18207042226E+04  0.00000000000E+00 0. -1.
         22   -1    0    0    0    0 -0.00000000000E+00 -0.00000000000E+00 -0.10980696119E+04  0.10980696119E+04  0.00000000000E+00 0. -1.
         24    2    1    2    0    0 -0.16041781673E+02 -0.52056733473E+02 -0.10329986286E+04  0.10375814485E+04  0.80757991421E+02 0.  0.
         25    2    1    2    0    0  0.97323684074E+01  0.79945617386E+02  0.27904527279E+02  0.15136640439E+03  0.12508838875E+03 0.  0.
        -24    2    1    2    0    0  0.63094132652E+01 -0.27888883914E+02  0.17277287121E+04  0.17298259817E+04  0.80211133722E+02 0.  0.
        -13    1    3    3    0    0  0.11644334898E+02 -0.56104545715E+02 -0.41350144567E+03  0.41745269931E+03  0.00000000000E+00 0.  1.
         14    1    3    3    0    0 -0.27686116571E+02  0.40478122419E+01 -0.61949718295E+03  0.62012874915E+03  0.00000000000E+00 0. -1.
         11    1    5    5    0    0  0.33775350488E+02  0.93290851024E+00  0.12449534925E+04  0.12454119171E+04  0.00000000000E+00 0. -1.
        -12    1    5    5    0    0 -0.27465937223E+02 -0.28821792424E+02  0.48277521953E+03  0.48441406464E+03  0.00000000000E+00 0.  1.
          5    1    4    4  501    0  0.25297760601E+02  0.10045850774E+03  0.51880470355E+02  0.11593508560E+03  0.41800000000E+01 0.  1.
         -5    1    4    4    0  501 -0.15565392194E+02 -0.20512890353E+02 -0.23975943076E+02  0.35431318790E+02  0.41800000000E+01 0.  1.
</event>
<event>
11    1  0.8041700E-009  0.3468521E+03  0.7561462E-02  0.9821060E-01
         22   -1    0    0    0    0  0.00000000000E+00  0.00000000000E+00  0.18758505620E+04  0.18758505620E+04  0.00000000000E+00 0. -1.
         22   -1    0    0    0    0 -0.00000000000E+00 -0.00000000000E+00 -0.31789122806E+03  0.31789122806E+03  0.00000000000E+00 0.  1.
         24    2    1    2    0    0  0.33014196780E+03  0.10807081122E+03  0.37939362845E+01  0.35675147973E+03  0.81143115511E+02 0.  0.
         25    2    1    2    0    0 -0.11486287194E+03 -0.36852670255E+03  0.22654567645E+03  0.46472915926E+03  0.12507932726E+03 0.  0.
        -24    2    1    2    0    0 -0.21527909586E+03  0.26045589134E+03  0.13276197212E+04  0.13722611511E+04  0.79650374557E+02 0.  0.
        -13    1    3    3    0    0  0.18157488107E+03  0.83947005402E+02 -0.30574965961E+02  0.20236443782E+03  0.00000000000E+00 0.  1.
         14    1    3    3    0    0  0.14856708674E+03  0.24123805815E+02  0.34368902246E+02  0.15438704191E+03  0.00000000000E+00 0. -1.
         13    1    5    5    0    0 -0.97531306650E+02  0.12484493081E+03  0.46822052728E+03  0.49429654530E+03  0.00000000000E+00 0. -1.
        -14    1    5    5    0    0 -0.11774778921E+03  0.13561096053E+03  0.85939919390E+03  0.87796460576E+03  0.00000000000E+00 0.  1.
          5    1    4    4  501    0 -0.16813931352E+02 -0.15730826245E+03  0.15391716739E+03  0.22076359424E+03  0.41800000000E+01 0. -1.
         -5    1    4    4    0  501 -0.98048940588E+02 -0.21121844010E+03  0.72628509053E+02  0.24396556502E+03  0.41800000000E+01 0. -1.
</event>
<event>
11    1  0.8041700E-009  0.1774514E+03  0.7561462E-02  0.1071723E+00
         22   -1    0    0    0    0  0.00000000000E+00  0.00000000000E+00  0.19695100135E+04  0.19695100135E+04  0.00000000000E+00 0. -1.
         22   -1    0    0    0    0 -0.00000000000E+00 -0.00000000000E+00 -0.31384982538E+04  0.31384982538E+04  0.00000000000E+00 0.  1.
         24    2    1    2    0    0  0.52216223496E+02  0.95992958264E+02 -0.16531084997E+04  0.16587098002E+04  0.81297646733E+02 0.  0.
         25    2    1    2    0    0 -0.41250768354E+02 -0.17163152570E+03 -0.14732162354E+04  0.14890171210E+04  0.12508758482E+03 0.  0.
        -24    2    1    2    0    0 -0.10965455142E+02  0.75638567437E+02  0.19573364949E+04  0.19602813460E+04  0.75467656540E+02 0.  0.
        -11    1    3    3    0    0  0.50832734241E+02  0.46669037088E+02 -0.13364036985E+04  0.13381841470E+04  0.00000000000E+00 0.  1.
         12    1    3    3    0    0  0.13834892552E+01  0.49323921175E+02 -0.31670480126E+03  0.32052565324E+03  0.00000000000E+00 0. -1.
         13    1    5    5    0    0 -0.31435734931E+02  0.65690719257E+02  0.17801670538E+04  0.17816560317E+04  0.00000000000E+00 0. -1.
        -14    1    5    5    0    0  0.20470279789E+02  0.99478481799E+01  0.17716944107E+03  0.17862531424E+03  0.00000000000E+00 0.  1.
          5    1    4    4  501    0 -0.50656177664E+02 -0.95406724675E+02 -0.12092667914E+04  0.12140890151E+04  0.41800000000E+01 0. -1.
         -5    1    4    4    0  501  0.94054093097E+01 -0.76224801025E+02 -0.26394944405E+03  0.27492810593E+03  0.41800000000E+01 0. -1.
</event>
<event>
11    1  0.8041700E-009  0.1754949E+03  0.7561462E-02  0.1073346E+00
         22   -1    0    0    0    0  0.00000000000E+00  0.00000000000E+00  0.25366404749E+03  0.25366404749E+03  0.00000000000E+00 0.  1.
         22   -1    0    0    0    0 -0.00000000000E+00 -0.00000000000E+00 -0.16074003702E+04  0.16074003702E+04  0.00000000000E+00 0.  1.
        -24    2    1    2    0    0  0.58272743522E+01  0.49395490542E+02 -0.50733003433E+03  0.51606747502E+03  0.80423898343E+02 0.  0.
         25    2    1    2    0    0 -0.10742491389E+03  0.20915573808E+02 -0.10671466546E+04  0.10800127844E+04  0.12509220091E+03 0.  0.
         24    2    1    2    0    0  0.10159763954E+03 -0.70311064351E+02  0.22074036622E+03  0.26498415825E+03  0.78895935973E+02 0.  0.
        -11    1    5    5    0    0  0.10268759594E+03 -0.59155608128E+02  0.13979715849E+03  0.18326858393E+03  0.00000000000E+00 0.  1.
         12    1    5    5    0    0 -0.10899564049E+01 -0.11155456223E+02  0.80943207728E+02  0.81715574316E+02  0.00000000000E+00 0. -1.
         11    1    3    3    0    0 -0.10692938675E+01  0.23865325197E+01 -0.38238195957E+03  0.38239090200E+03  0.00000000000E+00 0. -1.
        -12    1    3    3    0    0  0.68965682197E+01  0.47008958023E+02 -0.12494807476E+03  0.13367657301E+03  0.00000000000E+00 0.  1.
          5    1    4    4  501    0 -0.61540616657E+02  0.37362883019E+02 -0.95426204328E+03  0.95698315146E+03  0.41800000000E+01 0. -1.
         -5    1    4    4    0  501 -0.45884297234E+02 -0.16447309210E+02 -0.11288461127E+03  0.12302963292E+03  0.41800000000E+01 0. -1.
</event>
<event>
11    1  0.8041700E-009  0.1439970E+03  0.7561462E-02  0.1103175E+00
         22   -1    0    0    0    0  0.00000000000E+00  0.00000000000E+00  0.28310204386E+03  0.28310204386E+03  0.00000000000E+00 0. -1.
         22   -1    0    0    0    0 -0.00000000000E+00 -0.00000000000E+00 -0.73451509693E+03  0.73451509693E+03  0.00000000000E+00 0. -1.
         24    2    1    2    0    0  0.45881121335E+02  0.70816997131E+01 -0.62218116778E+03  0.62863675354E+03  0.76938511754E+02 0.  0.
         25    2    1    2    0    0  0.27272586601E+02 -0.28822965342E+02 -0.51190438624E+02  0.14086443633E+03  0.12509105125E+03 0.  0.
        -24    2    1    2    0    0 -0.73153707936E+02  0.21741265629E+02  0.22195855334E+03  0.24811595093E+03  0.80447362227E+02 0.  0.
        -11    1    3    3    0    0  0.14271781573E+02 -0.17995577648E+02 -0.49867894709E+02  0.54902927853E+02  0.00000000000E+00 0.  1.
         12    1    3    3    0    0  0.31609339762E+02  0.25077277361E+02 -0.57231327307E+03  0.57373382569E+03  0.00000000000E+00 0. -1.
         11    1    5    5    0    0 -0.16929464777E+01  0.22967611378E+02  0.12804421918E+03  0.13009880594E+03  0.00000000000E+00 0. -1.
        -12    1    5    5    0    0 -0.71460761458E+02 -0.12263457490E+01  0.93914334156E+02  0.11801714499E+03  0.00000000000E+00 0.  1.
          5    1    4    4  501    0  0.11284573846E+02 -0.36932645162E+01 -0.90498549015E+02  0.91369806739E+02  0.41800000000E+01 0. -1.
         -5    1    4    4    0  501  0.15988012756E+02 -0.25129700826E+02  0.39308110391E+02  0.49494629587E+02  0.41800000000E+01 0. -1.
</event>
<event>
11    1  0.8041700E-009  0.1984685E+03  0.7561462E-02  0.1055612E+00
         22   -1    0    0    0    0  0.00000000000E+00  0.00000000000E+00  0.17852180483E+03  0.17852180483E+03  0.00000000000E+00 0. -1.
         22   -1    0    0    0    0 -0.00000000000E+00 -0.00000000000E+00 -0.62741532438E+03  0.62741532438E+03  0.00000000000E+00 0. -1.
        -24    2    1    2    0    0  0.12490024398E+03  0.88101082699E+02 -0.40787901473E+03  0.44284249974E+03  0.79889406056E+02 0.  0.
         25    2    1    2    0    0 -0.15270992413E+03 -0.55615709454E+02 -0.12287199794E+03  0.23907772995E+03  0.12508878852E+03 0.  0.
         24    2    1    2    0    0  0.27809680142E+02 -0.32485373244E+02  0.81857493129E+02  0.12401689952E+03  0.82769948656E+02 0.  0.
        -11    1    5    5    0    0 -0.14871954554E+02  0.12128596972E+02  0.52011898202E+02  0.55439295191E+02  0.00000000000E+00 0.  1.
         12    1    5    5    0    0  0.42681634696E+02 -0.44613970216E+02  0.29845594928E+02  0.68577604328E+02  0.00000000000E+00 0. -1.
         11    1    3    3    0    0  0.77339163923E+02  0.53525281560E+02 -0.34126507012E+03  0.35398891243E+03  0.00000000000E+00 0. -1.
        -12    1    3    3    0    0  0.47561080061E+02  0.34575801138E+02 -0.66613944614E+02  0.88853587310E+02  0.00000000000E+00 0.  1.
          5    1    4    4  501    0  0.62666067650E+01  0.23854121233E+02 -0.28068071855E+02  0.37597586596E+02  0.41800000000E+01 0.  1.
         -5    1    4    4    0  501 -0.15897653089E+03 -0.79469830687E+02 -0.94803926088E+02  0.20148014335E+03  0.41800000000E+01 0.  1.
</event>
<event>
11    1  0.8041700E-009  0.1480277E+03  0.7561462E-02  0.1098911E+00
         22   -1    0    0    0    0  0.00000000000E+00  0.00000000000E+00  0.40344230838E+02  0.40344230838E+02  0.00000000000E+00 0.  1.
         22   -1    0    0    0    0 -0.00000000000E+00 -0.00000000000E+00 -0.39726462905E+04  0.39726462905E+04  0.00000000000E+00 0. -1.
        -24    2    1    2    0    0  0.45855991735E+02 -0.57681793801E+02 -0.24851398137E+04  0.24875431515E+04  0.80753177166E+02 0.  0.
         25    2    1    2    0    0 -0.86581051039E+02  0.57107508726E+02 -0.14380543198E+04  0.14472059890E+04  0.12508957630E+03 0.  0.
         24    2    1    2    0    0  0.40725059304E+02  0.57428507497E+00 -0.91079262320E+01  0.78241380856E+02  0.66180806125E+02 0.  0.
        -11    1    5    5    0    0  0.55635464786E+02  0.14234331372E+02 -0.53806758279E+01  0.57679049957E+02  0.00000000000E+00 0.  1.
         12    1    5    5    0    0 -0.14910405482E+02 -0.13660046297E+02 -0.37272504040E+01  0.20562330900E+02  0.00000000000E+00 0. -1.
         11    1    3    3    0    0  0.50260465027E+02 -0.39171208208E+02 -0.23688562562E+04  0.23697131599E+04  0.00000000000E+00 0. -1.
        -12    1    3    3    0    0 -0.44044732916E+01 -0.18510585593E+02 -0.11628355748E+03  0.11782999154E+03  0.00000000000E+00 0.  1.
          5    1    4    4  501    0 -0.86276413537E+02  0.18955285215E+02 -0.13223094384E+04  0.13252632364E+04  0.41800000000E+01 0.  1.
         -5    1    4    4    0  501 -0.30463750259E+00  0.38152223511E+02 -0.11574488136E+03  0.12194275265E+03  0.41800000000E+01 0.  1.
</event>
<event>
11    1  0.8041700E-009  0.1510040E+03  0.7561462E-02  0.1095857E+00
         22   -1    0    0    0    0  0.00000000000E+00  0.00000000000E+00  0.29844911508E+03  0.29844911508E+03  0.00000000000E+00 0.  1.
         22   -1    0    0    0    0 -0.00000000000E+00 -0.00000000000E+00 -0.42193724456E+03  0.42193724456E+03  0.00000000000E+00 0. -1.
        -24    2    1    2    0    0 -0.14659027110E+02  0.38669210408E+01 -0.26157242664E+03  0.27441390915E+03  0.81566040771E+02 0.  0.
         25    2    1    2    0    0  0.12149860330E+02 -0.88096904548E+02 -0.98427588557E+02  0.18233261487E+03  0.12509399890E+03 0.  0.
         24    2    1    2    0    0  0.25091667806E+01  0.84229983507E+02  0.23651188572E+03  0.26363983561E+03  0.80418311323E+02 0.  0.
        -11    1    5    5    0    0  0.89972562181E+01  0.99371764776E+02  0.20845698189E+03  0.23110606126E+03  0.00000000000E+00 0.  1.
         12    1    5    5    0    0 -0.64880894375E+01 -0.15141781269E+02  0.28054903827E+02  0.32533774347E+02  0.00000000000E+00 0. -1.
         13    1    3    3    0    0  0.14776098584E+02  0.29282590539E+02 -0.19136180789E+03  0.19415237499E+03  0.00000000000E+00 0. -1.
        -14    1    3    3    0    0 -0.29435125694E+02 -0.25415669498E+02 -0.70210618748E+02  0.80261534160E+02  0.00000000000E+00 0.  1.
          5    1    4    4  501    0  0.65667395606E+02 -0.54943290816E+02 -0.34182130715E+02  0.92286849072E+02  0.41800000000E+01 0. -1.
         -5    1    4    4    0  501 -0.53517535276E+02 -0.33153613731E+02 -0.64245457842E+02  0.90045765802E+02  0.41800000000E+01 0. -1.
</event>
<event>
11    1  0.8041700E-009  0.1563154E+03  0.7561462E-02  0.1090595E+00
         22   -1    0    0    0    0  0.00000000000E+00  0.00000000000E+00  0.11447495790E+04  0.11447495790E+04  0.00000000000E+00 0. -1.
         22   -1    0    0    0    0 -0.00000000000E+00 -0.00000000000E+00 -0.57360242337E+03  0.57360242337E+03  0.00000000000E+00 0. -1.
         24    2    1    2    0    0  0.24079550708E+02  0.13366243015E+02 -0.46246532922E+03  0.47247830436E+03  0.92752822870E+02 0.  0.
         25    2    1    2    0    0 -0.67151794317E+02  0.69913835121E+02 -0.41563013253E+02  0.16362378446E+03  0.12509177010E+03 0.  0.
        -24    2    1    2    0    0  0.43072243609E+02 -0.83280078136E+02  0.10751754981E+04  0.10822499135E+04  0.80447088797E+02 0.  0.
        -11    1    3    3    0    0  0.43934100577E+02 -0.20065346162E+02 -0.35348000356E+03  0.35676453892E+03  0.00000000000E+00 0.  1.
         12    1    3    3    0    0 -0.19854549870E+02  0.33431589177E+02 -0.10898532565E+03  0.11571376545E+03  0.00000000000E+00 0. -1.
         11    1    5    5    0    0  0.37566667476E+02 -0.50655720412E+02  0.96873967783E+03  0.97079030688E+03  0.00000000000E+00 0. -1.
        -12    1    5    5    0    0  0.55055761331E+01 -0.32624357724E+02  0.10643582024E+03  0.11145960666E+03  0.00000000000E+00 0.  1.
          5    1    4    4  501    0 -0.49459710165E+02  0.10143166235E+03 -0.65287708455E+01  0.11311384666E+03  0.41800000000E+01 0. -1.
         -5    1    4    4    0  501 -0.17692084151E+02 -0.31517827233E+02 -0.35034242407E+02  0.50509937796E+02  0.41800000000E+01 0. -1.
</event>
<event>
11    1  0.8041700E-009  0.1555325E+03  0.7561462E-02  0.1091356E+00
         22   -1    0    0    0    0  0.00000000000E+00  0.00000000000E+00  0.41714417839E+03  0.41714417839E+03  0.00000000000E+00 0.  1.
         22   -1    0    0    0    0 -0.00000000000E+00 -0.00000000000E+00 -0.16258898693E+04  0.16258898693E+04  0.00000000000E+00 0.  1.
         24    2    1    2    0    0  0.27273839916E+02 -0.10079007634E+03 -0.12207443401E+04  0.12277533749E+04  0.79114498506E+02 0.  0.
         25    2    1    2    0    0 -0.21417658614E+02  0.48684415659E+02 -0.38418635921E+03  0.40751627353E+03  0.12506584730E+03 0.  0.
        -24    2    1    2    0    0 -0.58561813013E+01  0.52105660683E+02  0.39618500837E+03  0.40776439927E+03  0.80993516543E+02 0.  0.
        -11    1    3    3    0    0  0.38609371425E+02 -0.67925575318E+02 -0.10783463429E+04  0.10811731604E+04  0.00000000000E+00 0.  1.
         12    1    3    3    0    0 -0.11335531509E+02 -0.32864501024E+02 -0.14239799717E+03  0.14658021456E+03  0.00000000000E+00 0. -1.
         11    1    5    5    0    0 -0.41927337969E+02  0.22130795031E+02  0.15607272720E+03  0.16311459142E+03  0.00000000000E+00 0. -1.
        -12    1    5    5    0    0  0.36071156668E+02  0.29974865651E+02  0.24011228117E+03  0.24464980786E+03  0.00000000000E+00 0.  1.
          5    1    4    4  501    0 -0.54472774811E+01 -0.40416727832E+02 -0.76874627621E+02  0.87122703657E+02  0.41800000000E+01 0. -1.
         -5    1    4    4    0  501 -0.15970381133E+02  0.89101143491E+02 -0.30731173159E+03  0.32039356988E+03  0.41800000000E+01 0. -1.
</event>
<event>
11    1  0.8041700E-009  0.1532553E+03  0.7561462E-02  0.1093598E+00
         22   -1    0    0    0    0  0.00000000000E+00  0.00000000000E+00  0.14070073815E+04  0.14070073815E+04  0.00000000000E+00 0.  1.
         22   -1    0    0    0    0 -0.00000000000E+00 -0.00000000000E+00 -0.22368394584E+03  0.22368394584E+03  0.00000000000E+00 0. -1.
         24    2    1    2    0    0 -0.27213560759E+01  0.28427874862E+02 -0.17458413831E+03  0.19380036278E+03  0.79141704662E+02 0.  0.
         25    2    1    2    0    0  0.83409565332E+02  0.96599194347E+01  0.11833090268E+03  0.19157187906E+03  0.12508841947E+03 0.  0.
        -24    2    1    2    0    0 -0.80688209257E+02 -0.38087794297E+02  0.12395766713E+04  0.12453190855E+04  0.79423129610E+02 0.  0.
        -13    1    3    3    0    0 -0.33494656439E+01  0.38704228449E+02 -0.30611529069E+02  0.49460104446E+02  0.00000000000E+00 0.  1.
         14    1    3    3    0    0  0.62810956806E+00 -0.10276353587E+02 -0.14397260924E+03  0.14434025834E+03  0.00000000000E+00 0. -1.
         13    1    5    5    0    0 -0.73876604252E+01 -0.21058470277E+02  0.73417305993E+02  0.76734200434E+02  0.00000000000E+00 0. -1.
        -14    1    5    5    0    0 -0.73300548831E+02 -0.17029324020E+02  0.11661593653E+04  0.11685848850E+04  0.00000000000E+00 0.  1.
          5    1    4    4  501    0  0.28956195043E+02  0.64840089193E+02  0.41551796053E+02  0.82381566829E+02  0.41800000000E+01 0. -1.
         -5    1    4    4    0  501  0.54453370289E+02 -0.55180169758E+02  0.76779106623E+02  0.10919031223E+03  0.41800000000E+01 0. -1.
</event>
<event>
11    1  0.1429671E-008  0.2833186E+03  0.7561462E-02  0.1007509E+00
         22   -1    0    0    0    0  0.00000000000E+00  0.00000000000E+00  0.61064114565E+03  0.61064114565E+03  0.00000000000E+00 0.  1.
         22   -1    0    0    0    0 -0.00000000000E+00 -0.00000000000E+00 -0.18422194162E+04  0.18422194162E+04  0.00000000000E+00 0. -1.
         24    2    1    2    0    0  0.14322773962E+03 -0.19940935144E+02 -0.11472360229E+04  0.11591171775E+04  0.80562475682E+02 0.  0.
         25    2    1    2    0    0  0.13942418908E+02 -0.18577318929E+03 -0.63826694520E+03  0.67656375175E+03  0.12509095867E+03 0.  0.
        -24    2    1    2    0    0 -0.15717015852E+03  0.20571412443E+03  0.55392469755E+03  0.61717963268E+03  0.84008146799E+02 0.  0.
        -11    1    3    3    0    0  0.55324120315E+02 -0.41515705196E+02 -0.65376942943E+03  0.65741826787E+03  0.00000000000E+00 0.  1.
         12    1    3    3    0    0  0.87903619300E+02  0.21574770052E+02 -0.49346659351E+03  0.50169890960E+03  0.00000000000E+00 0. -1.
         13    1    5    5    0    0 -0.15981271630E+02  0.84631179512E+00  0.95396400839E+01  0.18631210897E+02  0.00000000000E+00 0. -1.
        -14    1    5    5    0    0 -0.14118888689E+03  0.20486781264E+03  0.54438505746E+03  0.59854842179E+03  0.00000000000E+00 0.  1.
          5    1    4    4  501    0 -0.32195010933E+02 -0.72837356013E+01 -0.17137475224E+03  0.17457476804E+03  0.41800000000E+01 0. -1.
         -5    1    4    4    0  501  0.46137429841E+02 -0.17848945369E+03 -0.46689219296E+03  0.50198898370E+03  0.41800000000E+01 0. -1.
</event>
<event>
11    1  0.8041700E-009  0.1488869E+03  0.7561462E-02  0.1098022E+00
         22   -1    0    0    0    0  0.00000000000E+00  0.00000000000E+00  0.39489368694E+03  0.39489368694E+03  0.00000000000E+00 0.  1.
         22   -1    0    0    0    0 -0.00000000000E+00 -0.00000000000E+00 -0.14030755773E+04  0.14030755773E+04  0.00000000000E+00 0.  1.
        -24    2    1    2    0    0 -0.72882853144E+02  0.36922925843E+02 -0.13581634920E+04  0.13636374956E+04  0.90685917859E+02 0.  0.
         25    2    1    2    0    0  0.37443524883E+02  0.35839441408E+01  0.10989931131E+03  0.17070396296E+03  0.12508845724E+03 0.  0.
         24    2    1    2    0    0  0.35439328262E+02 -0.40506869984E+02  0.24008229029E+03  0.26362780571E+03  0.94675030125E+02 0.  0.
        -13    1    5    5    0    0  0.39210814345E+00 -0.11336488876E+02  0.20695626596E+03  0.20726689497E+03  0.00000000000E+00 0.  1.
         14    1    5    5    0    0  0.35047220118E+02 -0.29170381108E+02  0.33126024330E+02  0.56360910744E+02  0.00000000000E+00 0. -1.
         13    1    3    3    0    0 -0.19158796126E+02  0.11189159533E+02 -0.57826263386E+02  0.61936527972E+02  0.00000000000E+00 0. -1.
        -14    1    3    3    0    0 -0.53724057018E+02  0.25733766310E+02 -0.13003372286E+04  0.13017009676E+04  0.00000000000E+00 0.  1.
          5    1    4    4  501    0  0.50287654917E+02 -0.14525770242E+02  0.13016293362E+03  0.14035564800E+03  0.41800000000E+01 0. -1.
         -5    1    4    4    0  501 -0.12844130035E+02  0.18109714383E+02 -0.20263622314E+02  0.30348314956E+02  0.41800000000E+01 0. -1.
</event>
<event>
11    1  0.8041700E-009  0.1475715E+03  0.7561462E-02  0.1099386E+00
         22   -1    0    0    0    0  0.00000000000E+00  0.00000000000E+00  0.87545950005E+03  0.87545950005E+03  0.00000000000E+00 0.  1.
         22   -1    0    0    0    0 -0.00000000000E+00 -0.00000000000E+00 -0.41211761985E+03  0.41211761985E+03  0.00000000000E+00 0.  1.
        -24    2    1    2    0    0  0.59073155770E+02 -0.48804412031E+02 -0.31835380834E+03  0.33699115778E+03  0.79639090696E+02 0.  0.
         25    2    1    2    0    0 -0.69268469105E+02  0.59542372831E+02 -0.95461336387E+01  0.15518377451E+03  0.12508980866E+03 0.  0.
         24    2    1    2    0    0  0.10195313335E+02 -0.10737960800E+02  0.79124182218E+03  0.79540218761E+03  0.79885985438E+02 0.  0.
        -11    1    5    5    0    0  0.14225847265E+02 -0.26730018426E+02  0.75474438599E+03  0.75535154517E+03  0.00000000000E+00 0.  1.
         12    1    5    5    0    0 -0.40305339297E+01  0.15992057625E+02  0.36497436189E+02  0.40050642432E+02  0.00000000000E+00 0. -1.
         11    1    3    3    0    0  0.68057211027E+02 -0.29034059943E+02 -0.15014764822E+03  0.16738899867E+03  0.00000000000E+00 0. -1.
        -12    1    3    3    0    0 -0.89840552571E+01 -0.19770352088E+02 -0.16820616012E+03  0.16960215911E+03  0.00000000000E+00 0.  1.
          5    1    4    4  501    0 -0.71321587925E+02  0.14434776422E+00  0.36176637235E+02  0.80081278849E+02  0.41800000000E+01 0. -1.
         -5    1    4    4    0  501  0.20531188201E+01  0.59398025067E+02 -0.45722770874E+02  0.75102495665E+02  0.41800000000E+01 0. -1.
</event>
<event>
11    1  0.8041700E-009  0.1454131E+03  0.7561462E-02  0.1101660E+00
         22   -1    0    0    0    0  0.00000000000E+00  0.00000000000E+00  0.71132133905E+03  0.71132133905E+03  0.00000000000E+00 0.  1.
         22   -1    0    0    0    0 -0.00000000000E+00 -0.00000000000E+00 -0.68316485250E+03  0.68316485250E+03  0.00000000000E+00 0.  1.
         24    2    1    2    0    0  0.72348531295E+02  0.57303435258E+02 -0.62070558822E+03  0.63287385916E+03  0.82072533105E+02 0.  0.
         25    2    1    2    0    0  0.10916356345E+02 -0.43507160550E+02  0.40798924931E+02  0.13898434274E+03  0.12506020708E+03 0.  0.
        -24    2    1    2    0    0 -0.83264887639E+02 -0.13796274708E+02  0.60806314985E+03  0.62262798965E+03  0.10392997924E+03 0.  0.
        -11    1    3    3    0    0  0.19141800001E+02 -0.95607361135E+01 -0.30681118938E+03  0.30755637225E+03  0.00000000000E+00 0.  1.
         12    1    3    3    0    0  0.53206731294E+02  0.66864171371E+02 -0.31389439884E+03  0.32531748691E+03  0.00000000000E+00 0. -1.
         13    1    5    5    0    0 -0.83011790527E+02 -0.72368509439E+01  0.23204684279E+03  0.24655438878E+03  0.00000000000E+00 0. -1.
        -14    1    5    5    0    0 -0.25309711269E+00 -0.65594237638E+01  0.37601630706E+03  0.37607360087E+03  0.00000000000E+00 0.  1.
          5    1    4    4  501    0  0.38443011441E+02 -0.78474418840E+02  0.33576472867E+02  0.93706731194E+02  0.41800000000E+01 0. -1.
         -5    1    4    4    0  501 -0.27526655096E+02  0.34967258290E+02  0.72224520642E+01  0.45277611542E+02  0.41800000000E+01 0. -1.
</event>
<event>
11    1  0.8041700E-009  0.1367897E+03  0.7561462E-02  0.1111197E+00
         22   -1    0    0    0    0  0.00000000000E+00  0.00000000000E+00  0.30100382712E+03  0.30100382712E+03  0.00000000000E+00 0. -1.
         22   -1    0    0    0    0 -0.00000000000E+00 -0.00000000000E+00 -0.19220289422E+03  0.19220289422E+03  0.00000000000E+00 0. -1.
        -24    2    1    2    0    0 -0.56143604943E+02  0.12331552358E+02 -0.13078814591E+03  0.16346013023E+03  0.79432383217E+02 0.  0.
         25    2    1    2    0    0  0.32203859739E+02 -0.34545359245E+02  0.83906301344E+02  0.15785330900E+03  0.12508768656E+03 0.  0.
         24    2    1    2    0    0  0.23939745204E+02  0.22213806887E+02  0.15568277747E+03  0.17189328211E+03  0.65142985950E+02 0.  0.
        -13    1    5    5    0    0 -0.20010910587E+02  0.18376125674E+02  0.42791823039E+02  0.50687855116E+02  0.00000000000E+00 0.  1.
         14    1    5    5    0    0  0.43950655790E+02  0.38376812126E+01  0.11289095443E+03  0.12120542700E+03  0.00000000000E+00 0. -1.
         13    1    3    3    0    0 -0.41476887739E+02 -0.17034728281E+02 -0.12125316022E+03  0.12927816153E+03  0.00000000000E+00 0. -1.
        -14    1    3    3    0    0 -0.14666717204E+02  0.29366280639E+02 -0.95349856888E+01  0.34181968700E+02  0.00000000000E+00 0.  1.
          5    1    4    4  501    0  0.40960338393E+02 -0.78043911658E+02  0.46922583169E+02  0.99938994789E+02  0.41800000000E+01 0.  1.
         -5    1    4    4    0  501 -0.87564786541E+01  0.43498552413E+02  0.36983718175E+02  0.57914314210E+02  0.41800000000E+01 0.  1.
</event>
<event>
11    1  0.8041700E-009  0.1389814E+03  0.7561462E-02  0.1108701E+00
         22   -1    0    0    0    0  0.00000000000E+00  0.00000000000E+00  0.77758198484E+02  0.77758198484E+02  0.00000000000E+00 0. -1.
         22   -1    0    0    0    0 -0.00000000000E+00 -0.00000000000E+00 -0.24572936731E+04  0.24572936731E+04  0.00000000000E+00 0. -1.
        -24    2    1    2    0    0  0.80673705459E+01 -0.42296519148E+02 -0.17206829566E+04  0.17231552181E+04  0.81608766656E+02 0.  0.
         25    2    1    2    0    0  0.25309382581E+02 -0.10570953299E+02 -0.69419914436E+03  0.70590935527E+03  0.12507300238E+03 0.  0.
         24    2    1    2    0    0 -0.33376753127E+02  0.52867472446E+02  0.35346626327E+02  0.10598729816E+03  0.77941940478E+02 0.  0.
        -13    1    5    5    0    0  0.17992592613E+02  0.16852731891E+02 -0.11972805117E+02  0.27406131130E+02  0.00000000000E+00 0.  1.
         14    1    5    5    0    0 -0.51369345740E+02  0.36014740555E+02  0.47319431444E+02  0.78581167026E+02  0.00000000000E+00 0. -1.
         13    1    3    3    0    0 -0.35076944298E+02 -0.10284946765E+02 -0.52863945759E+03  0.52990173454E+03  0.00000000000E+00 0. -1.
        -14    1    3    3    0    0  0.43144314844E+02 -0.32011572383E+02 -0.11920434990E+04  0.11932534836E+04  0.00000000000E+00 0.  1.
          5    1    4    4  501    0 -0.72720396121E+01  0.47419289310E+02 -0.45683360853E+03  0.45936465890E+03  0.41800000000E+01 0.  1.
         -5    1    4    4    0  501  0.32581422193E+02 -0.57990242609E+02 -0.23736553582E+03  0.24654469637E+03  0.41800000000E+01 0.  1.
</event>
<event>
11    1  0.8041700E-009  0.1625297E+03  0.7561462E-02  0.1084722E+00
         22   -1    0    0    0    0  0.00000000000E+00  0.00000000000E+00  0.22529164160E+04  0.22529164160E+04  0.00000000000E+00 0.  1.
         22   -1    0    0    0    0 -0.00000000000E+00 -0.00000000000E+00 -0.10886311852E+04  0.10886311852E+04  0.00000000000E+00 0.  1.
         24    2    1    2    0    0 -0.90846391488E+01 -0.91509055073E+02 -0.60346032590E+03  0.61564382478E+03  0.79978223444E+02 0.  0.
         25    2    1    2    0    0  0.19985647551E+02  0.13799628779E+03 -0.45975357316E+03  0.49645099583E+03  0.12509133333E+03 0.  0.
        -24    2    1    2    0    0 -0.10901008402E+02 -0.46487232720E+02  0.22274991298E+04  0.22294527805E+04  0.80171270168E+02 0.  0.
        -11    1    3    3    0    0 -0.30662980567E+02 -0.19670410448E+02 -0.33259970214E+03  0.33458886008E+03  0.00000000000E+00 0.  1.
         12    1    3    3    0    0  0.21578341419E+02 -0.71838644626E+02 -0.27086062376E+03  0.28105496470E+03  0.00000000000E+00 0. -1.
         11    1    5    5    0    0  0.22955293538E+02  0.99498634979E+01  0.41014869694E+03  0.41091105959E+03  0.00000000000E+00 0. -1.
        -12    1    5    5    0    0 -0.33856301941E+02 -0.56437096218E+02  0.18173504329E+04  0.18185417210E+04  0.00000000000E+00 0.  1.
          5    1    4    4  501    0 -0.11743362090E+02  0.14720677098E+03 -0.31509645920E+03  0.34801004436E+03  0.41800000000E+01 0. -1.
         -5    1    4    4    0  501  0.31729009641E+02 -0.92104831893E+01 -0.14465711396E+03  0.14844095147E+03  0.41800000000E+01 0. -1.
</event>
<event>
11    1  0.8041700E-009  0.1280716E+03  0.7561462E-02  0.1121661E+00
         22   -1    0    0    0    0  0.00000000000E+00  0.00000000000E+00  0.31094392786E+03  0.31094392786E+03  0.00000000000E+00 0. -1.
         22   -1    0    0    0    0 -0.00000000000E+00 -0.00000000000E+00 -0.85813579742E+03  0.85813579742E+03  0.00000000000E+00 0. -1.
         24    2    1    2    0    0 -0.12347775319E+02  0.24021258687E+02 -0.79551352617E+03  0.79987112276E+03  0.78883168477E+02 0.  0.
         25    2    1    2    0    0  0.26905265392E+02 -0.36876397063E+02  0.30737997588E+02  0.13666165752E+03  0.12509125539E+03 0.  0.
        -24    2    1    2    0    0 -0.14557490073E+02  0.12855138375E+02  0.21758365903E+03  0.23254694501E+03  0.79738684821E+02 0.  0.
        -13    1    3    3    0    0 -0.30044748028E+02  0.41301334154E+00 -0.11969601714E+03  0.12340986177E+03  0.00000000000E+00 0.  1.
         14    1    3    3    0    0  0.17696972709E+02  0.23608245346E+02 -0.67581750904E+03  0.67646126098E+03  0.00000000000E+00 0. -1.
         13    1    5    5    0    0 -0.39941221241E+02  0.27254881334E+02  0.16985010169E+03  0.17659894325E+03  0.00000000000E+00 0. -1.
        -14    1    5    5    0    0  0.25383731168E+02 -0.14399742958E+02  0.47733557333E+02  0.55948001760E+02  0.00000000000E+00 0.  1.
          5    1    4    4  501    0  0.19847573417E+01  0.42760221844E+02  0.31160148559E+02  0.53111233201E+02  0.41800000000E+01 0.  1.
         -5    1    4    4    0  501  0.24920508051E+02 -0.79636618907E+02 -0.42215097145E+00  0.83550424319E+02  0.41800000000E+01 0.  1.
</event>
<event>
11    1  0.8041700E-009  0.1270130E+03  0.7561462E-02  0.1122994E+00
         22   -1    0    0    0    0  0.00000000000E+00  0.00000000000E+00  0.10898174798E+04  0.10898174798E+04  0.00000000000E+00 0.  1.
         22   -1    0    0    0    0 -0.00000000000E+00 -0.00000000000E+00 -0.79474558741E+02  0.79474558741E+02  0.00000000000E+00 0.  1.
        -24    2    1    2    0    0  0.98649930549E+01  0.53106781616E+00 -0.18356030033E+02  0.85335173991E+02  0.82749912148E+02 0.  0.
         25    2    1    2    0    0  0.27257950220E+01 -0.19013636822E+02  0.13060892442E+03  0.18186768483E+03  0.12509282675E+03 0.  0.
         24    2    1    2    0    0 -0.12590788077E+02  0.18482569006E+02  0.89809002665E+03  0.90208917970E+03  0.81847778524E+02 0.  0.
        -11    1    5    5    0    0 -0.26416248728E+02  0.57050195909E+01  0.85023433762E+03  0.85066373751E+03  0.00000000000E+00 0.  1.
         12    1    5    5    0    0  0.13825460651E+02  0.12777549415E+02  0.47855689037E+02  0.51425442190E+02  0.00000000000E+00 0. -1.
         13    1    3    3    0    0 -0.88058644376E+01 -0.28236920847E+02  0.18581915779E+02  0.34930710577E+02  0.00000000000E+00 0. -1.
        -14    1    3    3    0    0  0.18670857492E+02  0.28767988663E+02 -0.36937945812E+02  0.50404463414E+02  0.00000000000E+00 0.  1.
          5    1    4    4  501    0  0.53537537789E+02 -0.98531983540E+01  0.17287585217E+02  0.57268546978E+02  0.41800000000E+01 0. -1.
         -5    1    4    4    0  501 -0.50811742767E+02 -0.91604384683E+01  0.11332133920E+03  0.12459913785E+03  0.41800000000E+01 0. -1.
</event>
<event>
11    1  0.8041700E-009  0.2101678E+03  0.7561462E-02  0.1047558E+00
         22   -1    0    0    0    0  0.00000000000E+00  0.00000000000E+00  0.18011914230E+04  0.18011914230E+04  0.00000000000E+00 0.  1.
         22   -1    0    0    0    0 -0.00000000000E+00 -0.00000000000E+00 -0.15581764877E+03  0.15581764877E+03  0.00000000000E+00 0.  1.
        -24    2    1    2    0    0  0.16444178516E+03  0.13070060687E+02 -0.54396021102E+02  0.19132546880E+03  0.80215838259E+02 0.  0.
         25    2    1    2    0    0 -0.19710473178E+03  0.34884457686E+02  0.41892693725E+03  0.48084668774E+03  0.12508620100E+03 0.  0.
         24    2    1    2    0    0  0.32662946617E+02 -0.47954518373E+02  0.12808428581E+04  0.12848369152E+04  0.82951598616E+02 0.  0.
        -11    1    5    5    0    0  0.14586823142E+02  0.13234677082E+02  0.73715913126E+03  0.73742221074E+03  0.00000000000E+00 0.  1.
         12    1    5    5    0    0  0.18076123476E+02 -0.61189195455E+02  0.54368372680E+03  0.54741470447E+03  0.00000000000E+00 0. -1.
         11    1    3    3    0    0  0.25068058486E+02 -0.14778411692E+02  0.15466189244E+02  0.32954696450E+02  0.00000000000E+00 0. -1.
        -12    1    3    3    0    0  0.13937372667E+03  0.27848472379E+02 -0.69862210346E+02  0.15837077235E+03  0.00000000000E+00 0.  1.
          5    1    4    4  501    0 -0.14364083083E+03  0.18744139038E+02  0.39350785390E+03  0.41934464884E+03  0.41800000000E+01 0. -1.
         -5    1    4    4    0  501 -0.53463900950E+02  0.16140318648E+02  0.25419083353E+02  0.61502038904E+02  0.41800000000E+01 0. -1.
</event>
<event>
11    1  0.8041700E-009  0.1702504E+03  0.7561462E-02  0.1077814E+00
         22   -1    0    0    0    0  0.00000000000E+00  0.00000000000E+00  0.16417234280E+03  0.16417234280E+03  0.00000000000E+00 0. -1.
         22   -1    0    0    0    0 -0.00000000000E+00 -0.00000000000E+00 -0.97924247119E+03  0.97924247119E+03  0.00000000000E+00 0. -1.
        -24    2    1    2    0    0  0.10285383632E+03 -0.55578284236E+02 -0.79128469308E+03  0.80427773239E+03  0.84043726685E+02 0.  0.
         25    2    1    2    0    0 -0.86002426429E+02  0.64922267125E+02 -0.12897312611E+03  0.20950620402E+03  0.12508982429E+03 0.  0.
         24    2    1    2    0    0 -0.16851409887E+02 -0.93439828886E+01  0.10518769080E+03  0.12963087758E+03  0.73269598717E+02 0.  0.
        -11    1    5    5    0    0  0.23782357512E+02  0.15577240891E+01  0.10551275488E+02  0.26064467146E+02  0.00000000000E+00 0.  1.
         12    1    5    5    0    0 -0.40633767400E+02 -0.10901706978E+02  0.94636415310E+02  0.10356641044E+03  0.00000000000E+00 0. -1.
         11    1    3    3    0    0  0.73514251949E+02 -0.62668842095E+02 -0.72544888177E+03  0.73185231370E+03  0.00000000000E+00 0. -1.
        -12    1    3    3    0    0  0.29339584367E+02  0.70905578589E+01 -0.65835811309E+02  0.72425418690E+02  0.00000000000E+00 0.  1.
          5    1    4    4  501    0 -0.26333945788E+02 -0.86216879852E+01 -0.10910898793E+03  0.11265013915E+03  0.41800000000E+01 0.  1.
         -5    1    4    4    0  501 -0.59668480641E+02  0.73543955110E+02 -0.19864138188E+02  0.96856064865E+02  0.41800000000E+01 0.  1.
</event>
<event>
11    1  0.8041700E-009  0.1944487E+03  0.7561462E-02  0.1058520E+00
         22   -1    0    0    0    0  0.00000000000E+00  0.00000000000E+00  0.62439415753E+03  0.62439415753E+03  0.00000000000E+00 0.  1.
         22   -1    0    0    0    0 -0.00000000000E+00 -0.00000000000E+00 -0.13604149222E+03  0.13604149222E+03  0.00000000000E+00 0.  1.
        -24    2    1    2    0    0  0.51458075324E+02  0.89439546057E+02 -0.30618430775E+01  0.13694559161E+03  0.89985300262E+02 0.  0.
         25    2    1    2    0    0  0.11134878722E+03 -0.16791901824E+02  0.12978859292E+03  0.21254748600E+03  0.12510329561E+03 0.  0.
         24    2    1    2    0    0 -0.16280686255E+03 -0.72647644233E+02  0.36162591548E+03  0.41094257214E+03  0.79477922371E+02 0.  0.
        -13    1    5    5    0    0 -0.16240203542E+03 -0.81543138734E+02  0.35769271215E+03  0.40120790235E+03  0.00000000000E+00 0.  1.
         14    1    5    5    0    0 -0.40482712919E+00  0.88954945011E+01  0.39332033246E+01  0.97346697847E+01  0.00000000000E+00 0. -1.
         13    1    3    3    0    0  0.15084968170E+01  0.85306325927E+02  0.77549059310E+01  0.85671368448E+02  0.00000000000E+00 0. -1.
        -14    1    3    3    0    0  0.49949578507E+02  0.41332201300E+01 -0.10816749009E+02  0.51274223161E+02  0.00000000000E+00 0.  1.
          5    1    4    4  501    0  0.13229488542E+03 -0.15359729753E+01  0.13105128884E+03  0.18626918325E+03  0.41800000000E+01 0.  1.
         -5    1    4    4    0  501 -0.20946098198E+02 -0.15255928849E+02 -0.12626959198E+01  0.26278302756E+02  0.41800000000E+01 0.  1.
</event>
<event>
11    1  0.8041700E-009  0.2805171E+03  0.7561462E-02  0.1008791E+00
         22   -1    0    0    0    0  0.00000000000E+00  0.00000000000E+00  0.30884463164E+03  0.30884463164E+03  0.00000000000E+00 0. -1.
         22   -1    0    0    0    0 -0.00000000000E+00 -0.00000000000E+00 -0.10062690852E+04  0.10062690852E+04  0.00000000000E+00 0. -1.
        -24    2    1    2    0    0  0.94925159780E+02  0.12375574164E+03 -0.93271249981E+03  0.94898492678E+03  0.79331673424E+02 0.  0.
         25    2    1    2    0    0 -0.42022604086E+02 -0.15563367769E+02  0.86893737049E+02  0.15875902846E+03  0.12508313200E+03 0.  0.
         24    2    1    2    0    0 -0.52902555694E+02 -0.10819237387E+03  0.14839430921E+03  0.20736976158E+03  0.80480288570E+02 0.  0.
        -13    1    5    5    0    0 -0.69796503148E+02 -0.85443423423E+02  0.13911520525E+03  0.17755329000E+03  0.00000000000E+00 0.  1.
         14    1    5    5    0    0  0.16893947455E+02 -0.22748950449E+02  0.92791039599E+01  0.29816471579E+02  0.00000000000E+00 0. -1.
         13    1    3    3    0    0  0.61957546556E+02  0.11694118059E+03 -0.83976123209E+03  0.85012522855E+03  0.00000000000E+00 0. -1.
        -14    1    3    3    0    0  0.32967613224E+02  0.68145610527E+01 -0.92951267719E+02  0.98859698233E+02  0.00000000000E+00 0.  1.
          5    1    4    4  501    0 -0.39975749800E+02  0.28671926728E+02  0.10072844095E+03  0.11217767679E+03  0.41800000000E+01 0. -1.
         -5    1    4    4    0  501 -0.20468542862E+01 -0.44235294497E+02 -0.13834703900E+02  0.46581351673E+02  0.41800000000E+01 0. -1.
</event>
<event>
11    1  0.8041700E-009  0.1414205E+03  0.7561462E-02  0.1105983E+00
         22   -1    0    0    0    0  0.00000000000E+00  0.00000000000E+00  0.48216525676E+03  0.48216525676E+03  0.00000000000E+00 0. -1.
         22   -1    0    0    0    0 -0.00000000000E+00 -0.00000000000E+00 -0.68358412514E+02  0.68358412514E+02  0.00000000000E+00 0. -1.
         24    2    1    2    0    0 -0.13846980410E+01  0.70632794708E+02  0.11169051997E+03  0.16112940057E+03  0.92179186359E+02 0.  0.
         25    2    1    2    0    0  0.29610729821E+02 -0.57480639315E+02  0.10755841996E+03  0.17719243199E+03  0.12509006769E+03 0.  0.
        -24    2    1    2    0    0 -0.28226031780E+02 -0.13152155393E+02  0.19455790431E+03  0.21220183671E+03  0.78785489240E+02 0.  0.
        -13    1    3    3    0    0  0.36680613020E+02  0.12874378708E+02  0.70809007123E+02  0.80778292186E+02  0.00000000000E+00 0.  1.
         14    1    3    3    0    0 -0.38065311061E+02  0.57758416000E+02  0.40881512850E+02  0.80351108380E+02  0.00000000000E+00 0. -1.
         11    1    5    5    0    0 -0.53374854089E+02 -0.22428883255E+02  0.13483988984E+03  0.14674374176E+03  0.00000000000E+00 0. -1.
        -12    1    5    5    0    0  0.25148822309E+02  0.92767278623E+01  0.59718014465E+02  0.65458094954E+02  0.00000000000E+00 0.  1.
          5    1    4    4  501    0  0.11360403922E+02  0.39730515459E+02  0.36990454061E+02  0.55617791466E+02  0.41800000000E+01 0.  1.
         -5    1    4    4    0  501  0.18250325898E+02 -0.97211154773E+02  0.70567965904E+02  0.12157464053E+03  0.41800000000E+01 0.  1.
</event>
<event>
11    1  0.8041700E-009  0.1550059E+03  0.7561462E-02  0.1091871E+00
         22   -1    0    0    0    0  0.00000000000E+00  0.00000000000E+00  0.29910463580E+04  0.29910463580E+04  0.00000000000E+00 0.  1.
         22   -1    0    0    0    0 -0.00000000000E+00 -0.00000000000E+00 -0.78102719589E+02  0.78102719589E+02  0.00000000000E+00 0. -1.
         24    2    1    2    0    0  0.47989278891E+02 -0.81076517600E+01 -0.13713719086E+02  0.94653902143E+02  0.80016187076E+02 0.  0.
         25    2    1    2    0    0  0.46425646452E+02  0.12459197187E+02  0.17772940384E+03  0.22258379472E+03  0.12508090357E+03 0.  0.
        -24    2    1    2    0    0 -0.94414925343E+02 -0.43515454265E+01  0.27489279536E+04  0.27519113807E+04  0.86476811481E+02 0.  0.
        -11    1    3    3    0    0  0.46091094879E+02 -0.10278016177E+02  0.26625326147E+02  0.54211941822E+02  0.00000000000E+00 0.  1.
         12    1    3    3    0    0  0.18981840122E+01  0.21703644171E+01 -0.40339045233E+02  0.40441960320E+02  0.00000000000E+00 0. -1.
         11    1    5    5    0    0  0.12628266928E+02 -0.14944430932E+02  0.31434055794E+03  0.31494887761E+03  0.00000000000E+00 0. -1.
        -12    1    5    5    0    0 -0.10704319227E+03  0.10592885506E+02  0.24345873957E+04  0.24369625031E+04  0.00000000000E+00 0.  1.
          5    1    4    4  501    0  0.86322370414E+02  0.28005358556E+02  0.11598431326E+03  0.14732849372E+03  0.41800000000E+01 0. -1.
         -5    1    4    4    0  501 -0.39896723962E+02 -0.15546161370E+02  0.61745090587E+02  0.75255300995E+02  0.41800000000E+01 0. -1.
</event>
<event>
11    1  0.8041700E-009  0.1427706E+03  0.7561462E-02  0.1104503E+00
         22   -1    0    0    0    0  0.00000000000E+00  0.00000000000E+00  0.21013000048E+04  0.21013000048E+04  0.00000000000E+00 0.  1.
         22   -1    0    0    0    0 -0.00000000000E+00 -0.00000000000E+00 -0.23179336773E+03  0.23179336773E+03  0.00000000000E+00 0. -1.
        -24    2    1    2    0    0 -0.42490365780E+01  0.83487254813E+01 -0.18519299128E+03  0.20166222646E+03  0.79268241029E+02 0.  0.
         25    2    1    2    0    0 -0.52290618972E+02  0.31414691643E+02  0.94136947511E+02  0.16802055721E+03  0.12509177061E+03 0.  0.
         24    2    1    2    0    0  0.56539655550E+02 -0.39763417124E+02  0.19605626809E+04  0.19634105889E+04  0.79982829378E+02 0.  0.
        -11    1    5    5    0    0  0.41529250516E+02 -0.63727294443E+02  0.12771137550E+04  0.12793769538E+04  0.00000000000E+00 0.  1.
         12    1    5    5    0    0  0.15010405034E+02  0.23963877319E+02  0.68344892582E+03  0.68403363505E+03  0.00000000000E+00 0. -1.
         13    1    3    3    0    0  0.29425744281E+01  0.43514906639E+02 -0.11037618753E+03  0.11868070027E+03  0.00000000000E+00 0. -1.
        -14    1    3    3    0    0 -0.71916110062E+01 -0.35166181157E+02 -0.74816803750E+02  0.82981526194E+02  0.00000000000E+00 0.  1.
          5    1    4    4  501    0 -0.59380717137E+02  0.63362309580E+02  0.10208255101E+03  0.13408643281E+03  0.41800000000E+01 0. -1.
         -5    1    4    4    0  501  0.70900981649E+01 -0.31947617937E+02 -0.79456034953E+01  0.33934124399E+02  0.41800000000E+01 0. -1.
</event>
<event>
11    1  0.8041700E-009  0.1367950E+03  0.7561462E-02  0.1111191E+00
         22   -1    0    0    0    0  0.00000000000E+00  0.00000000000E+00  0.20014545928E+04  0.20014545928E+04  0.00000000000E+00 0.  1.
         22   -1    0    0    0    0 -0.00000000000E+00 -0.00000000000E+00 -0.60103165818E+02  0.60103165818E+02  0.00000000000E+00 0. -1.
         24    2    1    2    0    0 -0.48618949827E+02  0.17393764206E+02  0.19816133975E+02  0.97173510178E+02  0.79897851029E+02 0.  0.
         25    2    1    2    0    0  0.50734451196E+02 -0.71367257801E+02  0.27112016552E+03  0.31116015096E+03  0.12508886989E+03 0.  0.
        -24    2    1    2    0    0 -0.21155013691E+01  0.53973493595E+02  0.16504151275E+04  0.16532240975E+04  0.79763463359E+02 0.  0.
        -13    1    3    3    0    0 -0.24714473219E+02 -0.18087639928E+02  0.39580808378E+02  0.50046061748E+02  0.00000000000E+00 0.  1.
         14    1    3    3    0    0 -0.23904476609E+02  0.35481404134E+02 -0.19764674403E+02  0.47127448430E+02  0.00000000000E+00 0. -1.
         13    1    5    5    0    0  0.88335474339E+01  0.21794010040E+00  0.19751660291E+02  0.21638094703E+02  0.00000000000E+00 0. -1.
        -14    1    5    5    0    0 -0.10949048803E+02  0.53755553495E+02  0.16306634672E+04  0.16315860028E+04  0.00000000000E+00 0.  1.
          5    1    4    4  501    0  0.79142255461E+02 -0.84437424564E+02  0.17374043119E+03  0.20879747387E+03  0.41800000000E+01 0.  1.
         -5    1    4    4    0  501 -0.28407804264E+02  0.13070166763E+02  0.97379734331E+02  0.10236267709E+03  0.41800000000E+01 0.  1.
</event>
<event>
11    1  0.8041700E-009  0.2913834E+03  0.7561462E-02  0.1003905E+00
         22   -1    0    0    0    0  0.00000000000E+00  0.00000000000E+00  0.14684503332E+03  0.14684503332E+03  0.00000000000E+00 0. -1.
         22   -1    0    0    0    0 -0.00000000000E+00 -0.00000000000E+00 -0.15956204508E+04  0.15956204508E+04  0.00000000000E+00 0.  1.
         24    2    1    2    0    0  0.20386284863E+02  0.15557221655E+00 -0.83319309731E+03  0.83740668291E+03  0.81385443208E+02 0.  0.
         25    2    1    2    0    0 -0.16294175040E+03  0.21789999627E+03 -0.54118022512E+03  0.61850906126E+03  0.12508797066E+03 0.  0.
        -24    2    1    2    0    0  0.14255546554E+03 -0.21805556849E+03 -0.74402095072E+02  0.28654973998E+03  0.93299464234E+02 0.  0.
        -13    1    3    3    0    0  0.33512211585E+02 -0.25155389035E+02 -0.69713614889E+03  0.69839435279E+03  0.00000000000E+00 0.  1.
         14    1    3    3    0    0 -0.13125926722E+02  0.25310961252E+02 -0.13605694842E+03  0.13901233012E+03  0.00000000000E+00 0. -1.
         13    1    5    5    0    0  0.15170083885E+03 -0.18729592751E+03 -0.80041451502E+02  0.25396760212E+03  0.00000000000E+00 0. -1.
        -14    1    5    5    0    0 -0.91453733131E+01 -0.30759640980E+02  0.56393564298E+01  0.32582137855E+02  0.00000000000E+00 0.  1.
          5    1    4    4  501    0 -0.16709587931E+03  0.18834159923E+03 -0.52923269227E+03  0.58608728518E+03  0.41800000000E+01 0.  1.
         -5    1    4    4    0  501  0.41541289155E+01  0.29558397046E+02 -0.11947532848E+02  0.32421776079E+02  0.41800000000E+01 0.  1.
</event>
<event>
11    1  0.8041700E-009  0.1561815E+03  0.7561462E-02  0.1090725E+00
         22   -1    0    0    0    0  0.00000000000E+00  0.00000000000E+00  0.66390165190E+03  0.66390165190E+03  0.00000000000E+00 0. -1.
         22   -1    0    0    0    0 -0.00000000000E+00 -0.00000000000E+00 -0.45438228220E+03  0.45438228220E+03  0.00000000000E+00 0. -1.
         24    2    1    2    0    0  0.92340290964E+02 -0.11489425729E+02 -0.39512929097E+03  0.41388862590E+03  0.80733523610E+02 0.  0.
         25    2    1    2    0    0 -0.10169248552E+03 -0.49171981931E+01  0.93256032562E+02  0.18630579889E+03  0.12509045783E+03 0.  0.
        -24    2    1    2    0    0  0.93521945530E+01  0.16406623922E+02  0.51139262811E+03  0.51808950930E+03  0.80855913301E+02 0.  0.
        -13    1    3    3    0    0  0.52954791935E+02  0.31501707271E+02 -0.25009774317E+03  0.25757610271E+03  0.00000000000E+00 0.  1.
         14    1    3    3    0    0  0.39385499028E+02 -0.42991133000E+02 -0.14503154780E+03  0.15631252319E+03  0.00000000000E+00 0. -1.
         13    1    5    5    0    0  0.40717487570E+02  0.16760806888E+02  0.39833176739E+03  0.40075807584E+03  0.00000000000E+00 0. -1.
        -14    1    5    5    0    0 -0.31365293017E+02 -0.35418296673E+00  0.11306086072E+03  0.11733143347E+03  0.00000000000E+00 0.  1.
          5    1    4    4  501    0 -0.72231342680E+02 -0.60942778972E+02  0.37199085034E+02  0.10164956223E+03  0.41800000000E+01 0. -1.
         -5    1    4    4    0  501 -0.29461142836E+02  0.56025580779E+02  0.56056947527E+02  0.84656236657E+02  0.41800000000E+01 0. -1.
</event>
<event>
11    1  0.8041700E-009  0.1675254E+03  0.7561462E-02  0.1080205E+00
         22   -1    0    0    0    0  0.00000000000E+00  0.00000000000E+00  0.27064969201E+03  0.27064969201E+03  0.00000000000E+00 0.  1.
         22   -1    0    0    0    0 -0.00000000000E+00 -0.00000000000E+00 -0.11162560886E+04  0.11162560886E+04  0.00000000000E+00 0. -1.
         24    2    1    2    0    0 -0.27483738357E+02 -0.13931315854E+02 -0.83197665742E+03  0.83638964643E+03  0.80081488030E+02 0.  0.
         25    2    1    2    0    0 -0.27009692165E+02 -0.85295892263E+02 -0.23978847379E+03  0.28487040087E+03  0.12509084868E+03 0.  0.
        -24    2    1    2    0    0  0.54493430523E+02  0.99227208116E+02  0.22615873462E+03  0.26564573332E+03  0.81266903397E+02 0.  0.
        -11    1    3    3    0    0  0.16934073275E+02 -0.19734528414E+02 -0.11029250529E+03  0.11331659707E+03  0.00000000000E+00 0.  1.
         12    1    3    3    0    0 -0.44417811632E+02  0.58032125599E+01 -0.72168415213E+03  0.72307304935E+03  0.00000000000E+00 0. -1.
         11    1    5    5    0    0  0.23989013622E+01 -0.10438000522E+02  0.53576030883E+02  0.54636047330E+02  0.00000000000E+00 0. -1.
        -12    1    5    5    0    0  0.52094529160E+02  0.10966520864E+03  0.17258270373E+03  0.21100968599E+03  0.00000000000E+00 0.  1.
          5    1    4    4  501    0  0.33497643209E+02 -0.86278688850E+02 -0.15583115293E+03  0.18129237401E+03  0.41800000000E+01 0. -1.
         -5    1    4    4    0  501 -0.60507335374E+02  0.98279658711E+00 -0.83957320854E+02  0.10357802686E+03  0.41800000000E+01 0. -1.
</event>
<event>
11    1  0.8041700E-009  0.1612073E+03  0.7561462E-02  0.1085947E+00
         22   -1    0    0    0    0  0.00000000000E+00  0.00000000000E+00  0.27259288669E+03  0.27259288669E+03  0.00000000000E+00 0.  1.
         22   -1    0    0    0    0 -0.00000000000E+00 -0.00000000000E+00 -0.11959527940E+04  0.11959527940E+04  0.00000000000E+00 0. -1.
         24    2    1    2    0    0 -0.91130446804E+02  0.48146995515E+02 -0.11083553504E+04  0.11159780803E+04  0.79577644377E+02 0.  0.
         25    2    1    2    0    0  0.56533996041E+02 -0.53603600023E+02 -0.78587987012E+00  0.14736920287E+03  0.12509047008E+03 0.  0.
        -24    2    1    2    0    0  0.34596450763E+02  0.54566045074E+01  0.18578132298E+03  0.20519839748E+03  0.79780908896E+02 0.  0.
        -11    1    3    3    0    0 -0.48181922465E+02 -0.16263369723E+02 -0.34876655465E+03  0.35245440058E+03  0.00000000000E+00 0.  1.
         12    1    3    3    0    0 -0.42948524339E+02  0.64410365239E+02 -0.75958879575E+03  0.76352367974E+03  0.00000000000E+00 0. -1.
         13    1    5    5    0    0  0.38695646392E+02  0.20766438720E+01  0.29185473866E+02  0.48512445663E+02  0.00000000000E+00 0. -1.
        -14    1    5    5    0    0 -0.40991956290E+01  0.33799606354E+01  0.15659584911E+03  0.15668595182E+03  0.00000000000E+00 0.  1.
          5    1    4    4  501    0  0.79013732693E+02 -0.11916425373E+02  0.35520487913E+02  0.87546265536E+02  0.41800000000E+01 0.  1.
         -5    1    4    4    0  501 -0.22479736652E+02 -0.41687174649E+02 -0.36306367783E+02  0.59822937338E+02  0.41800000000E+01 0.  1.
</event>
<event>
11    1  0.8041700E-009  0.1646657E+03  0.7561462E-02  0.1082769E+00
         22   -1    0    0    0    0  0.00000000000E+00  0.00000000000E+00  0.25251729687E+03  0.25251729687E+03  0.00000000000E+00 0. -1.
         22   -1    0    0    0    0 -0.00000000000E+00 -0.00000000000E+00 -0.16956782518E+04  0.16956782518E+04  0.00000000000E+00 0.  1.
        -24    2    1    2    0    0 -0.84435921318E+02 -0.10706191722E+03 -0.88812299862E+03  0.90218426235E+03  0.81131397325E+02 0.  0.
         25    2    1    2    0    0  0.10757443401E+03 -0.22218672870E+02 -0.76638274970E+03  0.78425495418E+03  0.12508951132E+03 0.  0.
         24    2    1    2    0    0 -0.23138512691E+02  0.12928059009E+03  0.21134479344E+03  0.26175633209E+03  0.81245885643E+02 0.  0.
        -13    1    5    5    0    0  0.18589894660E+01  0.13538368027E+02 -0.54657820073E+01  0.14717949029E+02  0.00000000000E+00 0.  1.
         14    1    5    5    0    0 -0.24997502157E+02  0.11574222207E+03  0.21681057545E+03  0.24703838307E+03  0.00000000000E+00 0. -1.
         11    1    3    3    0    0  0.57568755052E+01  0.83591851863E+01 -0.30574341064E+02  0.32215026371E+02  0.00000000000E+00 0. -1.
        -12    1    3    3    0    0 -0.90192796823E+02 -0.11542110241E+03 -0.85754865756E+03  0.86996923598E+03  0.00000000000E+00 0.  1.
          5    1    4    4  501    0  0.60884091670E+02  0.29113702101E+02 -0.15728550487E+03  0.17120362937E+03  0.41800000000E+01 0. -1.
         -5    1    4    4    0  501  0.46690342339E+02 -0.51332374971E+02 -0.60909724483E+03  0.61305132481E+03  0.41800000000E+01 0. -1.
</event>
<event>
11    1  0.8041700E-009  0.1658391E+03  0.7561462E-02  0.1081710E+00
         22   -1    0    0    0    0  0.00000000000E+00  0.00000000000E+00  0.31427487455E+04  0.31427487455E+04  0.00000000000E+00 0.  1.
         22   -1    0    0    0    0 -0.00000000000E+00 -0.00000000000E+00 -0.25663688945E+04  0.25663688945E+04  0.00000000000E+00 0.  1.
        -24    2    1    2    0    0 -0.67827488417E+01 -0.66721552922E+02 -0.24923572862E+04  0.24945441333E+04  0.80048857204E+02 0.  0.
         25    2    1    2    0    0 -0.46943561870E+01  0.17362552043E+03  0.88998791153E+02  0.23181150932E+03  0.12509169717E+03 0.  0.
         24    2    1    2    0    0  0.11477105029E+02 -0.10690396751E+03  0.29797383460E+04  0.29827619974E+04  0.80425993617E+02 0.  0.
        -13    1    5    5    0    0 -0.79141418698E+01 -0.10556962581E+03  0.27949414810E+04  0.27969457380E+04  0.00000000000E+00 0.  1.
         14    1    5    5    0    0  0.19391246899E+02 -0.13343417018E+01  0.18479686502E+03  0.18581625937E+03  0.00000000000E+00 0. -1.
         11    1    3    3    0    0 -0.25271824688E+02  0.78801178412E+01 -0.80933129451E+03  0.80976410494E+03  0.00000000000E+00 0. -1.
        -12    1    3    3    0    0  0.18489075846E+02 -0.74601670764E+02 -0.16830259917E+04  0.16847800283E+04  0.00000000000E+00 0.  1.
          5    1    4    4  501    0 -0.48656634148E+02  0.98554702477E+02  0.93838305376E+02  0.14458076422E+03  0.41800000000E+01 0. -1.
         -5    1    4    4    0  501  0.43962277961E+02  0.75070817956E+02 -0.48395142229E+01  0.87230745096E+02  0.41800000000E+01 0. -1.
</event>
<event>
11    1  0.8041700E-009  0.1329599E+03  0.7561462E-02  0.1115685E+00
         22   -1    0    0    0    0  0.00000000000E+00  0.00000000000E+00  0.30956362105E+04  0.30956362105E+04  0.00000000000E+00 0. -1.
         22   -1    0    0    0    0 -0.00000000000E+00 -0.00000000000E+00 -0.11881022306E+03  0.11881022306E+03  0.00000000000E+00 0.  1.
        -24    2    1    2    0    0 -0.44945103547E+02  0.32458999203E+01 -0.90883555652E+02  0.13730263431E+03  0.92528884691E+02 0.  0.
         25    2    1    2    0    0  0.46044444805E+02  0.20651950053E+02  0.11909444963E+04  0.11985591259E+04  0.12509432863E+03 0.  0.
         24    2    1    2    0    0 -0.10993412574E+01 -0.23897849973E+02  0.18767650468E+04  0.18785846734E+04  0.79126596959E+02 0.  0.
        -11    1    5    5    0    0 -0.29134635551E+02  0.16263149861E+02  0.68086495031E+03  0.68168203555E+03  0.00000000000E+00 0.  1.
         12    1    5    5    0    0  0.28035294294E+02 -0.40160999834E+02  0.11959000965E+04  0.11969026378E+04  0.00000000000E+00 0. -1.
         13    1    3    3    0    0  0.42791307334E+01  0.33923975362E+02 -0.63399278757E+01  0.34775591291E+02  0.00000000000E+00 0. -1.
        -14    1    3    3    0    0 -0.49224234281E+02 -0.30678075441E+02 -0.84543627776E+02  0.10252704302E+03  0.00000000000E+00 0.  1.
          5    1    4    4  501    0 -0.19004950199E+02 -0.28155365253E+02  0.70569376625E+03  0.70652323164E+03  0.41800000000E+01 0. -1.
         -5    1    4    4    0  501  0.65049395003E+02  0.48807315305E+02  0.48525073001E+03  0.49203589421E+03  0.41800000000E+01 0. -1.
</event>
<event>
11    1  0.8041700E-009  0.2718301E+03  0.7561462E-02  0.1012872E+00
         22   -1    0    0    0    0  0.00000000000E+00  0.00000000000E+00  0.67427322627E+03  0.67427322627E+03  0.00000000000E+00 0. -1.
         22   -1    0    0    0    0 -0.00000000000E+00 -0.00000000000E+00 -0.17722084744E+04  0.17722084744E+04  0.00000000000E+00 0. -1.
         24    2    1    2    0    0  0.76208342493E+02 -0.22807949000E+03 -0.14821305875E+04  0.15039179653E+04  0.85030598857E+02 0.  0.
         25    2    1    2    0    0 -0.88300622037E+02  0.23061916419E+03 -0.20708137169E+03  0.34571384928E+03  0.12511263860E+03 0.  0.
        -24    2    1    2    0    0  0.12092279544E+02 -0.25396741866E+01  0.59127671101E+03  0.59684988613E+03  0.80429872664E+02 0.  0.
        -11    1    3    3    0    0 -0.30797817222E+01 -0.12174294349E+03 -0.65638172520E+03  0.66758355172E+03  0.00000000000E+00 0.  1.
         12    1    3    3    0    0  0.79288124215E+02 -0.10633654652E+03 -0.82574886227E+03  0.83633441356E+03  0.00000000000E+00 0. -1.
         11    1    5    5    0    0  0.32982444167E+02 -0.31284746124E+02  0.36010847042E+03  0.36296651007E+03  0.00000000000E+00 0. -1.
        -12    1    5    5    0    0 -0.20890164623E+02  0.28745071937E+02  0.23116824059E+03  0.23388337606E+03  0.00000000000E+00 0.  1.
          5    1    4    4  501    0 -0.11295108792E+03  0.18841308116E+03 -0.19811502963E+03  0.29584535619E+03  0.41800000000E+01 0.  1.
         -5    1    4    4    0  501  0.24650465884E+02  0.42206083028E+02 -0.89663420637E+01  0.49868493088E+02  0.41800000000E+01 0.  1.
</event>
<event>
11    1  0.8041700E-009  0.1610277E+03  0.7561462E-02  0.1086115E+00
         22   -1    0    0    0    0  0.00000000000E+00  0.00000000000E+00  0.31525809231E+03  0.31525809231E+03  0.00000000000E+00 0.  1.
         22   -1    0    0    0    0 -0.00000000000E+00 -0.00000000000E+00 -0.17400896563E+04  0.17400896563E+04  0.00000000000E+00 0.  1.
         24    2    1    2    0    0  0.14547108005E+01 -0.99560077887E+01 -0.16007996147E+04  0.16028379877E+04  0.80180860356E+02 0.  0.
         25    2    1    2    0    0  0.60850068701E+02 -0.71288660438E+02 -0.72976736625E+02  0.17250654495E+03  0.12509236585E+03 0.  0.
        -24    2    1    2    0    0 -0.62304779501E+02  0.81244668227E+02  0.24894478732E+03  0.28000321589E+03  0.77108443838E+02 0.  0.
        -13    1    3    3    0    0  0.16459531311E+02 -0.40818044897E+02 -0.10891436544E+04  0.10900325357E+04  0.00000000000E+00 0.  1.
         14    1    3    3    0    0 -0.15004820510E+02  0.30862037108E+02 -0.51165596029E+03  0.51280545207E+03  0.00000000000E+00 0. -1.
         11    1    5    5    0    0 -0.57954745329E+02  0.19837965287E+02  0.84139508515E+02  0.10407571410E+03  0.00000000000E+00 0. -1.
        -12    1    5    5    0    0 -0.43500341727E+01  0.61406702940E+02  0.16480527880E+03  0.17592750179E+03  0.00000000000E+00 0.  1.
          5    1    4    4  501    0  0.90988063268E+02 -0.76054240964E+02 -0.35211275511E+02  0.12377552888E+03  0.41800000000E+01 0.  1.
         -5    1    4    4    0  501 -0.30137994567E+02  0.47655805261E+01 -0.37765461114E+02  0.48731016072E+02  0.41800000000E+01 0.  1.
</event>
<event>
11    1  0.8041700E-009  0.1340389E+03  0.7561462E-02  0.1114404E+00
         22   -1    0    0    0    0  0.00000000000E+00  0.00000000000E+00  0.16861834512E+03  0.16861834512E+03  0.00000000000E+00 0.  1.
         22   -1    0    0    0    0 -0.00000000000E+00 -0.00000000000E+00 -0.37924715487E+03  0.37924715487E+03  0.00000000000E+00 0. -1.
        -24    2    1    2    0    0 -0.14429610313E+02 -0.16446412610E+02 -0.26757425572E+03  0.27589544211E+03  0.63589421373E+02 0.  0.
         25    2    1    2    0    0  0.38740406183E+02  0.53390818099E+02 -0.31245587367E+02  0.14482846730E+03  0.12509036607E+03 0.  0.
         24    2    1    2    0    0 -0.24310795870E+02 -0.36944405490E+02  0.88191033339E+02  0.12714159057E+03  0.80196145787E+02 0.  0.
        -11    1    5    5    0    0  0.13282207767E+02 -0.96367024881E+01  0.77823205893E+02  0.79534485938E+02  0.00000000000E+00 0.  1.
         12    1    5    5    0    0 -0.37593003637E+02 -0.27307703001E+02  0.10367827446E+02  0.47607104634E+02  0.00000000000E+00 0. -1.
         13    1    3    3    0    0 -0.75256225707E+01 -0.36127551760E+02 -0.22981249402E+03  0.23275656252E+03  0.00000000000E+00 0. -1.
        -14    1    3    3    0    0 -0.69039877425E+01  0.19681139150E+02 -0.37761761706E+02  0.43138879588E+02  0.00000000000E+00 0.  1.
          5    1    4    4  501    0 -0.36115781847E+02  0.18913399946E+02  0.22105416325E+02  0.46563808123E+02  0.41800000000E+01 0.  1.
         -5    1    4    4    0  501  0.74856188030E+02  0.34477418153E+02 -0.53351003693E+02  0.98264659181E+02  0.41800000000E+01 0.  1.
</event>
<event>
11    1  0.8041700E-009  0.1455231E+03  0.7561462E-02  0.1101543E+00
         22   -1    0    0    0    0  0.00000000000E+00  0.00000000000E+00  0.23975375241E+03  0.23975375241E+03  0.00000000000E+00 0.  1.
         22   -1    0    0    0    0 -0.00000000000E+00 -0.00000000000E+00 -0.13285171222E+04  0.13285171222E+04  0.00000000000E+00 0. -1.
         24    2    1    2    0    0 -0.13873308382E+02 -0.12860023330E+02 -0.12385377825E+04  0.12412848290E+04  0.80338901412E+02 0.  0.
         25    2    1    2    0    0  0.16869785747E+01 -0.63717229541E+02  0.16678353966E+01  0.14040673945E+03  0.12509412285E+03 0.  0.
        -24    2    1    2    0    0  0.12186329808E+02  0.76577252872E+02  0.14810657734E+03  0.18657930615E+03  0.82847431694E+02 0.  0.
        -11    1    3    3    0    0  0.77130948374E+01 -0.31955717281E+02 -0.23021219454E+03  0.23254744508E+03  0.00000000000E+00 0.  1.
         12    1    3    3    0    0 -0.21586403220E+02  0.19095693950E+02 -0.10083255880E+04  0.10087373839E+04  0.00000000000E+00 0. -1.
         13    1    5    5    0    0  0.15928353348E+02  0.22248473330E+02 -0.14657405157E+01  0.27401740842E+02  0.00000000000E+00 0. -1.
        -14    1    5    5    0    0 -0.37420235401E+01  0.54328779542E+02  0.14957231786E+03  0.15917756530E+03  0.00000000000E+00 0.  1.
          5    1    4    4  501    0  0.35244919583E+02 -0.90132163190E+02 -0.49185898165E+01  0.96993175654E+02  0.41800000000E+01 0. -1.
         -5    1    4    4    0  501 -0.33557941009E+02  0.26414933648E+02  0.65864252131E+01  0.43413563796E+02  0.41800000000E+01 0. -1.
</event>
<event>
11    1  0.8041700E-009  0.1274493E+03  0.7561462E-02  0.1122443E+00
         22   -1    0    0    0    0  0.00000000000E+00  0.00000000000E+00  0.37038613190E+02  0.37038613190E+02  0.00000000000E+00 0. -1.
         22   -1    0    0    0    0 -0.00000000000E+00 -0.00000000000E+00 -0.63099242568E+03  0.63099242568E+03  0.00000000000E+00 0. -1.
        -24    2    1    2    0    0 -0.18632914208E+02 -0.18693365097E+02 -0.19276242539E+03  0.21065710007E+03  0.80761586030E+02 0.  0.
         25    2    1    2    0    0 -0.58138613276E+01  0.28804001953E+02 -0.30408114343E+03  0.33011589106E+03  0.12509071999E+03 0.  0.
         24    2    1    2    0    0  0.24446775535E+02 -0.10110636856E+02 -0.97110243669E+02  0.12725804774E+03  0.77873881867E+02 0.  0.
        -11    1    5    5    0    0 -0.31358384717E+01 -0.40727087842E+02 -0.44038497300E+02  0.60065950517E+02  0.00000000000E+00 0.  1.
         12    1    5    5    0    0  0.27582614007E+02  0.30616450986E+02 -0.53071746369E+02  0.67192097221E+02  0.00000000000E+00 0. -1.
         13    1    3    3    0    0 -0.28725907289E+02 -0.13861032350E+02 -0.19633624246E+03  0.19891009545E+03  0.00000000000E+00 0. -1.
        -14    1    3    3    0    0  0.10092993082E+02 -0.48323327475E+01  0.35738170729E+01  0.11747004622E+02  0.00000000000E+00 0.  1.
          5    1    4    4  501    0 -0.69158510340E+01  0.74674134031E+02 -0.23790939421E+03  0.24948428316E+03  0.41800000000E+01 0. -1.
         -5    1    4    4    0  501  0.11019897064E+01 -0.45870132078E+02 -0.66171749224E+02  0.80631607906E+02  0.41800000000E+01 0. -1.
</event>
<event>
11    1  0.8041700E-009  0.1340934E+03  0.7561462E-02  0.1114339E+00
         22   -1    0    0    0    0  0.00000000000E+00  0.00000000000E+00  0.92719229221E+02  0.92719229221E+02  0.00000000000E+00 0. -1.
         22   -1    0    0    0    0 -0.00000000000E+00 -0.00000000000E+00 -0.20808416630E+04  0.20808416630E+04  0.00000000000E+00 0.  1.
        -24    2    1    2    0    0 -0.10940982452E+02  0.16894921750E+02 -0.15921347837E+04  0.15942989238E+04  0.80565163498E+02 0.  0.
         25    2    1    2    0    0  0.18782510824E+02 -0.63481242742E+02 -0.44854785220E+03  0.47034547760E+03  0.12508813572E+03 0.  0.
         24    2    1    2    0    0 -0.78415283722E+01  0.46586320992E+02  0.52560202097E+02  0.10891649081E+03  0.82876125971E+02 0.  0.
        -13    1    5    5    0    0  0.12454229496E+02  0.50504880550E+02 -0.44893361208E+00  0.52019730229E+02  0.00000000000E+00 0.  1.
         14    1    5    5    0    0 -0.20295757869E+02 -0.39185595576E+01  0.53009135709E+02  0.56896760585E+02  0.00000000000E+00 0. -1.
         11    1    3    3    0    0 -0.93603944686E+01  0.23157944461E+02 -0.14403783848E+03  0.14618757229E+03  0.00000000000E+00 0. -1.
        -12    1    3    3    0    0 -0.15805879835E+01 -0.62630227101E+01 -0.14480969452E+04  0.14481113515E+04  0.00000000000E+00 0.  1.
          5    1    4    4  501    0 -0.43031668421E+01 -0.45231606557E+02 -0.43550130451E+03  0.43788500101E+03  0.41800000000E+01 0. -1.
         -5    1    4    4    0  501  0.23085677666E+02 -0.18249636186E+02 -0.13046547686E+02  0.32460476595E+02  0.41800000000E+01 0. -1.
</event>
<event>
11    1  0.8041700E-009  0.1835519E+03  0.7561462E-02  0.1066805E+00
         22   -1    0    0    0    0  0.00000000000E+00  0.00000000000E+00  0.59181481303E+03  0.59181481303E+03  0.00000000000E+00 0. -1.
         22   -1    0    0    0    0 -0.00000000000E+00 -0.00000000000E+00 -0.16171621674E+04  0.16171621674E+04  0.00000000000E+00 0.  1.
        -24    2    1    2    0    0  0.12561275528E+03  0.49862494106E+02 -0.15625687252E+04  0.15704697302E+04  0.80556315347E+02 0.  0.
         25    2    1    2    0    0 -0.96744654792E+02 -0.39077974947E+02  0.96682803358E+02  0.18943009832E+03  0.12509828666E+03 0.  0.
         24    2    1    2    0    0 -0.28868100485E+02 -0.10784519160E+02  0.44053856750E+03  0.44907715188E+03  0.81525369070E+02 0.  0.
        -11    1    5    5    0    0 -0.35614705507E+02  0.24066100840E+02  0.14001257407E+03  0.14646195873E+03  0.00000000000E+00 0.  1.
         12    1    5    5    0    0  0.67466050213E+01 -0.34850620000E+02  0.30052599343E+03  0.30261519315E+03  0.00000000000E+00 0. -1.
         11    1    3    3    0    0  0.33564218300E-02  0.14697544356E+02 -0.45752280173E+02  0.48055061777E+02  0.00000000000E+00 0. -1.
        -12    1    3    3    0    0  0.12560939886E+03  0.35164949751E+02 -0.15168164451E+04  0.15224146685E+04  0.00000000000E+00 0.  1.
          5    1    4    4  501    0  0.89243367199E+01  0.32685424198E+02  0.12315861083E+02  0.36292334936E+02  0.41800000000E+01 0.  1.
         -5    1    4    4    0  501 -0.10566899151E+03 -0.71763399145E+02  0.84366942275E+02  0.15313776338E+03  0.41800000000E+01 0.  1.
</event>
<event>
11    1  0.8041700E-009  0.1331704E+03  0.7561462E-02  0.1115434E+00
         22   -1    0    0    0    0  0.00000000000E+00  0.00000000000E+00  0.37904766350E+02  0.37904766350E+02  0.00000000000E+00 0. -1.
         22   -1    0    0    0    0 -0.00000000000E+00 -0.00000000000E+00 -0.14488799665E+04  0.14488799665E+04  0.00000000000E+00 0. -1.
        -24    2    1    2    0    0  0.60485092960E+01 -0.13043822801E+02 -0.67642188050E+03  0.68073778664E+03  0.75170791955E+02 0.  0.
         25    2    1    2    0    0 -0.46131602756E+02  0.32639843518E+02 -0.69105108511E+03  0.70455177435E+03  0.12509243122E+03 0.  0.
         24    2    1    2    0    0  0.40083093460E+02 -0.19596020717E+02 -0.43502234586E+02  0.10149517191E+03  0.80113463894E+02 0.  0.
        -11    1    5    5    0    0  0.24217209695E+02  0.30469809600E+02 -0.22300448379E+02  0.44857469170E+02  0.00000000000E+00 0.  1.
         12    1    5    5    0    0  0.15865883765E+02 -0.50065830316E+02 -0.21201786208E+02  0.56637702737E+02  0.00000000000E+00 0. -1.
         11    1    3    3    0    0  0.31537631326E+02  0.17827827899E+02 -0.35004529372E+03  0.35191499157E+03  0.00000000000E+00 0. -1.
        -12    1    3    3    0    0 -0.25489122030E+02 -0.30871650701E+02 -0.32637658678E+03  0.32882279507E+03  0.00000000000E+00 0.  1.
          5    1    4    4  501    0  0.34723516590E+02  0.27266009188E+02 -0.39838877222E+03  0.40084940325E+03  0.41800000000E+01 0.  1.
         -5    1    4    4    0  501 -0.80855119346E+02  0.53738343301E+01 -0.29266231290E+03  0.30370237110E+03  0.41800000000E+01 0.  1.
</event>
<event>
11    1  0.8041700E-009  0.1606433E+03  0.7561462E-02  0.1086474E+00
         22   -1    0    0    0    0  0.00000000000E+00  0.00000000000E+00  0.94116699535E+03  0.94116699535E+03  0.00000000000E+00 0. -1.
         22   -1    0    0    0    0 -0.00000000000E+00 -0.00000000000E+00 -0.66582050906E+02  0.66582050906E+02  0.00000000000E+00 0. -1.
         24    2    1    2    0    0 -0.98643697275E+00  0.19555491350E+02 -0.25518606188E+01  0.83201244714E+02  0.80824159937E+02 0.  0.
         25    2    1    2    0    0  0.25034533307E+02 -0.10937171832E+03  0.48840959372E+03  0.51650744301E+03  0.12508839605E+03 0.  0.
        -24    2    1    2    0    0 -0.24048096334E+02  0.89816226966E+02  0.38872721134E+03  0.40804035853E+03  0.82114698956E+02 0.  0.
        -11    1    3    3    0    0 -0.17414954658E+02  0.41683752106E+02  0.18198229888E+02  0.48703094424E+02  0.00000000000E+00 0.  1.
         12    1    3    3    0    0  0.16428517686E+02 -0.22128260756E+02 -0.20750090507E+02  0.34498150291E+02  0.00000000000E+00 0. -1.
         11    1    5    5    0    0  0.95189690668E+01  0.80095811189E+02  0.32988886122E+03  0.33960655250E+03  0.00000000000E+00 0. -1.
        -12    1    5    5    0    0 -0.33567065401E+02  0.97204157765E+01  0.58838350123E+02  0.68433806029E+02  0.00000000000E+00 0.  1.
          5    1    4    4  501    0  0.46514958474E+02 -0.11546182035E+03  0.27497095645E+03  0.30186349997E+03  0.41800000000E+01 0.  1.
         -5    1    4    4    0  501 -0.21480425167E+02  0.60901020321E+01  0.21343863727E+03  0.21464394305E+03  0.41800000000E+01 0.  1.
</event>
<event>
11    1  0.8041700E-009  0.1422433E+03  0.7561462E-02  0.1105079E+00
         22   -1    0    0    0    0  0.00000000000E+00  0.00000000000E+00  0.13193310240E+04  0.13193310240E+04  0.00000000000E+00 0.  1.
         22   -1    0    0    0    0 -0.00000000000E+00 -0.00000000000E+00 -0.31208045787E+03  0.31208045787E+03  0.00000000000E+00 0. -1.
        -24    2    1    2    0    0  0.27414095590E+02  0.55160511155E+02 -0.27010979089E+03  0.28821411617E+03  0.79459820022E+02 0.  0.
         25    2    1    2    0    0 -0.19584171690E+01  0.12546190062E+02  0.99401226631E+02  0.16027835163E+03  0.12508918363E+03 0.  0.
         24    2    1    2    0    0 -0.25455678421E+02 -0.67706701217E+02  0.11779591304E+04  0.11829190141E+04  0.80482867908E+02 0.  0.
        -13    1    5    5    0    0 -0.23932965987E+02 -0.80929764148E+02  0.74663187328E+03  0.75138643040E+03  0.00000000000E+00 0.  1.
         14    1    5    5    0    0 -0.15227124337E+01  0.13223062931E+02  0.43132725712E+03  0.43153258369E+03  0.00000000000E+00 0. -1.
         11    1    3    3    0    0  0.44248878425E+02  0.43857785481E+02 -0.10674693786E+03  0.12359764291E+03  0.00000000000E+00 0. -1.
        -12    1    3    3    0    0 -0.16834782835E+02  0.11302725674E+02 -0.16336285302E+03  0.16461647326E+03  0.00000000000E+00 0.  1.
          5    1    4    4  501    0  0.48712239922E+02 -0.30402648333E+02  0.33469434986E+02  0.66594885856E+02  0.41800000000E+01 0. -1.
         -5    1    4    4    0  501 -0.50670657091E+02  0.42948838396E+02  0.65931791645E+02  0.93683465772E+02  0.41800000000E+01 0. -1.
</event>
<event>
11    1  0.8041700E-009  0.3013921E+03  0.7561462E-02  0.9996038E-01
         22   -1    0    0    0    0  0.00000000000E+00  0.00000000000E+00  0.10884251211E+04  0.10884251211E+04  0.00000000000E+00 0. -1.
         22   -1    0    0    0    0 -0.00000000000E+00 -0.00000000000E+00 -0.54382563546E+03  0.54382563546E+03  0.00000000000E+00 0.  1.
         24    2    1    2    0    0 -0.71434474387E+01  0.15603094978E+02 -0.29463192651E+03  0.30584790539E+03  0.80252624254E+02 0.  0.
         25    2    1    2    0    0 -0.59087664326E+02 -0.28051378274E+03 -0.11310684617E+03  0.33259614976E+03  0.12509079024E+03 0.  0.
        -24    2    1    2    0    0  0.66231111764E+02  0.26491068776E+03  0.95233825829E+03  0.99380670138E+03  0.78354124601E+02 0.  0.
        -13    1    3    3    0    0 -0.35848450816E+02  0.18837930957E+01 -0.23965727699E+03  0.24233091118E+03  0.00000000000E+00 0.  1.
         14    1    3    3    0    0  0.28705003378E+02  0.13719301883E+02 -0.54974649520E+02  0.63516994206E+02  0.00000000000E+00 0. -1.
         13    1    5    5    0    0  0.22506958789E+02  0.17491957601E+03  0.71110291011E+03  0.73264641542E+03  0.00000000000E+00 0. -1.
        -14    1    5    5    0    0  0.43724152975E+02  0.89991111752E+02  0.24123534818E+03  0.26116028596E+03  0.00000000000E+00 0.  1.
          5    1    4    4  501    0 -0.76094640538E+02 -0.18485873481E+03 -0.12315138113E+03  0.23483373103E+03  0.41800000000E+01 0. -1.
         -5    1    4    4    0  501  0.17006976212E+02 -0.95655047927E+02  0.10044534955E+02  0.97762418732E+02  0.41800000000E+01 0. -1.
</event>
<event>
11    1  0.8041700E-009  0.2593953E+03  0.7561462E-02  0.1019010E+00
         22   -1    0    0    0    0  0.00000000000E+00  0.00000000000E+00  0.83538083846E+02  0.83538083846E+02  0.00000000000E+00 0.  1.
         22   -1    0    0    0    0 -0.00000000000E+00 -0.00000000000E+00 -0.14115649549E+04  0.14115649549E+04  0.00000000000E+00 0. -1.
        -24    2    1    2    0    0  0.16263902277E+02 -0.62378475387E+02 -0.55827500342E+03  0.56759547023E+03  0.79611868896E+02 0.  0.
         25    2    1    2    0    0  0.19285832605E+03 -0.62412743545E+02 -0.51008726891E+03  0.56296096549E+03  0.12508533999E+03 0.  0.
         24    2    1    2    0    0 -0.20912222833E+03  0.12479121893E+03 -0.25966459873E+03  0.36454660304E+03  0.78508389644E+02 0.  0.
        -13    1    5    5    0    0 -0.18362408708E+03  0.81707227985E+02 -0.23340921817E+03  0.30801581062E+03  0.00000000000E+00 0.  1.
         14    1    5    5    0    0 -0.25498141253E+02  0.43083990948E+02 -0.26255380559E+02  0.56530792420E+02  0.00000000000E+00 0. -1.
         13    1    3    3    0    0 -0.99647449656E+01 -0.72923813966E+02 -0.42873859351E+03  0.43501029913E+03  0.00000000000E+00 0. -1.
        -14    1    3    3    0    0  0.26228647242E+02  0.10545338579E+02 -0.12953640991E+03  0.13258517110E+03  0.00000000000E+00 0.  1.
          5    1    4    4  501    0  0.35476439676E+02  0.28603187034E+02 -0.18387674157E+03  0.18948574768E+03  0.41800000000E+01 0.  1.
         -5    1    4    4    0  501  0.15738188638E+03 -0.91015930580E+02 -0.32621052733E+03  0.37347521781E+03  0.41800000000E+01 0.  1.
</event>
<event>
11    1  0.8041700E-009  0.1938762E+03  0.7561462E-02  0.1058941E+00
         22   -1    0    0    0    0  0.00000000000E+00  0.00000000000E+00  0.48359097182E+03  0.48359097182E+03  0.00000000000E+00 0.  1.
         22   -1    0    0    0    0 -0.00000000000E+00 -0.00000000000E+00 -0.31790816579E+03  0.31790816579E+03  0.00000000000E+00 0. -1.
        -24    2    1    2    0    0 -0.20050743246E+01  0.15438641002E+03 -0.23079506662E+03  0.28919009507E+03  0.80779727560E+02 0.  0.
         25    2    1    2    0    0 -0.37382797409E+02 -0.11501771336E+03  0.10277085356E+03  0.20208071235E+03  0.12509283765E+03 0.  0.
         24    2    1    2    0    0  0.39387871733E+02 -0.39368696658E+02  0.29370701910E+03  0.31022833020E+03  0.82924695201E+02 0.  0.
        -13    1    5    5    0    0  0.54993723639E+01 -0.55480086795E+02  0.22644901279E+03  0.23321114579E+03  0.00000000000E+00 0.  1.
         14    1    5    5    0    0  0.33888499369E+02  0.16111390137E+02  0.67258006305E+02  0.77017184405E+02  0.00000000000E+00 0. -1.
         11    1    3    3    0    0  0.10574162011E+00  0.73726739013E+02 -0.17826661718E+03  0.19291093807E+03  0.00000000000E+00 0. -1.
        -12    1    3    3    0    0 -0.21108159447E+01  0.80659671006E+02 -0.52528449447E+02  0.96279156997E+02  0.00000000000E+00 0.  1.
          5    1    4    4  501    0  0.33312893090E+01 -0.12546840799E+03  0.51709106493E+02  0.13581135073E+03  0.41800000000E+01 0. -1.
         -5    1    4    4    0  501 -0.40714086718E+02  0.10450694629E+02  0.51061747072E+02  0.66269361620E+02  0.41800000000E+01 0. -1.
</event>
<event>
11    1  0.8041700E-009  0.3734889E+03  0.7561462E-02  0.9731390E-01
         22   -1    0    0    0    0  0.00000000000E+00  0.00000000000E+00  0.92974187138E+03  0.92974187138E+03  0.00000000000E+00 0.  1.
         22   -1    0    0    0    0 -0.00000000000E+00 -0.00000000000E+00 -0.26441051173E+03  0.26441051173E+03  0.00000000000E+00 0. -1.
        -24    2    1    2    0    0  0.34651247316E+03  0.13056039616E+02 -0.51650591580E+01  0.35615730877E+03  0.81117177784E+02 0.  0.
         25    2    1    2    0    0 -0.36585605422E+03 -0.14441717410E+02  0.40613676503E+03  0.56093918991E+03  0.12508591947E+03 0.  0.
         24    2    1    2    0    0  0.19343581067E+02  0.13856777935E+01  0.26435965378E+03  0.27705588444E+03  0.80609195048E+02 0.  0.
        -13    1    5    5    0    0 -0.29357242586E+02 -0.12948380105E+02  0.10741236261E+03  0.11210229204E+03  0.00000000000E+00 0.  1.
         14    1    5    5    0    0  0.48700823653E+02  0.14334057899E+02  0.15694729117E+03  0.16495359240E+03  0.00000000000E+00 0. -1.
         13    1    3    3    0    0  0.17901449085E+03 -0.30082515393E+02  0.14376979226E+02  0.18209295209E+03  0.00000000000E+00 0. -1.
        -14    1    3    3    0    0  0.16749798230E+03  0.43138555009E+02 -0.19542038384E+02  0.17406435669E+03  0.00000000000E+00 0.  1.
          5    1    4    4  501    0 -0.89148526473E+02  0.37732674406E+02  0.15932671712E+03  0.18647704866E+03  0.41800000000E+01 0. -1.
         -5    1    4    4    0  501 -0.27670752775E+03 -0.52174391815E+02  0.24681004792E+03  0.37446214125E+03  0.41800000000E+01 0. -1.
</event>
<event>
11    1  0.8041700E-009  0.1570432E+03  0.7561462E-02  0.1089892E+00
         22   -1    0    0    0    0  0.00000000000E+00  0.00000000000E+00  0.96411426584E+03  0.96411426584E+03  0.00000000000E+00 0.  1.
         22   -1    0    0    0    0 -0.00000000000E+00 -0.00000000000E+00 -0.78429413568E+02  0.78429413568E+02  0.00000000000E+00 0.  1.
        -24    2    1    2    0    0  0.57851001173E+02 -0.80416565385E+02  0.14201241560E+02  0.12776001241E+03  0.79419035399E+02 0.  0.
         25    2    1    2    0    0  0.27876110858E+02  0.93994388546E+02  0.52591776204E+03  0.54940889400E+03  0.12509443531E+03 0.  0.
         24    2    1    2    0    0 -0.85727112031E+02 -0.13577823161E+02  0.34556584867E+03  0.36537477299E+03  0.80928820295E+02 0.  0.
        -13    1    5    5    0    0 -0.97571224797E+02 -0.35201117705E+00  0.31759462457E+03  0.33224480940E+03  0.00000000000E+00 0.  1.
         14    1    5    5    0    0  0.11844112766E+02 -0.13225811984E+02  0.27971224104E+02  0.33129963593E+02  0.00000000000E+00 0. -1.
         11    1    3    3    0    0  0.43327708277E+02 -0.89951202209E+02  0.30026217169E+02  0.10425968924E+03  0.00000000000E+00 0. -1.
        -12    1    3    3    0    0  0.14523292896E+02  0.95346368238E+01 -0.15824975609E+02  0.23500323167E+02  0.00000000000E+00 0.  1.
          5    1    4    4  501    0  0.33023647178E+02  0.34799158688E+02  0.48702313825E+02  0.68490367865E+02  0.41800000000E+01 0.  1.
         -5    1    4    4    0  501 -0.51475363202E+01  0.59195229858E+02  0.47721544821E+03  0.48091852614E+03  0.41800000000E+01 0.  1.
</event>
<event>
11    1  0.8041700E-009  0.1489275E+03  0.7561462E-02  0.1097980E+00
         22   -1    0    0    0    0  0.00000000000E+00  0.00000000000E+00  0.59737077096E+03  0.59737077096E+03  0.00000000000E+00 0.  1.
         22   -1    0    0    0    0 -0.00000000000E+00 -0.00000000000E+00 -0.28419893901E+04  0.28419893901E+04  0.00000000000E+00 0. -1.
        -24    2    1    2    0    0 -0.58189895742E+02 -0.54641359597E+02 -0.26639299007E+04  0.26661828904E+04  0.75079604306E+02 0.  0.
         25    2    1    2    0    0  0.64512818019E+02  0.10689127946E+03 -0.12827743329E+03  0.21838389463E+03  0.12509506875E+03 0.  0.
         24    2    1    2    0    0 -0.63229222770E+01 -0.52249919867E+02  0.54758871485E+03  0.55479337606E+03  0.71918398343E+02 0.  0.
        -11    1    5    5    0    0 -0.31366180289E+02 -0.40158392626E+02  0.46196381263E+03  0.46476563765E+03  0.00000000000E+00 0.  1.
         12    1    5    5    0    0  0.25043258012E+02 -0.12091527241E+02  0.85624902216E+02  0.90027738405E+02  0.00000000000E+00 0. -1.
         13    1    3    3    0    0 -0.57268645265E+02 -0.26272415230E+02 -0.23808437636E+04  0.23816773426E+04  0.00000000000E+00 0. -1.
        -14    1    3    3    0    0 -0.92125047768E+00 -0.28368944367E+02 -0.28308613708E+03  0.28450554778E+03  0.00000000000E+00 0.  1.
          5    1    4    4  501    0 -0.15610675729E+02  0.57692885439E+02 -0.10585483656E+03  0.12163421003E+03  0.41800000000E+01 0. -1.
         -5    1    4    4    0  501  0.80123493748E+02  0.49198394024E+02 -0.22422596737E+02  0.96749684596E+02  0.41800000000E+01 0. -1.
</event>
<event>
11    1  0.8041700E-009  0.1726169E+03  0.7561462E-02  0.1075776E+00
         22   -1    0    0    0    0  0.00000000000E+00  0.00000000000E+00  0.34547517812E+03  0.34547517812E+03  0.00000000000E+00 0. -1.
         22   -1    0    0    0    0 -0.00000000000E+00 -0.00000000000E+00 -0.26718568366E+03  0.26718568366E+03  0.00000000000E+00 0.  1.
         24    2    1    2    0    0  0.64072420611E+02 -0.71108617067E+01 -0.25503034810E+02  0.10217190573E+03  0.75052342400E+02 0.  0.
         25    2    1    2    0    0 -0.76385887976E+02 -0.11107305552E+03 -0.13735257393E+03  0.22953334371E+03  0.12509116181E+03 0.  0.
        -24    2    1    2    0    0  0.12313467366E+02  0.11818391723E+03  0.24114510321E+03  0.28095561234E+03  0.81645793113E+02 0.  0.
        -11    1    3    3    0    0  0.33889354698E+02 -0.20591249774E+02 -0.47943591490E+02  0.62217970829E+02  0.00000000000E+00 0.  1.
         12    1    3    3    0    0  0.30183065913E+02  0.13480388067E+02  0.22440556680E+02  0.39953934906E+02  0.00000000000E+00 0. -1.
         11    1    5    5    0    0  0.37644119879E+02  0.61686681813E+02  0.17987496051E+03  0.19384872425E+03  0.00000000000E+00 0. -1.
        -12    1    5    5    0    0 -0.25330652513E+02  0.56497235415E+02  0.61270142697E+02  0.87106888088E+02  0.00000000000E+00 0.  1.
          5    1    4    4  501    0 -0.15013359737E+00 -0.76017644142E+00 -0.85653459304E+02  0.85758893994E+02  0.41800000000E+01 0. -1.
         -5    1    4    4    0  501 -0.76235754379E+02 -0.11031287908E+03 -0.51699114628E+02  0.14377444971E+03  0.41800000000E+01 0. -1.
</event>
<event>
11    1  0.8041700E-009  0.1562116E+03  0.7561462E-02  0.1090696E+00
         22   -1    0    0    0    0  0.00000000000E+00  0.00000000000E+00  0.17774799990E+04  0.17774799990E+04  0.00000000000E+00 0. -1.
         22   -1    0    0    0    0 -0.00000000000E+00 -0.00000000000E+00 -0.28024115333E+04  0.28024115333E+04  0.00000000000E+00 0.  1.
         24    2    1    2    0    0 -0.29701306836E+02  0.84901808222E+02 -0.13084320862E+04  0.13131795799E+04  0.65996972799E+02 0.  0.
         25    2    1    2    0    0  0.10219478322E+02 -0.17633688262E+03 -0.14818328883E+04  0.14975551941E+04  0.12507484308E+03 0.  0.
        -24    2    1    2    0    0  0.19481828514E+02  0.91435074398E+02  0.17653334403E+04  0.17691567583E+04  0.69090995845E+02 0.  0.
        -13    1    3    3    0    0  0.43113857532E+01  0.61552590781E+02 -0.10134253934E+04  0.10153020917E+04  0.00000000000E+00 0.  1.
         14    1    3    3    0    0 -0.34012692589E+02  0.23349217440E+02 -0.29500669280E+03  0.29787748826E+03  0.00000000000E+00 0. -1.
         13    1    5    5    0    0 -0.93694896133E+01  0.73481780964E+02  0.14717902276E+04  0.14736532270E+04  0.00000000000E+00 0. -1.
        -14    1    5    5    0    0  0.28851318128E+02  0.17953293435E+02  0.29354321270E+03  0.29550353133E+03  0.00000000000E+00 0.  1.
          5    1    4    4  501    0 -0.27628411060E+02 -0.17563629092E+03 -0.11793164935E+04  0.11926509548E+04  0.41800000000E+01 0.  1.
         -5    1    4    4    0  501  0.37847889382E+02 -0.70059170414E+00 -0.30251639489E+03  0.30490423929E+03  0.41800000000E+01 0.  1.
</event>
<event>
11    1  0.8041700E-009  0.1354468E+03  0.7561462E-02  0.1112752E+00
         22   -1    0    0    0    0  0.00000000000E+00  0.00000000000E+00  0.35500318645E+03  0.35500318645E+03  0.00000000000E+00 0.  1.
         22   -1    0    0    0    0 -0.00000000000E+00 -0.00000000000E+00 -0.29133496901E+03  0.29133496901E+03  0.00000000000E+00 0.  1.
         24    2    1    2    0    0 -0.23154122261E+02  0.45926777884E+02 -0.21893483904E+03  0.23893044200E+03  0.80684013671E+02 0.  0.
         25    2    1    2    0    0  0.36452446594E+02 -0.44410252378E+02  0.28193544140E+02  0.14051288893E+03  0.12509174491E+03 0.  0.
        -24    2    1    2    0    0 -0.13298324334E+02 -0.15165255058E+01  0.25440951233E+03  0.26689482453E+03  0.79558168138E+02 0.  0.
        -13    1    3    3    0    0 -0.38981590341E+02  0.31856082757E+02 -0.20999176683E+03  0.21594192861E+03  0.00000000000E+00 0.  1.
         14    1    3    3    0    0  0.15827468080E+02  0.14070695127E+02 -0.89430722075E+01  0.22988513385E+02  0.00000000000E+00 0. -1.
         11    1    5    5    0    0 -0.10520541466E+02  0.38633856307E+02  0.11379075586E+03  0.12062998286E+03  0.00000000000E+00 0. -1.
        -12    1    5    5    0    0 -0.27777828676E+01 -0.40150381813E+02  0.14061875647E+03  0.14626484167E+03  0.00000000000E+00 0.  1.
          5    1    4    4  501    0 -0.45809898261E+02 -0.10290700863E+02  0.44627254896E+00  0.47139334553E+02  0.41800000000E+01 0.  1.
         -5    1    4    4    0  501  0.82262344855E+02 -0.34119551514E+02  0.27747271591E+02  0.93373554379E+02  0.41800000000E+01 0.  1.
</event>
<event>
11    1  0.8041700E-009  0.1535780E+03  0.7561462E-02  0.1093278E+00
         22   -1    0    0    0    0  0.00000000000E+00  0.00000000000E+00  0.16525553826E+03  0.16525553826E+03  0.00000000000E+00 0.  1.
         22   -1    0    0    0    0 -0.00000000000E+00 -0.00000000000E+00 -0.55290727886E+03  0.55290727886E+03  0.00000000000E+00 0.  1.
         24    2    1    2    0    0 -0.78885191150E+02  0.26787729843E+02 -0.23386864900E+03  0.26142639989E+03  0.81907030967E+02 0.  0.
         25    2    1    2    0    0  0.10028034843E+03 -0.58721333425E+01 -0.26892871262E+03  0.31314742803E+03  0.12509208201E+03 0.  0.
        -24    2    1    2    0    0 -0.21395157277E+02 -0.20915596500E+02  0.11514562102E+03  0.14358898920E+03  0.80399433130E+02 0.  0.
        -13    1    3    3    0    0  0.12835830013E+02 -0.10032858505E+02 -0.19785876568E+02  0.25630015479E+02  0.00000000000E+00 0.  1.
         14    1    3    3    0    0 -0.91721021163E+02  0.36820588347E+02 -0.21408277243E+03  0.23579638441E+03  0.00000000000E+00 0. -1.
         13    1    5    5    0    0  0.11344020435E+02  0.23920020588E+02  0.58817468551E+02  0.64500765820E+02  0.00000000000E+00 0. -1.
        -14    1    5    5    0    0 -0.32739177712E+02 -0.44835617088E+02  0.56328152465E+02  0.79088223378E+02  0.00000000000E+00 0.  1.
          5    1    4    4  501    0 -0.79415556923E+01  0.29959587201E+01 -0.15650765054E+03  0.15679337089E+03  0.41800000000E+01 0. -1.
         -5    1    4    4    0  501  0.10822190412E+03 -0.88680920626E+01 -0.11242106207E+03  0.15635405715E+03  0.41800000000E+01 0. -1.
</event>
<event>
11    1  0.8041700E-009  0.1810463E+03  0.7561462E-02  0.1068800E+00
         22   -1    0    0    0    0  0.00000000000E+00  0.00000000000E+00  0.31494273774E+03  0.31494273774E+03  0.00000000000E+00 0. -1.
         22   -1    0    0    0    0 -0.00000000000E+00 -0.00000000000E+00 -0.54609889731E+03  0.54609889731E+03  0.00000000000E+00 0. -1.
         24    2    1    2    0    0 -0.12480312622E+03 -0.33211693936E+01 -0.33185639695E+03  0.36343461148E+03  0.79807256221E+02 0.  0.
         25    2    1    2    0    0  0.14637484017E+03  0.82505920886E+02 -0.12622200075E+03  0.24456487059E+03  0.12508861514E+03 0.  0.
        -24    2    1    2    0    0 -0.21571713948E+02 -0.79184751492E+02  0.22692223813E+03  0.25304215297E+03  0.76164724850E+02 0.  0.
        -13    1    3    3    0    0 -0.89280343339E+01 -0.25104584524E+02 -0.34758180635E+02  0.43795902574E+02  0.00000000000E+00 0.  1.
         14    1    3    3    0    0 -0.11587509189E+03  0.21783415131E+02 -0.29709821632E+03  0.31963870891E+03  0.00000000000E+00 0. -1.
         11    1    5    5    0    0 -0.36847928864E+02 -0.68797201726E+02  0.21979861524E+03  0.23324291220E+03  0.00000000000E+00 0. -1.
        -12    1    5    5    0    0  0.15276214916E+02 -0.10387549767E+02  0.71236228885E+01  0.19799240778E+02  0.00000000000E+00 0.  1.
          5    1    4    4  501    0  0.16475289509E+01 -0.27181501891E+02 -0.21032373598E+02  0.34660951168E+02  0.41800000000E+01 0. -1.
         -5    1    4    4    0  501  0.14472731122E+03  0.10968742278E+03 -0.10518962715E+03  0.20990391942E+03  0.41800000000E+01 0. -1.
</event>
<event>
11    1  0.8041700E-009  0.1323130E+03  0.7561462E-02  0.1116459E+00
         22   -1    0    0    0    0  0.00000000000E+00  0.00000000000E+00  0.11441000208E+03  0.11441000208E+03  0.00000000000E+00 0. -1.
         22   -1    0    0    0    0 -0.00000000000E+00 -0.00000000000E+00 -0.11324957087E+04  0.11324957087E+04  0.00000000000E+00 0.  1.
         24    2    1    2    0    0 -0.54441974554E+01  0.37387898443E+01 -0.69819134291E+03  0.70279403696E+03  0.80029302376E+02 0.  0.
         25    2    1    2    0    0 -0.21999360552E+02  0.29908128789E+02 -0.40059313509E+03  0.42130926942E+03  0.12509265601E+03 0.  0.
        -24    2    1    2    0    0  0.27443558007E+02 -0.33646918634E+02  0.80698771417E+02  0.12280240436E+03  0.81748851978E+02 0.  0.
        -11    1    3    3    0    0 -0.20107593711E+02 -0.10941865418E+02 -0.64902561015E+03  0.64942919735E+03  0.00000000000E+00 0.  1.
         12    1    3    3    0    0  0.14663396256E+02  0.14680655262E+02 -0.49165732764E+02  0.53364839612E+02  0.00000000000E+00 0. -1.
         13    1    5    5    0    0  0.97137990228E+01 -0.58677058698E+02  0.65819958340E+02  0.88710890114E+02  0.00000000000E+00 0. -1.
        -14    1    5    5    0    0  0.17729758985E+02  0.25030140064E+02  0.14878813077E+02  0.34091514250E+02  0.00000000000E+00 0.  1.
          5    1    4    4  501    0  0.55875460160E+01  0.21872350436E+02 -0.38957847209E+03  0.39025437691E+03  0.41800000000E+01 0. -1.
         -5    1    4    4    0  501 -0.27586906568E+02  0.80357783532E+01 -0.11014663002E+02  0.31054892510E+02  0.41800000000E+01 0. -1.
</event>
<event>
11    1  0.8041700E-009  0.1686777E+03  0.7561462E-02  0.1079188E+00
         22   -1    0    0    0    0  0.00000000000E+00  0.00000000000E+00  0.31594579855E+03  0.31594579855E+03  0.00000000000E+00 0. -1.
         22   -1    0    0    0    0 -0.00000000000E+00 -0.00000000000E+00 -0.45609613347E+03  0.45609613347E+03  0.00000000000E+00 0.  1.
        -24    2    1    2    0    0 -0.13460077471E+02 -0.11385720864E+03 -0.36913139659E+03  0.39845214608E+03  0.96754778279E+02 0.  0.
         25    2    1    2    0    0  0.35437020612E+02  0.98556607719E+02  0.43626878371E+02  0.16887926785E+03  0.12509082795E+03 0.  0.
         24    2    1    2    0    0 -0.21976943140E+02  0.15300600918E+02  0.18535418330E+03  0.20471051808E+03  0.82662739656E+02 0.  0.
        -11    1    5    5    0    0  0.23388057943E+02 -0.18236902381E+02  0.51072746142E+02  0.59059387580E+02  0.00000000000E+00 0.  1.
         12    1    5    5    0    0 -0.45365001084E+02  0.33537503298E+02  0.13428143716E+03  0.14565113050E+03  0.00000000000E+00 0. -1.
         11    1    3    3    0    0  0.34773926452E+02 -0.38585651411E+02 -0.76489296869E+02  0.92459131465E+02  0.00000000000E+00 0. -1.
        -12    1    3    3    0    0 -0.48234003923E+02 -0.75271557225E+02 -0.29264209973E+03  0.30599301462E+03  0.00000000000E+00 0.  1.
          5    1    4    4  501    0 -0.26539560562E+02  0.69395343420E+00  0.45622096074E+02  0.52949767671E+02  0.41800000000E+01 0.  1.
         -5    1    4    4    0  501  0.61976581174E+02  0.97862654285E+02 -0.19952177035E+01  0.11592950018E+03  0.41800000000E+01 0.  1.
</event>
<event>
11    1  0.8041700E-009  0.1338355E+03  0.7561462E-02  0.1114644E+00
         22   -1    0    0    0    0  0.00000000000E+00  0.00000000000E+00  0.16999236633E+03  0.16999236633E+03  0.00000000000E+00 0.  1.
         22   -1    0    0    0    0 -0.00000000000E+00 -0.00000000000E+00 -0.24994259827E+04  0.24994259827E+04  0.00000000000E+00 0.  1.
         24    2    1    2    0    0 -0.37702644700E+02  0.41091320104E+02 -0.23420856811E+04  0.23439046100E+04  0.73576470662E+02 0.  0.
         25    2    1    2    0    0 -0.11075933779E+02 -0.52838001216E+02 -0.10661328708E+03  0.17299912804E+03  0.12509106538E+03 0.  0.
        -24    2    1    2    0    0  0.48778578479E+02  0.11746681112E+02  0.11926535182E+03  0.15251461103E+03  0.80741242231E+02 0.  0.
        -11    1    3    3    0    0 -0.47202112593E+02  0.62967962277E+01 -0.17948487590E+04  0.17954803693E+04  0.00000000000E+00 0.  1.
         12    1    3    3    0    0  0.94994678923E+01  0.34794523877E+02 -0.54723692214E+03  0.54842424065E+03  0.00000000000E+00 0. -1.
         13    1    5    5    0    0 -0.12520735877E+02 -0.21012688968E+02  0.21532506182E+02  0.32587585781E+02  0.00000000000E+00 0. -1.
        -14    1    5    5    0    0  0.61299314356E+02  0.32759370079E+02  0.97732845633E+02  0.11992702524E+03  0.00000000000E+00 0.  1.
          5    1    4    4  501    0 -0.17763537813E+02  0.39484681500E+02 -0.36964496128E+02  0.57082656935E+02  0.41800000000E+01 0.  1.
         -5    1    4    4    0  501  0.66876040343E+01 -0.92322682716E+02 -0.69648790954E+02  0.11591647110E+03  0.41800000000E+01 0.  1.
</event>
<event>
11    1  0.8041700E-009  0.1296300E+03  0.7561462E-02  0.1119724E+00
         22   -1    0    0    0    0  0.00000000000E+00  0.00000000000E+00  0.98805562388E+03  0.98805562388E+03  0.00000000000E+00 0.  1.
         22   -1    0    0    0    0 -0.00000000000E+00 -0.00000000000E+00 -0.23943665741E+03  0.23943665741E+03  0.00000000000E+00 0. -1.
         24    2    1    2    0    0  0.24300827631E+02  0.34859489324E+01 -0.18299248817E+03  0.20051325728E+03  0.78208909688E+02 0.  0.
         25    2    1    2    0    0 -0.15390897342E+02 -0.36420955377E+02  0.48977007054E+02  0.14003539161E+03  0.12509115865E+03 0.  0.
        -24    2    1    2    0    0 -0.89099302892E+01  0.32935006444E+02  0.88263444758E+03  0.88694363241E+03  0.80382445194E+02 0.  0.
        -13    1    3    3    0    0  0.18850016746E+02 -0.95786537880E+01 -0.47006670953E+01  0.21660332658E+02  0.00000000000E+00 0.  1.
         14    1    3    3    0    0  0.54508108856E+01  0.13064602720E+02 -0.17829182107E+03  0.17885292462E+03  0.00000000000E+00 0. -1.
         13    1    5    5    0    0 -0.38048372528E+02 -0.58469895350E+01  0.42858012437E+03  0.43030546005E+03  0.00000000000E+00 0. -1.
        -14    1    5    5    0    0  0.29138442239E+02  0.38781995979E+02  0.45405432321E+03  0.45663817236E+03  0.00000000000E+00 0.  1.
          5    1    4    4  501    0 -0.66603874553E+02 -0.25453818872E+02  0.51406042417E+01  0.71609155927E+02  0.41800000000E+01 0. -1.
         -5    1    4    4    0  501  0.51212977211E+02 -0.10967136505E+02  0.43836402813E+02  0.68426235681E+02  0.41800000000E+01 0. -1.
</event>
<event>
11    1  0.8041700E-009  0.1415244E+03  0.7561462E-02  0.1105868E+00
         22   -1    0    0    0    0  0.00000000000E+00  0.00000000000E+00  0.46313885910E+03  0.46313885910E+03  0.00000000000E+00 0. -1.
         22   -1    0    0    0    0 -0.00000000000E+00 -0.00000000000E+00 -0.45157348181E+03  0.45157348181E+03  0.00000000000E+00 0. -1.
        -24    2    1    2    0    0  0.13602604784E+02  0.87850625217E+01 -0.41465281971E+03  0.42211352036E+03  0.77334694663E+02 0.  0.
         25    2    1    2    0    0  0.57075353629E+02  0.35790142787E+01  0.20727932916E+03  0.24876069442E+03  0.12508699954E+03 0.  0.
         24    2    1    2    0    0 -0.70677958413E+02 -0.12364076800E+02  0.21893886784E+03  0.24383812613E+03  0.79840839791E+02 0.  0.
        -11    1    5    5    0    0 -0.51815671158E+01  0.26616696951E+01 -0.64230078530E+01  0.86711102646E+01  0.00000000000E+00 0.  1.
         12    1    5    5    0    0 -0.65496391297E+02 -0.15025746496E+02  0.22536187570E+03  0.23516701586E+03  0.00000000000E+00 0. -1.
         11    1    3    3    0    0 -0.21072767670E+01 -0.30544067063E+02 -0.25895531462E+03  0.26075896076E+03  0.00000000000E+00 0. -1.
        -12    1    3    3    0    0  0.15709881551E+02  0.39329129585E+02 -0.15569750509E+03  0.16135455960E+03  0.00000000000E+00 0.  1.
          5    1    4    4  501    0 -0.11485943624E+02 -0.43775818805E+02  0.11856937424E+03  0.12698195982E+03  0.41800000000E+01 0.  1.
         -5    1    4    4    0  501  0.68561297253E+02  0.47354833083E+02  0.88709954928E+02  0.12177873460E+03  0.41800000000E+01 0.  1.
</event>
<event>
11    1  0.8041700E-009  0.1321012E+03  0.7561462E-02  0.1116714E+00
         22   -1    0    0    0    0  0.00000000000E+00  0.00000000000E+00  0.69383833900E+03  0.69383833900E+03  0.00000000000E+00 0. -1.
         22   -1    0    0    0    0 -0.00000000000E+00 -0.00000000000E+00 -0.34700639976E+03  0.34700639976E+03  0.00000000000E+00 0.  1.
         24    2    1    2    0    0 -0.60553917037E+01 -0.11593804970E+02 -0.17573168704E+03  0.19364210102E+03  0.80277975654E+02 0.  0.
         25    2    1    2    0    0  0.34926327315E+02 -0.19720160179E+02 -0.13244913056E+03  0.18653319215E+03  0.12507248510E+03 0.  0.
        -24    2    1    2    0    0 -0.28870935611E+02  0.31313965149E+02  0.65501275684E+03  0.66066944559E+03  0.75022059289E+02 0.  0.
        -11    1    3    3    0    0  0.12301706738E+01 -0.93823452655E+01 -0.18292386244E+03  0.18316845027E+03  0.00000000000E+00 0.  1.
         12    1    3    3    0    0 -0.72855623775E+01 -0.22114597040E+01  0.71921753988E+01  0.10473650755E+02  0.00000000000E+00 0. -1.
         11    1    5    5    0    0 -0.43691036837E+02 -0.34800453034E+01  0.45550850621E+03  0.45761229949E+03  0.00000000000E+00 0. -1.
        -12    1    5    5    0    0  0.14820101227E+02  0.34794010452E+02  0.19950425063E+03  0.20305714611E+03  0.00000000000E+00 0.  1.
          5    1    4    4  501    0  0.52036811460E+02 -0.44290686874E+01 -0.14899336401E+03  0.15793651039E+03  0.41800000000E+01 0. -1.
         -5    1    4    4    0  501 -0.17110484145E+02 -0.15291091492E+02  0.16544233453E+02  0.28596681752E+02  0.41800000000E+01 0. -1.
</event>
<event>
11    1  0.8041700E-009  0.1473284E+03  0.7561462E-02  0.1099640E+00
         22   -1    0    0    0    0  0.00000000000E+00  0.00000000000E+00  0.73159172613E+03  0.73159172613E+03  0.00000000000E+00 0.  1.
         22   -1    0    0    0    0 -0.00000000000E+00 -0.00000000000E+00 -0.19038462607E+04  0.19038462607E+04  0.00000000000E+00 0.  1.
        -24    2    1    2    0    0  0.66096202053E+02 -0.68696768810E+01 -0.18250651688E+04  0.18275371932E+04  0.67922176239E+02 0.  0.
         25    2    1    2    0    0  0.15842720002E+02  0.70071851988E+01 -0.17979055732E+02  0.12754023652E+03  0.12507267113E+03 0.  0.
         24    2    1    2    0    0 -0.81938922055E+02 -0.13750831782E+00  0.67078968995E+03  0.68036055705E+03  0.78852226259E+02 0.  0.
        -11    1    5    5    0    0 -0.94600691863E+02  0.88522138951E+01  0.62036703263E+03  0.62760091441E+03  0.00000000000E+00 0.  1.
         12    1    5    5    0    0  0.12661769808E+02 -0.89897222129E+01  0.50422657315E+02  0.52759642634E+02  0.00000000000E+00 0. -1.
         11    1    3    3    0    0 -0.10415981171E+02  0.12309151261E+02 -0.29638754951E+03  0.29682585361E+03  0.00000000000E+00 0. -1.
        -12    1    3    3    0    0  0.76512183224E+02 -0.19178828142E+02 -0.15286776193E+04  0.15307113396E+04  0.00000000000E+00 0.  1.
          5    1    4    4  501    0 -0.31065709045E+02 -0.37524040075E+02  0.19535447145E+02  0.52652046087E+02  0.41800000000E+01 0.  1.
         -5    1    4    4    0  501  0.46908429047E+02  0.44531225274E+02 -0.37514502876E+02  0.74888190432E+02  0.41800000000E+01 0.  1.
</event>
<event>
11    1  0.8041700E-009  0.1377400E+03  0.7561462E-02  0.1110109E+00
         22   -1    0    0    0    0  0.00000000000E+00  0.00000000000E+00  0.57113797674E+03  0.57113797674E+03  0.00000000000E+00 0.  1.
         22   -1    0    0    0    0 -0.00000000000E+00 -0.00000000000E+00 -0.90870953319E+02  0.90870953319E+02  0.00000000000E+00 0.  1.
         24    2    1    2    0    0 -0.31703217035E+02  0.12563848449E+02 -0.14023720592E+02  0.89998764983E+02  0.82098530444E+02 0.  0.
         25    2    1    2    0    0  0.76393152329E+02  0.18173823305E+02  0.13674507226E+03  0.20127715182E+03  0.12508827076E+03 0.  0.
        -24    2    1    2    0    0 -0.44689935294E+02 -0.30737671754E+02  0.35754567176E+03  0.37073301326E+03  0.81621473541E+02 0.  0.
        -13    1    3    3    0    0  0.32098856768E+01  0.19872558576E+02 -0.40734070320E+02  0.45436619980E+02  0.00000000000E+00 0.  1.
         14    1    3    3    0    0 -0.34913102712E+02 -0.73087101271E+01  0.26710349728E+02  0.44562145003E+02  0.00000000000E+00 0. -1.
         13    1    5    5    0    0 -0.32743758542E+02  0.80346620969E+01  0.48686854907E+02  0.59220936832E+02  0.00000000000E+00 0. -1.
        -14    1    5    5    0    0 -0.11946176752E+02 -0.38772333851E+02  0.30885881685E+03  0.31151207642E+03  0.00000000000E+00 0.  1.
          5    1    4    4  501    0 -0.13066539320E+01 -0.30751428750E+02  0.95698321842E+02  0.10061311504E+03  0.41800000000E+01 0.  1.
         -5    1    4    4    0  501  0.77699806261E+02  0.48925252055E+02  0.41046750416E+02  0.10066403678E+03  0.41800000000E+01 0.  1.
</event>
<event>
11    1  0.8041700E-009  0.3015651E+03  0.7561462E-02  0.9995310E-01
         22   -1    0    0    0    0  0.00000000000E+00  0.00000000000E+00  0.41902310452E+03  0.41902310452E+03  0.00000000000E+00 0.  1.
         22   -1    0    0    0    0 -0.00000000000E+00 -0.00000000000E+00 -0.18895771760E+04  0.18895771760E+04  0.00000000000E+00 0. -1.
        -24    2    1    2    0    0 -0.63619543368E+02 -0.70658687250E+01 -0.10669098334E+04  0.10717210703E+04  0.78689815749E+02 0.  0.
         25    2    1    2    0    0 -0.13850454653E+03 -0.18335861417E+03 -0.74487017941E+03  0.78948260386E+03  0.12508919550E+03 0.  0.
         24    2    1    2    0    0  0.20212408990E+03  0.19042448290E+03  0.34122594135E+03  0.44739660633E+03  0.81320039987E+02 0.  0.
        -13    1    5    5    0    0  0.19056797818E+03  0.14013934545E+03  0.29495337354E+03  0.37809083963E+03  0.00000000000E+00 0.  1.
         14    1    5    5    0    0  0.11556111715E+02  0.50285137446E+02  0.46272567811E+02  0.69305766699E+02  0.00000000000E+00 0. -1.
         11    1    3    3    0    0 -0.77868995923E+02  0.55491942404E+01 -0.70454952473E+03  0.70886134532E+03  0.00000000000E+00 0. -1.
        -12    1    3    3    0    0  0.14249452554E+02 -0.12615062965E+02 -0.36236030869E+03  0.36285972500E+03  0.00000000000E+00 0.  1.
          5    1    4    4  501    0 -0.11088272194E+03 -0.17213544446E+03 -0.72509463461E+03  0.75346220264E+03  0.41800000000E+01 0.  1.
         -5    1    4    4    0  501 -0.27621824594E+02 -0.11223169710E+02 -0.19775544793E+02  0.36020401221E+02  0.41800000000E+01 0.  1.
</event>
<event>
11    1  0.8041700E-009  0.3662859E+03  0.7561462E-02  0.9754829E-01
         22   -1    0    0    0    0  0.00000000000E+00  0.00000000000E+00  0.94566420148E+03  0.94566420148E+03  0.00000000000E+00 0.  1.
         22   -1    0    0    0    0 -0.00000000000E+00 -0.00000000000E+00 -0.42989989890E+03  0.42989989890E+03  0.00000000000E+00 0.  1.
         24    2    1    2    0    0 -0.19146241415E+02  0.19914304743E+02 -0.28413220540E+03  0.29651187583E+03  0.80156249117E+02 0.  0.
         25    2    1    2    0    0 -0.18449134616E+03 -0.29490656048E+03  0.33407429547E+03  0.49825710292E+03  0.12509024540E+03 0.  0.
        -24    2    1    2    0    0  0.20363758757E+03  0.27499225574E+03  0.46582221250E+03  0.58079512162E+03  0.56952891495E+02 0.  0.
        -11    1    3    3    0    0 -0.27792538241E+02  0.10311890626E+02 -0.28183264199E+03  0.28338736451E+03  0.00000000000E+00 0.  1.
         12    1    3    3    0    0  0.86462968255E+01  0.96024141168E+01 -0.22995634040E+01  0.13124511325E+02  0.00000000000E+00 0. -1.
         13    1    5    5    0    0  0.11059658649E+03  0.10193699483E+03  0.20153693561E+03  0.25147543075E+03  0.00000000000E+00 0. -1.
        -14    1    5    5    0    0  0.93041001088E+02  0.17305526091E+03  0.26428527689E+03  0.32931969087E+03  0.00000000000E+00 0.  1.
          5    1    4    4  501    0 -0.84091609204E+02 -0.18757003429E+03  0.11847045204E+03  0.23729019555E+03  0.41800000000E+01 0.  1.
         -5    1    4    4    0  501 -0.10039973696E+03 -0.10733652620E+03  0.21560384344E+03  0.26096690737E+03  0.41800000000E+01 0.  1.
</event>
<event>
11    1  0.8041700E-009  0.1555241E+03  0.7561462E-02  0.1091364E+00
         22   -1    0    0    0    0  0.00000000000E+00  0.00000000000E+00  0.10564447893E+03  0.10564447893E+03  0.00000000000E+00 0. -1.
         22   -1    0    0    0    0 -0.00000000000E+00 -0.00000000000E+00 -0.20368933782E+04  0.20368933782E+04  0.00000000000E+00 0.  1.
        -24    2    1    2    0    0  0.73421425062E+02 -0.22053218882E+02 -0.16098292657E+04  0.16136633222E+04  0.80510885485E+02 0.  0.
         25    2    1    2    0    0 -0.12487510578E+03 -0.51296233951E+02 -0.35868792210E+03  0.40314908540E+03  0.12508822462E+03 0.  0.
         24    2    1    2    0    0  0.51453680719E+02  0.73349452834E+02  0.37268288491E+02  0.12572544955E+03  0.79939601236E+02 0.  0.
        -13    1    5    5    0    0  0.22077491769E+02 -0.10300458303E+02 -0.86871682671E+01  0.25864685897E+02  0.00000000000E+00 0.  1.
         14    1    5    5    0    0  0.29376188951E+02  0.83649911137E+02  0.45955456758E+02  0.99860763648E+02  0.00000000000E+00 0. -1.
         13    1    3    3    0    0  0.14444180825E+02 -0.18396551815E+02 -0.10081930710E+03  0.10349686064E+03  0.00000000000E+00 0. -1.
        -14    1    3    3    0    0  0.58977244237E+02 -0.36566670674E+01 -0.15090099586E+04  0.15101664615E+04  0.00000000000E+00 0.  1.
          5    1    4    4  501    0 -0.11222843329E+03 -0.61982691596E+02 -0.16639597502E+03  0.21010037649E+03  0.41800000000E+01 0.  1.
         -5    1    4    4    0  501 -0.12646672487E+02  0.10686457645E+02 -0.19229194708E+03  0.19304870891E+03  0.41800000000E+01 0.  1.
</event>
<event>
11    1  0.8041700E-009  0.1760641E+03  0.7561462E-02  0.1072872E+00
         22   -1    0    0    0    0  0.00000000000E+00  0.00000000000E+00  0.36108949911E+03  0.36108949911E+03  0.00000000000E+00 0. -1.
         22   -1    0    0    0    0 -0.00000000000E+00 -0.00000000000E+00 -0.28653262023E+03  0.28653262023E+03  0.00000000000E+00 0. -1.
        -24    2    1    2    0    0 -0.96864885224E+02  0.82780298356E+02 -0.13530270544E+03  0.20339549986E+03  0.82628829589E+02 0.  0.
         25    2    1    2    0    0  0.72834628847E+02 -0.93534423000E+02 -0.42015189150E+02  0.17738805397E+03  0.12509066362E+03 0.  0.
         24    2    1    2    0    0  0.24030256378E+02  0.10754124644E+02  0.25187477347E+03  0.26683856552E+03  0.84076239920E+02 0.  0.
        -13    1    5    5    0    0 -0.22826507746E+02  0.20985322062E+02  0.16226763030E+03  0.16520356244E+03  0.00000000000E+00 0.  1.
         14    1    5    5    0    0  0.46856764123E+02 -0.10231197418E+02  0.89607143166E+02  0.10163500308E+03  0.00000000000E+00 0. -1.
         11    1    3    3    0    0 -0.45947510821E+02  0.59565669701E+02 -0.12588296250E+03  0.14664843336E+03  0.00000000000E+00 0. -1.
        -12    1    3    3    0    0 -0.50917374403E+02  0.23214628655E+02 -0.94197429328E+01  0.56747066502E+02  0.00000000000E+00 0.  1.
          5    1    4    4  501    0  0.85630520857E+02 -0.11509885524E+03 -0.47887021350E+02  0.15129762653E+03  0.41800000000E+01 0.  1.
         -5    1    4    4    0  501 -0.12795892011E+02  0.21564432243E+02  0.58718321998E+01  0.26090427434E+02  0.41800000000E+01 0.  1.
</event>
<event>
11    1  0.1627885E-008  0.1609323E+03  0.7561462E-02  0.1086204E+00
         22   -1    0    0    0    0  0.00000000000E+00  0.00000000000E+00  0.51099638097E+03  0.51099638097E+03  0.00000000000E+00 0.  1.
         22   -1    0    0    0    0 -0.00000000000E+00 -0.00000000000E+00 -0.11794503780E+04  0.11794503780E+04  0.00000000000E+00 0. -1.
        -24    2    1    2    0    0  0.46254259164E+02 -0.25124175126E+02 -0.81821974431E+03  0.82377561290E+03  0.79699622052E+02 0.  0.
         25    2    1    2    0    0  0.40350157376E+02  0.78711700593E+02 -0.33353507328E+03  0.36703720385E+03  0.12508795662E+03 0.  0.
         24    2    1    2    0    0 -0.86604416540E+02 -0.53587525468E+02  0.48330082060E+03  0.49963394220E+03  0.75381994909E+02 0.  0.
        -11    1    5    5    0    0 -0.10048237564E+03 -0.43410683961E+02  0.42171689373E+03  0.43569063997E+03  0.00000000000E+00 0.  1.
         12    1    5    5    0    0  0.13877959103E+02 -0.10176841506E+02  0.61583926866E+02  0.63943302231E+02  0.00000000000E+00 0. -1.
         13    1    3    3    0    0  0.29853824542E+02 -0.51779403368E+01 -0.75329263371E+03  0.75390175348E+03  0.00000000000E+00 0. -1.
        -14    1    3    3    0    0  0.16400434622E+02 -0.19946234789E+02 -0.64927110606E+02  0.69873859416E+02  0.00000000000E+00 0.  1.
          5    1    4    4  501    0 -0.14379433576E+01  0.51644750253E+01 -0.24288221146E+03  0.24297732513E+03  0.41800000000E+01 0. -1.
         -5    1    4    4    0  501  0.41788100734E+02  0.73547225568E+02 -0.90652861815E+02  0.12405987872E+03  0.41800000000E+01 0. -1.
</event>
<event>
11    1  0.8041700E-009  0.1355718E+03  0.7561462E-02  0.1112607E+00
         22   -1    0    0    0    0  0.00000000000E+00  0.00000000000E+00  0.31482683297E+02  0.31482683297E+02  0.00000000000E+00 0. -1.
         22   -1    0    0    0    0 -0.00000000000E+00 -0.00000000000E+00 -0.17680855063E+04  0.17680855063E+04  0.00000000000E+00 0.  1.
         24    2    1    2    0    0  0.21773314855E+02  0.23647428166E+02 -0.93344936683E+03  0.93748213636E+03  0.80695461270E+02 0.  0.
         25    2    1    2    0    0 -0.90882211431E+01  0.47079442081E+02 -0.15394648831E+03  0.20405357751E+03  0.12505707337E+03 0.  0.
        -24    2    1    2    0    0 -0.12685093712E+02 -0.70726870247E+02 -0.64920696790E+03  0.65803247576E+03  0.79836396523E+02 0.  0.
        -13    1    3    3    0    0  0.16383242100E+02 -0.10851686964E+02 -0.77421123242E+03  0.77446058785E+03  0.00000000000E+00 0.  1.
         14    1    3    3    0    0  0.53900727550E+01  0.34499115130E+02 -0.15923813441E+03  0.16302154851E+03  0.00000000000E+00 0. -1.
         13    1    5    5    0    0 -0.12458135077E+02 -0.36639294211E+02 -0.92318723791E+02  0.10010189695E+03  0.00000000000E+00 0. -1.
        -14    1    5    5    0    0 -0.22695863484E+00 -0.34087576036E+02 -0.55688824411E+03  0.55793057882E+03  0.00000000000E+00 0.  1.
          5    1    4    4  501    0 -0.68353436512E+01 -0.57720793324E+01 -0.15055758094E+03  0.15088106707E+03  0.41800000000E+01 0. -1.
         -5    1    4    4    0  501 -0.22528774919E+01  0.52851521414E+02 -0.33889073695E+01  0.53172510434E+02  0.41800000000E+01 0. -1.
</event>
<event>
11    1  0.8041700E-009  0.2248978E+03  0.7561462E-02  0.1038192E+00
         22   -1    0    0    0    0  0.00000000000E+00  0.00000000000E+00  0.16910966743E+04  0.16910966743E+04  0.00000000000E+00 0.  1.
         22   -1    0    0    0    0 -0.00000000000E+00 -0.00000000000E+00 -0.68041939379E+03  0.68041939379E+03  0.00000000000E+00 0.  1.
         24    2    1    2    0    0 -0.19437689489E+03 -0.14405380844E+02 -0.58111142002E+03  0.61827182024E+03  0.81115158593E+02 0.  0.
         25    2    1    2    0    0  0.13753448980E+03  0.24147072533E+02  0.31816118543E+02  0.19015895079E+03  0.12509733879E+03 0.  0.
        -24    2    1    2    0    0  0.56842405094E+02 -0.97416916889E+01  0.15599725819E+04  0.15630852970E+04  0.79970180463E+02 0.  0.
        -11    1    3    3    0    0 -0.16902609755E+03 -0.13195716445E+02 -0.56048986961E+03  0.58557052737E+03  0.00000000000E+00 0.  1.
         12    1    3    3    0    0 -0.25350797345E+02 -0.12096643981E+01 -0.20621550411E+02  0.32701292869E+02  0.00000000000E+00 0. -1.
         13    1    5    5    0    0 -0.16324936960E+02 -0.16357521471E+02  0.52511098121E+03  0.52561926778E+03  0.00000000000E+00 0. -1.
        -14    1    5    5    0    0  0.73167342054E+02  0.66158297824E+01  0.10348616007E+04  0.10374660292E+04  0.00000000000E+00 0.  1.
          5    1    4    4  501    0  0.12060789598E+03  0.68293209240E+02  0.13639271357E+02  0.13933315873E+03  0.41800000000E+01 0. -1.
         -5    1    4    4    0  501  0.16926593823E+02 -0.44146136707E+02  0.18176847186E+02  0.50825792057E+02  0.41800000000E+01 0. -1.
</event>
<event>
11    1  0.8041700E-009  0.1467897E+03  0.7561462E-02  0.1100205E+00
         22   -1    0    0    0    0  0.00000000000E+00  0.00000000000E+00  0.65491469756E+03  0.65491469756E+03  0.00000000000E+00 0.  1.
         22   -1    0    0    0    0 -0.00000000000E+00 -0.00000000000E+00 -0.14831633928E+03  0.14831633928E+03  0.00000000000E+00 0.  1.
         24    2    1    2    0    0 -0.33207933558E+02 -0.29430831078E+02 -0.62272089344E+02  0.11059728524E+03  0.79906230805E+02 0.  0.
         25    2    1    2    0    0 -0.31560909250E+02  0.72494551139E+02  0.41712929735E+02  0.15374970496E+03  0.12508977709E+03 0.  0.
        -24    2    1    2    0    0  0.64768842808E+02 -0.43063720060E+02  0.52715751789E+03  0.53888404664E+03  0.80321105986E+02 0.  0.
        -13    1    3    3    0    0 -0.38290407155E+02 -0.20644882481E+02 -0.79487442074E+02  0.90612470997E+02  0.00000000000E+00 0.  1.
         14    1    3    3    0    0  0.50824735965E+01 -0.87859485978E+01  0.17215352730E+02  0.19984814241E+02  0.00000000000E+00 0. -1.
         13    1    5    5    0    0 -0.16344809594E+02  0.52627071342E+01  0.93986211568E+02  0.95541911495E+02  0.00000000000E+00 0. -1.
        -14    1    5    5    0    0  0.81113652403E+02 -0.48326427194E+02  0.43317130632E+03  0.44334213514E+03  0.00000000000E+00 0.  1.
          5    1    4    4  501    0 -0.34847342256E+01 -0.26883033634E+02 -0.19478621464E+02  0.33641194452E+02  0.41800000000E+01 0. -1.
         -5    1    4    4    0  501 -0.28076175025E+02  0.99377584773E+02  0.61191551199E+02  0.12010851051E+03  0.41800000000E+01 0. -1.
</event>
<event>
11    1  0.8041700E-009  0.1276645E+03  0.7561462E-02  0.1122172E+00
         22   -1    0    0    0    0  0.00000000000E+00  0.00000000000E+00  0.41822167971E+03  0.41822167971E+03  0.00000000000E+00 0. -1.
         22   -1    0    0    0    0 -0.00000000000E+00 -0.00000000000E+00 -0.12077214865E+04  0.12077214865E+04  0.00000000000E+00 0. -1.
        -24    2    1    2    0    0 -0.31181853840E+02  0.19668881085E+02 -0.94291845509E+03  0.94734131834E+03  0.83673099635E+02 0.  0.
         25    2    1    2    0    0  0.54361251994E+02 -0.28423276121E+02 -0.23814654366E+03  0.27590314546E+03  0.12508293679E+03 0.  0.
         24    2    1    2    0    0 -0.23179398154E+02  0.87543950356E+01  0.39156519196E+03  0.40269870240E+03  0.90713953872E+02 0.  0.
        -13    1    5    5    0    0 -0.51495930819E+02 -0.16168681461E+02  0.18481216090E+03  0.19253257378E+03  0.00000000000E+00 0.  1.
         14    1    5    5    0    0  0.28316532666E+02  0.24923076496E+02  0.20675303107E+03  0.21016612862E+03  0.00000000000E+00 0. -1.
         13    1    3    3    0    0 -0.17546970226E+02  0.48441087225E+02 -0.75403699334E+03  0.75579509288E+03  0.00000000000E+00 0. -1.
        -14    1    3    3    0    0 -0.13634883614E+02 -0.28772206139E+02 -0.18888146175E+03  0.19154622546E+03  0.00000000000E+00 0.  1.
          5    1    4    4  501    0  0.16260805841E+02  0.24131319896E+01 -0.22410349944E+03  0.22474449465E+03  0.41800000000E+01 0.  1.
         -5    1    4    4    0  501  0.38100446153E+02 -0.30836408110E+02 -0.14043044214E+02  0.51158650813E+02  0.41800000000E+01 0.  1.
</event>
<event>
11    1  0.8041700E-009  0.2388235E+03  0.7561462E-02  0.1030027E+00
         22   -1    0    0    0    0  0.00000000000E+00  0.00000000000E+00  0.36982966606E+03  0.36982966606E+03  0.00000000000E+00 0.  1.
         22   -1    0    0    0    0 -0.00000000000E+00 -0.00000000000E+00 -0.76261578876E+03  0.76261578876E+03  0.00000000000E+00 0. -1.
        -24    2    1    2    0    0 -0.93096313535E+02  0.18658372766E+03 -0.65927524854E+03  0.69581075484E+03  0.77642399447E+02 0.  0.
         25    2    1    2    0    0  0.11305817982E+03 -0.12360718510E+03  0.78985894190E+02  0.22346696165E+03  0.12505128243E+03 0.  0.
         24    2    1    2    0    0 -0.19961866284E+02 -0.62976542565E+02  0.18750323165E+03  0.21316773833E+03  0.76931799472E+02 0.  0.
        -13    1    5    5    0    0  0.10316772152E+02 -0.27983384986E+02  0.15185055802E+03  0.15475172889E+03  0.00000000000E+00 0.  1.
         14    1    5    5    0    0 -0.30278638435E+02 -0.34993157579E+02  0.35652673624E+02  0.58416009444E+02  0.00000000000E+00 0. -1.
         11    1    3    3    0    0 -0.90738250683E+02  0.16609854662E+03 -0.64065389567E+03  0.66802662475E+03  0.00000000000E+00 0. -1.
        -12    1    3    3    0    0 -0.23580628526E+01  0.20485181036E+02 -0.18621352865E+02  0.27784130093E+02  0.00000000000E+00 0.  1.
          5    1    4    4  501    0  0.99934501622E+02 -0.12800230726E+03  0.21110082630E+02  0.16381270789E+03  0.41800000000E+01 0.  1.
         -5    1    4    4    0  501  0.13123678197E+02  0.43951221599E+01  0.57875811559E+02  0.59654253762E+02  0.41800000000E+01 0.  1.
</event>
<event>
11    1  0.8041700E-009  0.1391949E+03  0.7561462E-02  0.1108461E+00
         22   -1    0    0    0    0  0.00000000000E+00  0.00000000000E+00  0.26962894013E+03  0.26962894013E+03  0.00000000000E+00 0.  1.
         22   -1    0    0    0    0 -0.00000000000E+00 -0.00000000000E+00 -0.85640247690E+03  0.85640247690E+03  0.00000000000E+00 0. -1.
        -24    2    1    2    0    0  0.16645985210E+02  0.21686486608E+02 -0.74138488855E+03  0.74633588421E+03  0.81352975070E+02 0.  0.
         25    2    1    2    0    0 -0.50998905817E+02 -0.68696294005E+02 -0.43986414944E+02  0.15780590198E+03  0.12509128185E+03 0.  0.
         24    2    1    2    0    0  0.34352920607E+02  0.47009807397E+02  0.19859776673E+03  0.22188963084E+03  0.80024309932E+02 0.  0.
        -13    1    5    5    0    0  0.37857594601E+02  0.23658566784E+02  0.19235244657E+03  0.19746490563E+03  0.00000000000E+00 0.  1.
         14    1    5    5    0    0 -0.35046739943E+01  0.23351240613E+02  0.62453201540E+01  0.24424725215E+02  0.00000000000E+00 0. -1.
         11    1    3    3    0    0  0.48987011449E+02  0.45362704580E+01 -0.41707607638E+03  0.41996756843E+03  0.00000000000E+00 0. -1.
        -12    1    3    3    0    0 -0.32341026239E+02  0.17150216150E+02 -0.32430881217E+03  0.32636831578E+03  0.00000000000E+00 0.  1.
          5    1    4    4  501    0  0.21081882876E+02 -0.53154783271E+02 -0.59184907104E+02  0.82402684417E+02  0.41800000000E+01 0.  1.
         -5    1    4    4    0  501 -0.72080788692E+02 -0.15541510734E+02  0.15198492160E+02  0.75403217560E+02  0.41800000000E+01 0.  1.
</event>
<event>
11    1  0.8041700E-009  0.1295045E+03  0.7561462E-02  0.1119879E+00
         22   -1    0    0    0    0  0.00000000000E+00  0.00000000000E+00  0.44966625848E+03  0.44966625848E+03  0.00000000000E+00 0.  1.
         22   -1    0    0    0    0 -0.00000000000E+00 -0.00000000000E+00 -0.52769134840E+03  0.52769134840E+03  0.00000000000E+00 0. -1.
         24    2    1    2    0    0 -0.39376513358E+01  0.56194728255E+01 -0.31313191611E+03  0.32337108278E+03  0.80437408718E+02 0.  0.
         25    2    1    2    0    0  0.33525474237E+02 -0.21134610653E+02 -0.18400056929E+03  0.22599431623E+03  0.12508633930E+03 0.  0.
        -24    2    1    2    0    0 -0.29587822901E+02  0.15515137828E+02  0.41910739548E+03  0.42799220786E+03  0.80063489020E+02 0.  0.
        -13    1    3    3    0    0  0.27560886781E+02 -0.10731283076E+02 -0.51870312373E+02  0.59710068015E+02  0.00000000000E+00 0.  1.
         14    1    3    3    0    0 -0.31498538117E+02  0.16350755901E+02 -0.26126160374E+03  0.26366101477E+03  0.00000000000E+00 0. -1.
         13    1    5    5    0    0 -0.82203555640E+01  0.14716074684E+02  0.12909389028E+02  0.21231802202E+02  0.00000000000E+00 0. -1.
        -14    1    5    5    0    0 -0.21367467337E+02  0.79906314446E+00  0.40619800645E+03  0.40676040566E+03  0.00000000000E+00 0.  1.
          5    1    4    4  501    0  0.46080351391E+02  0.37035365139E+02 -0.13950397848E+03  0.15157126861E+03  0.41800000000E+01 0.  1.
         -5    1    4    4    0  501 -0.12554877154E+02 -0.58169975793E+02 -0.44496590805E+02  0.74423047622E+02  0.41800000000E+01 0.  1.
</event>
<event>
11    1  0.8041700E-009  0.1413913E+03  0.7561462E-02  0.1106015E+00
         22   -1    0    0    0    0  0.00000000000E+00  0.00000000000E+00  0.11498376151E+04  0.11498376151E+04  0.00000000000E+00 0. -1.
         22   -1    0    0    0    0 -0.00000000000E+00 -0.00000000000E+00 -0.71052410299E+03  0.71052410299E+03  0.00000000000E+00 0.  1.
         24    2    1    2    0    0  0.19323700367E+02  0.14736194666E+02 -0.60840436339E+03  0.61415195864E+03  0.80225919020E+02 0.  0.
         25    2    1    2    0    0  0.73428580262E+00 -0.77283261064E+02 -0.40980315538E+02  0.15265376613E+03  0.12510213601E+03 0.  0.
        -24    2    1    2    0    0 -0.20057986169E+02  0.62547066398E+02  0.10886981911E+04  0.10935559933E+04  0.79287458122E+02 0.  0.
        -11    1    3    3    0    0 -0.18280804891E+01  0.32785285239E+02 -0.52903074732E+03  0.53004881701E+03  0.00000000000E+00 0.  1.
         12    1    3    3    0    0  0.21151780856E+02 -0.18049090573E+02 -0.79373616070E+02  0.84103141630E+02  0.00000000000E+00 0. -1.
         13    1    5    5    0    0 -0.34856094702E+02  0.72403508265E+02  0.72833817155E+03  0.73275760486E+03  0.00000000000E+00 0. -1.
        -14    1    5    5    0    0  0.14798108533E+02 -0.98564418674E+01  0.36036001952E+03  0.36079838849E+03  0.00000000000E+00 0.  1.
          5    1    4    4  501    0  0.34591104213E+02 -0.94038004710E+02 -0.52157652630E+02  0.11303797569E+03  0.41800000000E+01 0. -1.
         -5    1    4    4    0  501 -0.33856818411E+02  0.16754743646E+02  0.11177337092E+02  0.39615790437E+02  0.41800000000E+01 0. -1.
</event>
<event>
11    1  0.8041700E-009  0.2205253E+03  0.7561462E-02  0.1040889E+00
         22   -1    0    0    0    0  0.00000000000E+00  0.00000000000E+00  0.70997531452E+03  0.70997531452E+03  0.00000000000E+00 0. -1.
         22   -1    0    0    0    0 -0.00000000000E+00 -0.00000000000E+00 -0.25928650038E+03  0.25928650038E+03  0.00000000000E+00 0.  1.
         24    2    1    2    0    0 -0.25049019748E+02 -0.18222650175E+03 -0.16301786362E+03  0.25787713510E+03  0.78050250589E+02 0.  0.
         25    2    1    2    0    0 -0.61341492089E+02  0.17347972991E+03  0.27810893552E+03  0.35616036263E+03  0.12509048144E+03 0.  0.
        -24    2    1    2    0    0  0.86390511837E+02  0.87467718409E+01  0.33559774223E+03  0.35522431717E+03  0.77579922444E+02 0.  0.
        -11    1    3    3    0    0  0.17885733217E+02 -0.11353709202E+03 -0.11998021453E+03  0.16615000028E+03  0.00000000000E+00 0.  1.
         12    1    3    3    0    0 -0.42934752965E+02 -0.68689409738E+02 -0.43037649089E+02  0.91727134816E+02  0.00000000000E+00 0. -1.
         11    1    5    5    0    0  0.75782601695E+02 -0.12771254739E+02  0.31289455046E+03  0.32219420754E+03  0.00000000000E+00 0. -1.
        -12    1    5    5    0    0  0.10607910142E+02  0.21518026579E+02  0.22703191773E+02  0.33030109629E+02  0.00000000000E+00 0.  1.
          5    1    4    4  501    0 -0.33254049247E+02  0.68650078641E+02  0.22020695379E+03  0.23308204561E+03  0.41800000000E+01 0. -1.
         -5    1    4    4    0  501 -0.28087442842E+02  0.10482965127E+03  0.57901981736E+02  0.12307831702E+03  0.41800000000E+01 0. -1.
</event>
<event>
11    1  0.8041700E-009  0.1341468E+03  0.7561462E-02  0.1114276E+00
         22   -1    0    0    0    0  0.00000000000E+00  0.00000000000E+00  0.12353198617E+04  0.12353198617E+04  0.00000000000E+00 0. -1.
         22   -1    0    0    0    0 -0.00000000000E+00 -0.00000000000E+00 -0.20190777327E+03  0.20190777327E+03  0.00000000000E+00 0.  1.
         24    2    1    2    0    0  0.17242099504E+02 -0.42711660528E+02 -0.15087801335E+03  0.17657924569E+03  0.79337753661E+02 0.  0.
         25    2    1    2    0    0 -0.41061494515E+02  0.65208377868E+02  0.11164836185E+03  0.18453035445E+03  0.12509163095E+03 0.  0.
        -24    2    1    2    0    0  0.23819395011E+02 -0.22496717340E+02  0.10726417400E+04  0.10761180349E+04  0.79976601276E+02 0.  0.
        -13    1    3    3    0    0  0.57174905748E+00 -0.64384547533E+02 -0.10474022672E+03  0.12294800508E+03  0.00000000000E+00 0.  1.
         14    1    3    3    0    0  0.16670350446E+02  0.21672887005E+02 -0.46137786629E+02  0.53631240617E+02  0.00000000000E+00 0. -1.
         11    1    5    5    0    0  0.12228848141E+02  0.32035131439E+01  0.95720224655E+03  0.95728571912E+03  0.00000000000E+00 0. -1.
        -12    1    5    5    0    0  0.11590546870E+02 -0.25700230484E+02  0.11543949343E+03  0.11883231575E+03  0.00000000000E+00 0.  1.
          5    1    4    4  501    0 -0.23538570332E+02  0.13407544076E+02 -0.25117557005E+02  0.37177824053E+02  0.41800000000E+01 0. -1.
         -5    1    4    4    0  501 -0.17522924183E+02  0.51800833792E+02  0.13676591886E+03  0.14735253040E+03  0.41800000000E+01 0. -1.
</event>
<event>
11    1  0.8041700E-009  0.1329285E+03  0.7561462E-02  0.1115722E+00
         22   -1    0    0    0    0  0.00000000000E+00  0.00000000000E+00  0.41122285875E+03  0.41122285875E+03  0.00000000000E+00 0.  1.
         22   -1    0    0    0    0 -0.00000000000E+00 -0.00000000000E+00 -0.25624942938E+04  0.25624942938E+04  0.00000000000E+00 0.  1.
         24    2    1    2    0    0 -0.40068646417E+02  0.19802588432E+02 -0.24011293057E+04  0.24028127710E+04  0.78036089053E+02 0.  0.
         25    2    1    2    0    0  0.54341653448E+02 -0.13834778758E+02 -0.12583795762E+03  0.18608358235E+03  0.12508993420E+03 0.  0.
        -24    2    1    2    0    0 -0.14273007032E+02 -0.59678096736E+01  0.37569582818E+03  0.38482079921E+03  0.81855718862E+02 0.  0.
        -13    1    3    3    0    0 -0.47355565739E+02  0.21459080438E+02 -0.23766419331E+04  0.23772105334E+04  0.00000000000E+00 0.  1.
         14    1    3    3    0    0  0.72869193220E+01 -0.16564920062E+01 -0.24487372570E+02  0.25602237683E+02  0.00000000000E+00 0. -1.
         13    1    5    5    0    0  0.26569107973E+02  0.47021398319E+01  0.53985281380E+02  0.60352615711E+02  0.00000000000E+00 0. -1.
        -14    1    5    5    0    0 -0.40842115005E+02 -0.10669949505E+02  0.32171054680E+03  0.32446818350E+03  0.00000000000E+00 0.  1.
          5    1    4    4  501    0  0.44223795280E+02  0.48668166601E+02 -0.33164505379E+02  0.73767820399E+02  0.41800000000E+01 0. -1.
         -5    1    4    4    0  501  0.10117858168E+02 -0.62502945359E+02 -0.92673452239E+02  0.11231576195E+03  0.41800000000E+01 0. -1.
</event>
<event>
11    1  0.8041700E-009  0.1468914E+03  0.7561462E-02  0.1100098E+00
         22   -1    0    0    0    0  0.00000000000E+00  0.00000000000E+00  0.10916140411E+03  0.10916140411E+03  0.00000000000E+00 0. -1.
         22   -1    0    0    0    0 -0.00000000000E+00 -0.00000000000E+00 -0.52052314429E+03  0.52052314429E+03  0.00000000000E+00 0. -1.
         24    2    1    2    0    0  0.18251762633E+02 -0.37176924706E+02 -0.30931571175E+03  0.32276604153E+03  0.82379957895E+02 0.  0.
         25    2    1    2    0    0  0.59104788696E+02  0.52625926243E+02 -0.12304624959E+03  0.19248579684E+03  0.12509012065E+03 0.  0.
        -24    2    1    2    0    0 -0.77356551328E+02 -0.15449001537E+02  0.21000221161E+02  0.11443271004E+03  0.80194314981E+02 0.  0.
        -13    1    3    3    0    0  0.34273682362E+02  0.74994541163E+01 -0.64817625796E+02  0.73703810814E+02  0.00000000000E+00 0.  1.
         14    1    3    3    0    0 -0.16021919729E+02 -0.44676378822E+02 -0.24449808595E+03  0.24906223072E+03  0.00000000000E+00 0. -1.
         13    1    5    5    0    0 -0.54317283485E+02 -0.47366695966E+02  0.60414152009E+01  0.72321987456E+02  0.00000000000E+00 0. -1.
        -14    1    5    5    0    0 -0.23039267843E+02  0.31917694429E+02  0.14958805960E+02  0.42110722580E+02  0.00000000000E+00 0.  1.
          5    1    4    4  501    0  0.21766688733E+02 -0.37071460019E+02 -0.68512088669E+02  0.80990496850E+02  0.41800000000E+01 0. -1.
         -5    1    4    4    0  501  0.37338099963E+02  0.89697386262E+02 -0.54534160925E+02  0.11149529999E+03  0.41800000000E+01 0. -1.
</event>
<event>
11    1  0.8041700E-009  0.2008501E+03  0.7561462E-02  0.1053924E+00
         22   -1    0    0    0    0  0.00000000000E+00  0.00000000000E+00  0.18423933156E+04  0.18423933156E+04  0.00000000000E+00 0. -1.
         22   -1    0    0    0    0 -0.00000000000E+00 -0.00000000000E+00 -0.35372664482E+03  0.35372664482E+03  0.00000000000E+00 0.  1.
         24    2    1    2    0    0  0.11335518540E+03 -0.10424567966E+03 -0.29583573789E+03  0.34321598740E+03  0.81005372721E+02 0.  0.
         25    2    1    2    0    0 -0.20604675946E+03  0.12358224801E+03  0.56005428979E+03  0.62212088525E+03  0.12508296949E+03 0.  0.
        -24    2    1    2    0    0  0.92691574055E+02 -0.19336568352E+02  0.12244481189E+04  0.12307830878E+04  0.81167619806E+02 0.  0.
        -11    1    3    3    0    0  0.12596950229E+03 -0.97088658967E+02 -0.27741281836E+03  0.31976928401E+03  0.00000000000E+00 0.  1.
         12    1    3    3    0    0 -0.12614316890E+02 -0.71570206892E+01 -0.18422919533E+02  0.23446703390E+02  0.00000000000E+00 0. -1.
         11    1    5    5    0    0  0.67308293337E+02 -0.49282909420E+02  0.92906342872E+03  0.93280119323E+03  0.00000000000E+00 0. -1.
        -12    1    5    5    0    0  0.25383280718E+02  0.29946341068E+02  0.29538469019E+03  0.29798189455E+03  0.00000000000E+00 0.  1.
          5    1    4    4  501    0 -0.13573436575E+03  0.65872979331E+02  0.19901123128E+03  0.24977191601E+03  0.41800000000E+01 0.  1.
         -5    1    4    4    0  501 -0.70312393701E+02  0.57709268677E+02  0.36104305851E+03  0.37234896925E+03  0.41800000000E+01 0.  1.
</event>
<event>
11    1  0.8041700E-009  0.1300899E+03  0.7561462E-02  0.1119159E+00
         22   -1    0    0    0    0  0.00000000000E+00  0.00000000000E+00  0.14715006314E+04  0.14715006314E+04  0.00000000000E+00 0. -1.
         22   -1    0    0    0    0 -0.00000000000E+00 -0.00000000000E+00 -0.26296671739E+03  0.26296671739E+03  0.00000000000E+00 0. -1.
         24    2    1    2    0    0  0.12866390234E+02  0.34468935445E+02 -0.23811459161E+03  0.25392235110E+03  0.80152043892E+02 0.  0.
         25    2    1    2    0    0  0.21572562469E+02 -0.17765924138E+02  0.25372190572E+03  0.28425839897E+03  0.12508808267E+03 0.  0.
        -24    2    1    2    0    0 -0.34438952703E+02 -0.16703011307E+02  0.11929265999E+04  0.11962865987E+04  0.81010625790E+02 0.  0.
        -13    1    3    3    0    0 -0.29451594095E+02 -0.29271827652E+01 -0.11001710524E+03  0.11392861027E+03  0.00000000000E+00 0.  1.
         14    1    3    3    0    0  0.42317984329E+02  0.37396118210E+02 -0.12809748637E+03  0.13999374082E+03  0.00000000000E+00 0. -1.
         13    1    5    5    0    0 -0.76505384241E+01  0.32289647979E+02  0.51213104651E+03  0.51320498917E+03  0.00000000000E+00 0. -1.
        -14    1    5    5    0    0 -0.26788414279E+02 -0.48992659286E+02  0.68079555339E+03  0.68308160956E+03  0.00000000000E+00 0.  1.
          5    1    4    4  501    0 -0.10927912709E+02  0.43192189700E+02  0.41475458527E+02  0.61013691802E+02  0.41800000000E+01 0.  1.
         -5    1    4    4    0  501  0.32500475178E+02 -0.60958113838E+02  0.21224644720E+03  0.22324470716E+03  0.41800000000E+01 0.  1.
</event>
<event>
11    1  0.8041700E-009  0.2556760E+03  0.7561462E-02  0.1020918E+00
         22   -1    0    0    0    0  0.00000000000E+00  0.00000000000E+00  0.31604444838E+03  0.31604444838E+03  0.00000000000E+00 0. -1.
         22   -1    0    0    0    0 -0.00000000000E+00 -0.00000000000E+00 -0.27645776285E+03  0.27645776285E+03  0.00000000000E+00 0.  1.
        -24    2    1    2    0    0  0.16501644819E+02 -0.21964980417E+03 -0.37448876699E+02  0.23854903178E+03  0.83575603154E+02 0.  0.
         25    2    1    2    0    0 -0.21938527321E+02  0.22589568840E+03  0.30694862326E+02  0.26095928255E+03  0.12508961410E+03 0.  0.
         24    2    1    2    0    0  0.54368825028E+01 -0.62458842294E+01  0.46340699911E+02  0.92993896899E+02  0.80198713400E+02 0.  0.
        -11    1    5    5    0    0  0.32006083100E+02 -0.29378327863E+02  0.15358755782E+02  0.46080005237E+02  0.00000000000E+00 0.  1.
         12    1    5    5    0    0 -0.26569200598E+02  0.23132443633E+02  0.30981944129E+02  0.46913891662E+02  0.00000000000E+00 0. -1.
         11    1    3    3    0    0 -0.33599832878E+02 -0.10312419927E+03 -0.23177520820E+02  0.11090873146E+03  0.00000000000E+00 0. -1.
        -12    1    3    3    0    0  0.50101477696E+02 -0.11652560491E+03 -0.14271355879E+02  0.12764030032E+03  0.00000000000E+00 0.  1.
          5    1    4    4  501    0 -0.27289531042E+01  0.18449705231E+03 -0.27802955187E+02  0.18664695608E+03  0.41800000000E+01 0. -1.
         -5    1    4    4    0  501 -0.19209574217E+02  0.41398636096E+02  0.58497817513E+02  0.74312326474E+02  0.41800000000E+01 0. -1.
</event>
<event>
11    1  0.8041700E-009  0.1622443E+03  0.7561462E-02  0.1084985E+00
         22   -1    0    0    0    0  0.00000000000E+00  0.00000000000E+00  0.31285862335E+03  0.31285862335E+03  0.00000000000E+00 0.  1.
         22   -1    0    0    0    0 -0.00000000000E+00 -0.00000000000E+00 -0.79985156770E+03  0.79985156770E+03  0.00000000000E+00 0.  1.
        -24    2    1    2    0    0  0.13454614010E+02 -0.10192610262E+03 -0.71141395532E+03  0.72313577813E+03  0.79028986755E+02 0.  0.
         25    2    1    2    0    0 -0.25489753809E+02  0.10913244567E+03  0.19515011660E+02  0.16908019823E+03  0.12509060519E+03 0.  0.
         24    2    1    2    0    0  0.12035139799E+02 -0.72063430467E+01  0.20490599932E+03  0.22049421469E+03  0.80215049636E+02 0.  0.
        -13    1    5    5    0    0  0.33529233769E+02  0.23958633837E+02  0.13289872575E+03  0.13914128416E+03  0.00000000000E+00 0.  1.
         14    1    5    5    0    0 -0.21494093970E+02 -0.31164976884E+02  0.72007273564E+02  0.81352930530E+02  0.00000000000E+00 0. -1.
         13    1    3    3    0    0  0.67110650319E+01  0.94922241647E+00 -0.26041702918E+03  0.26050521780E+03  0.00000000000E+00 0. -1.
        -14    1    3    3    0    0  0.67435489777E+01 -0.10287532504E+03 -0.45099692615E+03  0.46263056033E+03  0.00000000000E+00 0.  1.
          5    1    4    4  501    0 -0.35616759866E+02 -0.18001993029E+02  0.83624317291E+01  0.40988144637E+02  0.41800000000E+01 0. -1.
         -5    1    4    4    0  501  0.10127006057E+02  0.12713443869E+03  0.11152579931E+02  0.12809205359E+03  0.41800000000E+01 0. -1.
</event>
<event>
11    1  0.8041700E-009  0.1493521E+03  0.7561462E-02  0.1097543E+00
         22   -1    0    0    0    0  0.00000000000E+00  0.00000000000E+00  0.30476441237E+04  0.30476441237E+04  0.00000000000E+00 0. -1.
         22   -1    0    0    0    0 -0.00000000000E+00 -0.00000000000E+00 -0.14325982529E+04  0.14325982529E+04  0.00000000000E+00 0. -1.
         24    2    1    2    0    0  0.62609890262E+02 -0.52553835955E+02 -0.14202182807E+04  0.14252920084E+04  0.88064977501E+02 0.  0.
         25    2    1    2    0    0 -0.67682487477E+02 -0.72171308399E+01  0.58166140709E+03  0.59884157958E+03  0.12509292087E+03 0.  0.
        -24    2    1    2    0    0  0.50725972144E+01  0.59770966795E+02  0.24536027444E+04  0.24561087887E+04  0.93304099412E+02 0.  0.
        -11    1    3    3    0    0  0.82267009277E+01  0.22151637165E+02 -0.46935162286E+03  0.46994608150E+03  0.00000000000E+00 0.  1.
         12    1    3    3    0    0  0.54383189335E+02 -0.74705473120E+02 -0.95086665784E+03  0.95534592687E+03  0.00000000000E+00 0. -1.
         13    1    5    5    0    0  0.32932545719E+02  0.19116051106E+02  0.18820199194E+04  0.18824050980E+04  0.00000000000E+00 0. -1.
        -14    1    5    5    0    0 -0.27859948505E+02  0.40654915689E+02  0.57158282500E+03  0.57370369071E+03  0.00000000000E+00 0.  1.
          5    1    4    4  501    0 -0.36624698949E+02 -0.30912659136E+01  0.33921070476E+02  0.50189998210E+02  0.41800000000E+01 0. -1.
         -5    1    4    4    0  501 -0.31057788528E+02 -0.41258649263E+01  0.54774033661E+03  0.54865158137E+03  0.41800000000E+01 0. -1.
</event>
<event>
11    1  0.8041700E-009  0.1826931E+03  0.7561462E-02  0.1067485E+00
         22   -1    0    0    0    0  0.00000000000E+00  0.00000000000E+00  0.20103059158E+04  0.20103059158E+04  0.00000000000E+00 0. -1.
         22   -1    0    0    0    0 -0.00000000000E+00 -0.00000000000E+00 -0.55405235556E+03  0.55405235556E+03  0.00000000000E+00 0.  1.
         24    2    1    2    0    0  0.13391759416E+02 -0.59571706467E+02 -0.50857625190E+03  0.51804975125E+03  0.77444259618E+02 0.  0.
         25    2    1    2    0    0 -0.54544870668E+02  0.18080256114E+03  0.30661926494E+03  0.38121783456E+03  0.12508778808E+03 0.  0.
        -24    2    1    2    0    0  0.41153111252E+02 -0.12123085468E+03  0.16582105472E+04  0.16650906856E+04  0.80462870794E+02 0.  0.
        -13    1    3    3    0    0 -0.21324229947E+02 -0.82976893182E+01 -0.28914861567E+03  0.29005257519E+03  0.00000000000E+00 0.  1.
         14    1    3    3    0    0  0.34715989364E+02 -0.51274017149E+02 -0.21942763623E+03  0.22799717606E+03  0.00000000000E+00 0. -1.
         11    1    5    5    0    0  0.18979841870E+02 -0.92369940380E+02  0.14903275129E+04  0.14933079173E+04  0.00000000000E+00 0. -1.
        -12    1    5    5    0    0  0.22173269382E+02 -0.28860914295E+02  0.16788303431E+03  0.17178276823E+03  0.00000000000E+00 0.  1.
          5    1    4    4  501    0  0.25734506592E+02  0.12466299579E+03  0.15435972697E+03  0.20011877737E+03  0.41800000000E+01 0. -1.
         -5    1    4    4    0  501 -0.80279377260E+02  0.56139565354E+02  0.15225953797E+03  0.18109905719E+03  0.41800000000E+01 0. -1.
</event>
<event>
11    1  0.8041700E-009  0.1303205E+03  0.7561462E-02  0.1118876E+00
         22   -1    0    0    0    0  0.00000000000E+00  0.00000000000E+00  0.13804335472E+04  0.13804335472E+04  0.00000000000E+00 0.  1.
         22   -1    0    0    0    0 -0.00000000000E+00 -0.00000000000E+00 -0.28220210088E+02  0.28220210088E+02  0.00000000000E+00 0. -1.
        -24    2    1    2    0    0  0.17787151252E+02  0.14583935892E+02  0.95733447735E+02  0.12896632248E+03  0.83296730930E+02 0.  0.
         25    2    1    2    0    0 -0.38614590308E+02 -0.38367986656E+02  0.50377784599E+03  0.52192046496E+03  0.12508263126E+03 0.  0.
         24    2    1    2    0    0  0.20827439056E+02  0.23784050764E+02  0.75270204337E+03  0.75776696983E+03  0.81553364069E+02 0.  0.
        -11    1    5    5    0    0  0.27587784346E+02  0.46235898145E+02  0.65824109252E+03  0.66043938405E+03  0.00000000000E+00 0.  1.
         12    1    5    5    0    0 -0.67603452897E+01 -0.22451847381E+02  0.94460950850E+02  0.97327585785E+02  0.00000000000E+00 0. -1.
         11    1    3    3    0    0  0.15390831725E+02  0.17471277701E+02 -0.84096022531E+01  0.24755699460E+02  0.00000000000E+00 0. -1.
        -12    1    3    3    0    0  0.23963195264E+01 -0.28873418090E+01  0.10414304999E+03  0.10421062302E+03  0.00000000000E+00 0.  1.
          5    1    4    4  501    0 -0.42976641326E+02  0.69460537495E+01  0.52485730305E+02  0.68318838163E+02  0.41800000000E+01 0.  1.
         -5    1    4    4    0  501  0.43620510178E+01 -0.45314040405E+02  0.45129211569E+03  0.45360162679E+03  0.41800000000E+01 0.  1.
</event>
<event>
11    1  0.8041700E-009  0.1499711E+03  0.7561462E-02  0.1096908E+00
         22   -1    0    0    0    0  0.00000000000E+00  0.00000000000E+00  0.15109984233E+03  0.15109984233E+03  0.00000000000E+00 0.  1.
         22   -1    0    0    0    0 -0.00000000000E+00 -0.00000000000E+00 -0.15256660629E+04  0.15256660629E+04  0.00000000000E+00 0. -1.
        -24    2    1    2    0    0 -0.64015437898E+01 -0.77212156288E+02 -0.12009367202E+04  0.12062437116E+04  0.82293310643E+02 0.  0.
         25    2    1    2    0    0  0.43070620301E+02  0.14189048576E+03 -0.26491437332E+03  0.32835351376E+03  0.12509363102E+03 0.  0.
         24    2    1    2    0    0 -0.36669076511E+02 -0.64678329474E+02  0.91284872945E+02  0.14216867989E+03  0.79693776647E+02 0.  0.
        -11    1    5    5    0    0  0.17558518294E+02 -0.28562365824E+02  0.62530783396E+02  0.70952161195E+02  0.00000000000E+00 0.  1.
         12    1    5    5    0    0 -0.54227594805E+02 -0.36115963650E+02  0.28754089549E+02  0.71216518691E+02  0.00000000000E+00 0. -1.
         11    1    3    3    0    0  0.96927557182E+01 -0.29538095215E+02 -0.93919344592E+03  0.93970781493E+03  0.00000000000E+00 0. -1.
        -12    1    3    3    0    0 -0.16094299508E+02 -0.47674061073E+02 -0.26174327431E+03  0.26653589669E+03  0.00000000000E+00 0.  1.
          5    1    4    4  501    0 -0.21211872676E+02 -0.52932354362E+00 -0.10330481261E+01  0.21650942572E+02  0.41800000000E+01 0.  1.
         -5    1    4    4    0  501  0.64282492977E+02  0.14241980931E+03 -0.26388132519E+03  0.30670257118E+03  0.41800000000E+01 0.  1.
</event>
<event>
11    1  0.8041700E-009  0.1384651E+03  0.7561462E-02  0.1109285E+00
         22   -1    0    0    0    0  0.00000000000E+00  0.00000000000E+00  0.45550778106E+03  0.45550778106E+03  0.00000000000E+00 0.  1.
         22   -1    0    0    0    0 -0.00000000000E+00 -0.00000000000E+00 -0.78510622304E+03  0.78510622304E+03  0.00000000000E+00 0.  1.
         24    2    1    2    0    0 -0.18863292478E+02  0.56351853649E+02 -0.74596875448E+03  0.75268469407E+03  0.80830135534E+02 0.  0.
         25    2    1    2    0    0 -0.33471173964E+02 -0.69338615383E+02  0.31592843891E+03  0.34840348171E+03  0.12508414961E+03 0.  0.
        -24    2    1    2    0    0  0.52334466442E+02  0.12986761734E+02  0.10044187359E+03  0.13952582832E+03  0.80444604791E+02 0.  0.
        -11    1    3    3    0    0 -0.27791796733E+02  0.33433372931E+02 -0.69212390611E+03  0.69348805022E+03  0.00000000000E+00 0.  1.
         12    1    3    3    0    0  0.89285042546E+01  0.22918480718E+02 -0.53844848371E+02  0.59196643847E+02  0.00000000000E+00 0. -1.
         11    1    5    5    0    0 -0.16348540650E+02 -0.31041549405E+01  0.50292248594E+02  0.52973774907E+02  0.00000000000E+00 0. -1.
        -12    1    5    5    0    0  0.68683007093E+02  0.16090916675E+02  0.50149624997E+02  0.86552053414E+02  0.00000000000E+00 0.  1.
          5    1    4    4  501    0  0.34255843994E+02 -0.54234338725E+01  0.18141010854E+03  0.18474300085E+03  0.41800000000E+01 0. -1.
         -5    1    4    4    0  501 -0.67727017958E+02 -0.63915181511E+02  0.13451833038E+03  0.16366048086E+03  0.41800000000E+01 0. -1.
</event>
<event>
11    1  0.8041700E-009  0.1641921E+03  0.7561462E-02  0.1083199E+00
         22   -1    0    0    0    0  0.00000000000E+00  0.00000000000E+00  0.81553302452E+03  0.81553302452E+03  0.00000000000E+00 0.  1.
         22   -1    0    0    0    0 -0.00000000000E+00 -0.00000000000E+00 -0.36011951835E+03  0.36011951835E+03  0.00000000000E+00 0. -1.
        -24    2    1    2    0    0 -0.68431394802E+02 -0.80126082965E+02 -0.28955989061E+03  0.31670574598E+03  0.73174820282E+02 0.  0.
         25    2    1    2    0    0  0.92249300764E+02  0.73839843598E+02  0.81884183689E+02  0.19056282622E+03  0.12508763011E+03 0.  0.
         24    2    1    2    0    0 -0.23817905961E+02  0.62862393669E+01  0.66308921309E+03  0.66838397067E+03  0.80268413995E+02 0.  0.
        -11    1    5    5    0    0 -0.26145726738E+02 -0.10217131431E+02  0.63571966622E+03  0.63633912564E+03  0.00000000000E+00 0.  1.
         12    1    5    5    0    0  0.23278207762E+01  0.16503370798E+02  0.27369546870E+02  0.32044845032E+02  0.00000000000E+00 0. -1.
         11    1    3    3    0    0 -0.74565273643E+02 -0.88116240719E+02 -0.24238975558E+03  0.26847205725E+03  0.00000000000E+00 0. -1.
        -12    1    3    3    0    0  0.61338788408E+01  0.79901577535E+01 -0.47170135023E+02  0.48233688732E+02  0.00000000000E+00 0.  1.
          5    1    4    4  501    0 -0.31112260101E+02  0.92881452114E+01  0.13915874278E+02  0.35571987953E+02  0.41800000000E+01 0. -1.
         -5    1    4    4    0  501  0.12336156086E+03  0.64551698387E+02  0.67968309412E+02  0.15499083827E+03  0.41800000000E+01 0. -1.
</event>
<event>
11    1  0.8041700E-009  0.1589699E+03  0.7561462E-02  0.1088050E+00
         22   -1    0    0    0    0  0.00000000000E+00  0.00000000000E+00  0.48023871477E+03  0.48023871477E+03  0.00000000000E+00 0. -1.
         22   -1    0    0    0    0 -0.00000000000E+00 -0.00000000000E+00 -0.48679992791E+03  0.48679992791E+03  0.00000000000E+00 0. -1.
        -24    2    1    2    0    0 -0.50645226335E+01 -0.99939012971E+02 -0.43043447413E+03  0.44864082316E+03  0.77403462332E+02 0.  0.
         25    2    1    2    0    0 -0.13900911104E+02  0.71585081553E+02  0.84259786289E+02  0.16752662029E+03  0.12509115752E+03 0.  0.
         24    2    1    2    0    0  0.18965433738E+02  0.28353931419E+02  0.33961347469E+03  0.35087119923E+03  0.81299773425E+02 0.  0.
        -13    1    5    5    0    0  0.26418304571E+02 -0.20004910928E+02  0.78418869305E+02  0.85133086052E+02  0.00000000000E+00 0.  1.
         14    1    5    5    0    0 -0.74528708333E+01  0.48358842346E+02  0.26119460538E+03  0.26573811318E+03  0.00000000000E+00 0. -1.
         13    1    3    3    0    0 -0.40384730244E+02 -0.44374458500E+02 -0.18231205738E+03  0.19193151193E+03  0.00000000000E+00 0. -1.
        -14    1    3    3    0    0  0.35320207611E+02 -0.55564554472E+02 -0.24812241674E+03  0.25670931123E+03  0.00000000000E+00 0.  1.
          5    1    4    4  501    0 -0.29700593623E+02 -0.26055232162E+02  0.37185397882E+01  0.39903637964E+02  0.41800000000E+01 0.  1.
         -5    1    4    4    0  501  0.15799682519E+02  0.97640313715E+02  0.80541246501E+02  0.12762298233E+03  0.41800000000E+01 0.  1.
</event>
<event>
11    1  0.8041700E-009  0.1902415E+03  0.7561462E-02  0.1061647E+00
         22   -1    0    0    0    0  0.00000000000E+00  0.00000000000E+00  0.26105400332E+03  0.26105400332E+03  0.00000000000E+00 0.  1.
         22   -1    0    0    0    0 -0.00000000000E+00 -0.00000000000E+00 -0.36842681838E+03  0.36842681838E+03  0.00000000000E+00 0.  1.
        -24    2    1    2    0    0 -0.89993852050E+02 -0.82834361013E+02 -0.53264992634E+02  0.15673549758E+03  0.82270480672E+02 0.  0.
         25    2    1    2    0    0  0.18514201923E+03 -0.22670435060E+02 -0.16181408011E+03  0.27680730086E+03  0.12508784665E+03 0.  0.
         24    2    1    2    0    0 -0.95148167175E+02  0.10550479607E+03  0.10770625768E+03  0.19593802325E+03  0.81281211244E+02 0.  0.
        -11    1    5    5    0    0 -0.15731274158E+01  0.54092281563E+02  0.19752906883E+02  0.57607525419E+02  0.00000000000E+00 0.  1.
         12    1    5    5    0    0 -0.93575039759E+02  0.51412514510E+02  0.87953350800E+02  0.13833049783E+03  0.00000000000E+00 0. -1.
         11    1    3    3    0    0 -0.74425339715E+01 -0.48862052594E+02 -0.45415481574E+02  0.67122704521E+02  0.00000000000E+00 0. -1.
        -12    1    3    3    0    0 -0.82551318078E+02 -0.33972308419E+02 -0.78495110595E+01  0.89612793058E+02  0.00000000000E+00 0.  1.
          5    1    4    4  501    0  0.28804439591E+02  0.29793193798E+02 -0.85387183747E+02  0.95004071939E+02  0.41800000000E+01 0. -1.
         -5    1    4    4    0  501  0.15633757963E+03 -0.52463628857E+02 -0.76426896361E+02  0.18180322892E+03  0.41800000000E+01 0. -1.
</event>
<event>
11    1  0.8041700E-009  0.2301422E+03  0.7561462E-02  0.1035044E+00
         22   -1    0    0    0    0  0.00000000000E+00  0.00000000000E+00  0.81044503348E+03  0.81044503348E+03  0.00000000000E+00 0. -1.
         22   -1    0    0    0    0 -0.00000000000E+00 -0.00000000000E+00 -0.41277841395E+04  0.41277841395E+04  0.00000000000E+00 0. -1.
         24    2    1    2    0    0  0.25404402165E+02 -0.47815110212E+02 -0.31253085385E+04  0.31267736920E+04  0.78921428868E+02 0.  0.
         25    2    1    2    0    0 -0.63599836233E+01  0.23942995056E+03 -0.96942891460E+03  0.10063825001E+04  0.12508463288E+03 0.  0.
        -24    2    1    2    0    0 -0.19044418542E+02 -0.19161484035E+03  0.77739834707E+03  0.80507298088E+03  0.81947407541E+02 0.  0.
        -13    1    3    3    0    0 -0.21291504769E+02 -0.34720288734E+01 -0.32009381679E+03  0.32081994125E+03  0.00000000000E+00 0.  1.
         14    1    3    3    0    0  0.46695906935E+02 -0.44343081338E+02 -0.28052147217E+04  0.28059537507E+04  0.00000000000E+00 0. -1.
         13    1    5    5    0    0 -0.50925023641E+02 -0.10148175049E+03  0.43575769133E+03  0.45030730537E+03  0.00000000000E+00 0. -1.
        -14    1    5    5    0    0  0.31880605099E+02 -0.90133089865E+02  0.34164065574E+03  0.35476567551E+03  0.00000000000E+00 0.  1.
          5    1    4    4  501    0 -0.10709049991E+02  0.19544782270E+02 -0.15611934817E+02  0.27529750715E+02  0.41800000000E+01 0. -1.
         -5    1    4    4    0  501  0.43490663679E+01  0.21988516829E+03 -0.95381697978E+03  0.97885274936E+03  0.41800000000E+01 0. -1.
</event>
<event>
11    1  0.8041700E-009  0.1416844E+03  0.7561462E-02  0.1105692E+00
         22   -1    0    0    0    0  0.00000000000E+00  0.00000000000E+00  0.28854549213E+03  0.28854549213E+03  0.00000000000E+00 0.  1.
         22   -1    0    0    0    0 -0.00000000000E+00 -0.00000000000E+00 -0.24503772129E+03  0.24503772129E+03  0.00000000000E+00 0.  1.
         24    2    1    2    0    0  0.39461510232E+02 -0.67016388859E+00 -0.15927787831E+03  0.18243006128E+03  0.79709628213E+02 0.  0.
         25    2    1    2    0    0 -0.76076083382E+02 -0.49065227531E+02  0.40229087329E+02  0.15956685341E+03  0.12509290237E+03 0.  0.
        -24    2    1    2    0    0  0.36614573150E+02  0.49735391420E+02  0.16255656182E+03  0.19158629873E+03  0.80414165085E+02 0.  0.
        -13    1    3    3    0    0  0.17618817581E+02 -0.10585855302E+02 -0.15699373395E+03  0.15833355793E+03  0.00000000000E+00 0.  1.
         14    1    3    3    0    0  0.21842692651E+02  0.99156914139E+01 -0.22841443605E+01  0.24096503355E+02  0.00000000000E+00 0. -1.
         11    1    5    5    0    0  0.68259735476E+01 -0.44724797413E+01 -0.72182840405E+01  0.10894981156E+02  0.00000000000E+00 0. -1.
        -12    1    5    5    0    0  0.29788599602E+02  0.54207871161E+02  0.16977484586E+03  0.18069131758E+03  0.00000000000E+00 0.  1.
          5    1    4    4  501    0 -0.26946101998E+02  0.43948297198E+01  0.74290491119E+02  0.79258793908E+02  0.41800000000E+01 0.  1.
         -5    1    4    4    0  501 -0.49129981385E+02 -0.53460057251E+02 -0.34061403790E+02  0.80308059498E+02  0.41800000000E+01 0.  1.
</event>
<event>
11    1  0.8041700E-009  0.1502406E+03  0.7561462E-02  0.1096633E+00
         22   -1    0    0    0    0  0.00000000000E+00  0.00000000000E+00  0.15651338556E+03  0.15651338556E+03  0.00000000000E+00 0.  1.
         22   -1    0    0    0    0 -0.00000000000E+00 -0.00000000000E+00 -0.19430805483E+04  0.19430805483E+04  0.00000000000E+00 0. -1.
        -24    2    1    2    0    0  0.13315578302E+02 -0.72406546629E+02 -0.15659090404E+04  0.15697224739E+04  0.80854867589E+02 0.  0.
         25    2    1    2    0    0  0.68232564926E+02  0.47259548128E+02 -0.33461071838E+03  0.36674361055E+03  0.12508954880E+03 0.  0.
         24    2    1    2    0    0 -0.81548143228E+02  0.25146998501E+02  0.11395259600E+03  0.16312784947E+03  0.79643141192E+02 0.  0.
        -13    1    5    5    0    0 -0.74229807023E+02  0.10763933655E+02  0.12341518002E+03  0.14442033505E+03  0.00000000000E+00 0.  1.
         14    1    5    5    0    0 -0.73183362048E+01  0.14383064847E+02 -0.94625840178E+01  0.18707514412E+02  0.00000000000E+00 0. -1.
         13    1    3    3    0    0 -0.12851782292E+02 -0.58785115536E+02 -0.13941829636E+04  0.13954809186E+04  0.00000000000E+00 0. -1.
        -14    1    3    3    0    0  0.26167360593E+02 -0.13621431093E+02 -0.17172607675E+03  0.17424155527E+03  0.00000000000E+00 0.  1.
          5    1    4    4  501    0  0.98333555862E+02  0.74486203048E+01 -0.24408106132E+03  0.26328313096E+03  0.41800000000E+01 0. -1.
         -5    1    4    4    0  501 -0.30100990936E+02  0.39810927823E+02 -0.90529657058E+02  0.10346047959E+03  0.41800000000E+01 0. -1.
</event>
<event>
11    1  0.8041700E-009  0.1296466E+03  0.7561462E-02  0.1119704E+00
         22   -1    0    0    0    0  0.00000000000E+00  0.00000000000E+00  0.40025990092E+03  0.40025990092E+03  0.00000000000E+00 0. -1.
         22   -1    0    0    0    0 -0.00000000000E+00 -0.00000000000E+00 -0.13890227702E+04  0.13890227702E+04  0.00000000000E+00 0. -1.
        -24    2    1    2    0    0  0.12080176752E+02  0.12587397023E+02 -0.10453314006E+04  0.10485558161E+04  0.80294391769E+02 0.  0.
         25    2    1    2    0    0 -0.28508916189E+01 -0.45250798820E+02 -0.32416552829E+03  0.35040941868E+03  0.12509080139E+03 0.  0.
         24    2    1    2    0    0 -0.92292851334E+01  0.32663401797E+02  0.38073405955E+03  0.39031743631E+03  0.78975942299E+02 0.  0.
        -13    1    5    5    0    0  0.31602107709E+02 -0.15265600037E+01  0.17274920835E+03  0.17562264257E+03  0.00000000000E+00 0.  1.
         14    1    5    5    0    0 -0.40831392842E+02  0.34189961801E+02  0.20798485120E+03  0.21469479374E+03  0.00000000000E+00 0. -1.
         13    1    3    3    0    0  0.18580382451E+02 -0.74788287619E+01 -0.97313959376E+03  0.97334569010E+03  0.00000000000E+00 0. -1.
        -14    1    3    3    0    0 -0.65002056985E+01  0.20066225785E+02 -0.72191806795E+02  0.75210126044E+02  0.00000000000E+00 0.  1.
          5    1    4    4  501    0  0.77717372697E+01 -0.69685815171E+02 -0.31371956888E+03  0.32148709622E+03  0.41800000000E+01 0. -1.
         -5    1    4    4    0  501 -0.10622628889E+02  0.24435016351E+02 -0.10445959407E+02  0.28922322461E+02  0.41800000000E+01 0. -1.
</event>
<event>
11    1  0.8041700E-009  0.1386448E+03  0.7561462E-02  0.1109081E+00
         22   -1    0    0    0    0  0.00000000000E+00  0.00000000000E+00  0.73533048379E+03  0.73533048379E+03  0.00000000000E+00 0. -1.
         22   -1    0    0    0    0 -0.00000000000E+00 -0.00000000000E+00 -0.14593226855E+03  0.14593226855E+03  0.00000000000E+00 0. -1.
        -24    2    1    2    0    0  0.17067842666E+02  0.51846771909E+02 -0.77699022669E+02  0.12391949980E+03  0.79621010389E+02 0.  0.
         25    2    1    2    0    0  0.44356186368E+02 -0.48002258995E+02  0.81346246994E+02  0.16289964347E+03  0.12508954314E+03 0.  0.
         24    2    1    2    0    0 -0.61424029034E+02 -0.38445129135E+01  0.58575099091E+03  0.59444360907E+03  0.80444324800E+02 0.  0.
        -11    1    5    5    0    0 -0.51731685517E+02 -0.16338240860E+02  0.17117352049E+03  0.17956469452E+03  0.00000000000E+00 0.  1.
         12    1    5    5    0    0 -0.96923435172E+01  0.12493727947E+02  0.41457747042E+03  0.41487891455E+03  0.00000000000E+00 0. -1.
         13    1    3    3    0    0  0.20085333683E+02  0.70556924465E+02 -0.74759402577E+02  0.10474095900E+03  0.00000000000E+00 0. -1.
        -14    1    3    3    0    0 -0.30174910164E+01 -0.18710152556E+02 -0.29396200923E+01  0.19178540794E+02  0.00000000000E+00 0.  1.
          5    1    4    4  501    0  0.35500588225E+02 -0.89728093868E+02  0.44352974653E+02  0.10628302477E+03  0.41800000000E+01 0. -1.
         -5    1    4    4    0  501  0.88555981425E+01  0.41725834873E+02  0.36993272341E+02  0.56616618698E+02  0.41800000000E+01 0. -1.
</event>
<event>
11    1  0.8041700E-009  0.1677540E+03  0.7561462E-02  0.1080003E+00
         22   -1    0    0    0    0  0.00000000000E+00  0.00000000000E+00  0.92728234412E+03  0.92728234412E+03  0.00000000000E+00 0. -1.
         22   -1    0    0    0    0 -0.00000000000E+00 -0.00000000000E+00 -0.11177197930E+03  0.11177197930E+03  0.00000000000E+00 0.  1.
         24    2    1    2    0    0 -0.71687967702E+02 -0.79767744242E+02 -0.26410142061E+02  0.13802790142E+03  0.82777703717E+02 0.  0.
         25    2    1    2    0    0  0.79763029158E+02  0.11562725852E+03  0.31602915074E+03  0.36776857153E+03  0.12508994506E+03 0.  0.
        -24    2    1    2    0    0 -0.80750614567E+01 -0.35859514281E+02  0.52589135615E+03  0.53325785047E+03  0.80318772623E+02 0.  0.
        -11    1    3    3    0    0 -0.70057500131E+02 -0.81925730648E+02  0.36393255873E+01  0.10785695785E+03  0.00000000000E+00 0.  1.
         12    1    3    3    0    0 -0.16304675704E+01  0.21579864065E+01 -0.30049467648E+02  0.30170943568E+02  0.00000000000E+00 0. -1.
         11    1    5    5    0    0 -0.32958677391E+02 -0.10073893442E+02  0.42111964060E+03  0.42252752507E+03  0.00000000000E+00 0. -1.
        -12    1    5    5    0    0  0.24883615934E+02 -0.25785620839E+02  0.10477171554E+03  0.11073032539E+03  0.00000000000E+00 0.  1.
          5    1    4    4  501    0  0.10183386982E+03  0.40643269416E+02  0.19011733513E+03  0.21950873766E+03  0.41800000000E+01 0.  1.
         -5    1    4    4    0  501 -0.22070840662E+02  0.74983989107E+02  0.12591181561E+03  0.14825983387E+03  0.41800000000E+01 0.  1.
</event>
<event>
11    1  0.8041700E-009  0.2193944E+03  0.7561462E-02  0.1041597E+00
         22   -1    0    0    0    0  0.00000000000E+00  0.00000000000E+00  0.17704384250E+04  0.17704384250E+04  0.00000000000E+00 0.  1.
         22   -1    0    0    0    0 -0.00000000000E+00 -0.00000000000E+00 -0.15168254966E+04  0.15168254966E+04  0.00000000000E+00 0.  1.
         24    2    1    2    0    0  0.13160652105E+03  0.11183051931E+03 -0.11004244530E+04  0.11167156869E+04  0.79332258130E+02 0.  0.
         25    2    1    2    0    0 -0.16791895158E+03 -0.13536107732E+03 -0.36880306987E+03  0.44517306469E+03  0.12507580751E+03 0.  0.
        -24    2    1    2    0    0  0.36312430534E+02  0.23530558009E+02  0.17228404513E+04  0.17253751700E+04  0.82873256550E+02 0.  0.
        -13    1    3    3    0    0  0.64196168559E+02  0.12342309561E+02 -0.51103878049E+03  0.51520298507E+03  0.00000000000E+00 0.  1.
         14    1    3    3    0    0  0.67410352490E+02  0.99488209745E+02 -0.58938567252E+03  0.60151270183E+03  0.00000000000E+00 0. -1.
         11    1    5    5    0    0  0.10200981353E+02 -0.25001380523E+02  0.24058782411E+03  0.24209838942E+03  0.00000000000E+00 0. -1.
        -12    1    5    5    0    0  0.26111449181E+02  0.48531938532E+02  0.14822526272E+04  0.14832767806E+04  0.00000000000E+00 0.  1.
          5    1    4    4  501    0 -0.10274971358E+03 -0.38049435712E+02 -0.27165875661E+03  0.29295258258E+03  0.41800000000E+01 0. -1.
         -5    1    4    4    0  501 -0.65169238006E+02 -0.97311641604E+02 -0.97144313261E+02  0.15222048211E+03  0.41800000000E+01 0. -1.
</event>
<event>
11    1  0.8041700E-009  0.2227972E+03  0.7561462E-02  0.1039479E+00
         22   -1    0    0    0    0  0.00000000000E+00  0.00000000000E+00  0.61176615648E+03  0.61176615648E+03  0.00000000000E+00 0.  1.
         22   -1    0    0    0    0 -0.00000000000E+00 -0.00000000000E+00 -0.20586238919E+03  0.20586238919E+03  0.00000000000E+00 0. -1.
         24    2    1    2    0    0  0.81186928624E+02  0.15918658132E+03 -0.56372482502E+02  0.20381494800E+03  0.80193461023E+02 0.  0.
         25    2    1    2    0    0 -0.12479671409E+03 -0.15963314585E+03  0.13315683768E+03  0.27282815330E+03  0.12508995447E+03 0.  0.
        -24    2    1    2    0    0  0.43609785465E+02  0.44656452998E+00  0.32911941211E+03  0.34098544438E+03  0.77778358439E+02 0.  0.
        -11    1    3    3    0    0 -0.15961126000E+02  0.31851715173E+02 -0.80995700052E+01  0.36536178466E+02  0.00000000000E+00 0.  1.
         12    1    3    3    0    0  0.97148054624E+02  0.12733486615E+03 -0.48272912496E+02  0.16727876953E+03  0.00000000000E+00 0. -1.
         13    1    5    5    0    0 -0.21853688323E+02 -0.24291400135E+01  0.11424825022E+03  0.11634494872E+03  0.00000000000E+00 0. -1.
        -14    1    5    5    0    0  0.65463473788E+02  0.28757045435E+01  0.21487116189E+03  0.22464049566E+03  0.00000000000E+00 0.  1.
          5    1    4    4  501    0 -0.17040000632E+02 -0.30548705280E+02 -0.24004437114E+02  0.42629454805E+02  0.41800000000E+01 0.  1.
         -5    1    4    4    0  501 -0.10775671346E+03 -0.12908444057E+03  0.15716127479E+03  0.23019869849E+03  0.41800000000E+01 0.  1.
</event>
<event>
11    1  0.8041700E-009  0.1450743E+03  0.7561462E-02  0.1102021E+00
         22   -1    0    0    0    0  0.00000000000E+00  0.00000000000E+00  0.48781711325E+02  0.48781711325E+02  0.00000000000E+00 0. -1.
         22   -1    0    0    0    0 -0.00000000000E+00 -0.00000000000E+00 -0.72332327141E+03  0.72332327141E+03  0.00000000000E+00 0.  1.
        -24    2    1    2    0    0  0.80622316122E+02 -0.39385734203E+02 -0.20205535003E+03  0.22732717906E+03  0.52915857243E+02 0.  0.
         25    2    1    2    0    0 -0.39632039863E+01  0.82047606530E+02 -0.28978914976E+03  0.32614849238E+03  0.12509025157E+03 0.  0.
         24    2    1    2    0    0 -0.76659112136E+02 -0.42661872328E+02 -0.18269706029E+03  0.21862931130E+03  0.81999421310E+02 0.  0.
        -11    1    5    5    0    0 -0.12309592893E+02  0.24239852861E+02 -0.38253170675E+02  0.46929751870E+02  0.00000000000E+00 0.  1.
         12    1    5    5    0    0 -0.64349519243E+02 -0.66901725188E+02 -0.14444388962E+03  0.17169955943E+03  0.00000000000E+00 0. -1.
         11    1    3    3    0    0  0.88016720516E+02 -0.33002854562E+02 -0.17654668628E+03  0.20001215947E+03  0.00000000000E+00 0. -1.
        -12    1    3    3    0    0 -0.73944043931E+01 -0.63828796407E+01 -0.25508663751E+02  0.27315019590E+02  0.00000000000E+00 0.  1.
          5    1    4    4  501    0  0.49234477801E+01 -0.33712255588E+01  0.11065546915E+02  0.13248555708E+02  0.41800000000E+01 0. -1.
         -5    1    4    4    0  501 -0.88866517664E+01  0.85418832089E+02 -0.30085469668E+03  0.31289993667E+03  0.41800000000E+01 0. -1.
</event>
<event>
11    1  0.8041700E-009  0.1358394E+03  0.7561462E-02  0.1112295E+00
         22   -1    0    0    0    0  0.00000000000E+00  0.00000000000E+00  0.26706898699E+03  0.26706898699E+03  0.00000000000E+00 0. -1.
         22   -1    0    0    0    0 -0.00000000000E+00 -0.00000000000E+00 -0.37013029484E+03  0.37013029484E+03  0.00000000000E+00 0. -1.
        -24    2    1    2    0    0  0.21591255528E+02  0.83181804659E+02 -0.12215015871E+03  0.16965016381E+03  0.80468141948E+02 0.  0.
         25    2    1    2    0    0  0.27890680641E+02 -0.26638393066E+02 -0.19040324940E+03  0.23105978320E+03  0.12509089486E+03 0.  0.
         24    2    1    2    0    0 -0.49481936169E+02 -0.56543411592E+02  0.20949210026E+03  0.23648933482E+03  0.79966530579E+02 0.  0.
        -13    1    5    5    0    0 -0.14474055827E+02 -0.10000431438E+02 -0.14526349788E+01  0.17652678817E+02  0.00000000000E+00 0.  1.
         14    1    5    5    0    0 -0.35007880342E+02 -0.46542980154E+02  0.21094473523E+03  0.21883665600E+03  0.00000000000E+00 0. -1.
         11    1    3    3    0    0  0.18165571576E+02 -0.12306519451E+02 -0.27185314488E+02  0.34935365112E+02  0.00000000000E+00 0. -1.
        -12    1    3    3    0    0  0.34256839518E+01  0.95488324110E+02 -0.94964844219E+02  0.13471479870E+03  0.00000000000E+00 0.  1.
          5    1    4    4  501    0  0.51973762330E+02 -0.53823889646E+02 -0.17684626729E+03  0.19206862764E+03  0.41800000000E+01 0.  1.
         -5    1    4    4    0  501 -0.24083081689E+02  0.27185496579E+02 -0.13556982110E+02  0.38991155559E+02  0.41800000000E+01 0.  1.
</event>
<event>
11    1  0.8041700E-009  0.1358500E+03  0.7561462E-02  0.1112283E+00
         22   -1    0    0    0    0  0.00000000000E+00  0.00000000000E+00  0.20133995260E+04  0.20133995260E+04  0.00000000000E+00 0. -1.
         22   -1    0    0    0    0 -0.00000000000E+00 -0.00000000000E+00 -0.38820412150E+03  0.38820412150E+03  0.00000000000E+00 0. -1.
        -24    2    1    2    0    0  0.37110228697E+01  0.10633270146E+02 -0.33104970286E+03  0.33795257797E+03  0.67016423898E+02 0.  0.
         25    2    1    2    0    0 -0.11063092865E+02  0.42081585987E+02  0.31156089972E+02  0.13605545479E+03  0.12508850040E+03 0.  0.
         24    2    1    2    0    0  0.73520699951E+01 -0.52714856133E+02  0.19250890174E+04  0.19275956147E+04  0.82608837729E+02 0.  0.
        -11    1    5    5    0    0 -0.37297242183E+02 -0.18131811417E+02  0.73882512060E+03  0.73998811186E+03  0.00000000000E+00 0.  1.
         12    1    5    5    0    0  0.44649312179E+02 -0.34583044716E+02  0.11862638968E+04  0.11876075029E+04  0.00000000000E+00 0. -1.
         11    1    3    3    0    0  0.22127607137E+02  0.15936593758E+02 -0.30150925477E+03  0.30273988295E+03  0.00000000000E+00 0. -1.
        -12    1    3    3    0    0 -0.18416584268E+02 -0.53033236120E+01 -0.29540448089E+02  0.35212695022E+02  0.00000000000E+00 0.  1.
          5    1    4    4  501    0 -0.48894178921E+02 -0.17812341473E+02  0.38277637062E+02  0.64734613154E+02  0.41800000000E+01 0. -1.
         -5    1    4    4    0  501  0.37831086056E+02  0.59893927460E+02 -0.71215470906E+01  0.71320841637E+02  0.41800000000E+01 0. -1.
</event>
<event>
11    1  0.8041700E-009  0.1272532E+03  0.7561462E-02  0.1122691E+00
         22   -1    0    0    0    0  0.00000000000E+00  0.00000000000E+00  0.56386725028E+03  0.56386725028E+03  0.00000000000E+00 0.  1.
         22   -1    0    0    0    0 -0.00000000000E+00 -0.00000000000E+00 -0.11540875477E+04  0.11540875477E+04  0.00000000000E+00 0. -1.
        -24    2    1    2    0    0 -0.15690821508E+02 -0.15600904569E+02 -0.96281583960E+03  0.96643800020E+03  0.80613132489E+02 0.  0.
         25    2    1    2    0    0  0.24075688123E+02  0.31036993783E+02 -0.16338429487E+03  0.20948808021E+03  0.12509154326E+03 0.  0.
         24    2    1    2    0    0 -0.83848666154E+01 -0.15436089214E+02  0.53597983710E+03  0.54202871754E+03  0.78817295232E+02 0.  0.
        -11    1    5    5    0    0 -0.73142166041E+01 -0.20125967744E+02  0.53673263544E+03  0.53715963576E+03  0.00000000000E+00 0.  1.
         12    1    5    5    0    0 -0.10706500113E+01  0.46898785299E+01 -0.75279834288E+00  0.48690817837E+01  0.00000000000E+00 0. -1.
         13    1    3    3    0    0 -0.28033197820E+02  0.20740399450E+02 -0.69632225770E+03  0.69719488733E+03  0.00000000000E+00 0. -1.
        -14    1    3    3    0    0  0.12342376312E+02 -0.36341304019E+02 -0.26649358191E+03  0.26924311287E+03  0.00000000000E+00 0.  1.
          5    1    4    4  501    0 -0.23384303712E+02 -0.15572614983E+02  0.45907100151E+01  0.28772886819E+02  0.41800000000E+01 0.  1.
         -5    1    4    4    0  501  0.47459991835E+02  0.46609608765E+02 -0.16797500489E+03  0.18071519339E+03  0.41800000000E+01 0.  1.
</event>
<event>
11    1  0.8041700E-009  0.1604967E+03  0.7561462E-02  0.1086611E+00
         22   -1    0    0    0    0  0.00000000000E+00  0.00000000000E+00  0.10107562906E+04  0.10107562906E+04  0.00000000000E+00 0. -1.
         22   -1    0    0    0    0 -0.00000000000E+00 -0.00000000000E+00 -0.53620562026E+03  0.53620562026E+03  0.00000000000E+00 0. -1.
         24    2    1    2    0    0  0.94761196664E+02  0.35592582513E+02 -0.51158852033E+03  0.52810761089E+03  0.83236519746E+02 0.  0.
         25    2    1    2    0    0 -0.69413785704E+02 -0.10709529772E+02  0.37880428549E+03  0.40505988508E+03  0.12509139107E+03 0.  0.
        -24    2    1    2    0    0 -0.25347410961E+02 -0.24883052741E+02  0.60733490523E+03  0.61379441494E+03  0.81401714678E+02 0.  0.
        -13    1    3    3    0    0  0.27227240076E+02  0.54494830095E+02 -0.24019780816E+03  0.24780233283E+03  0.00000000000E+00 0.  1.
         14    1    3    3    0    0  0.67533956589E+02 -0.18902247582E+02 -0.27139071217E+03  0.28030527806E+03  0.00000000000E+00 0. -1.
         11    1    5    5    0    0 -0.10565026655E+02 -0.35928770895E+02  0.57750548264E+03  0.57871847979E+03  0.00000000000E+00 0. -1.
        -12    1    5    5    0    0 -0.14782384306E+02  0.11045718154E+02  0.29829422586E+02  0.35075935157E+02  0.00000000000E+00 0.  1.
          5    1    4    4  501    0  0.89485503032E+01  0.36121212988E+02  0.42891626936E+02  0.56938410949E+02  0.41800000000E+01 0. -1.
         -5    1    4    4    0  501 -0.78362336007E+02 -0.46830742759E+02  0.33591265856E+03  0.34812147413E+03  0.41800000000E+01 0. -1.
</event>
<event>
11    1  0.8041700E-009  0.1461935E+03  0.7561462E-02  0.1100833E+00
         22   -1    0    0    0    0  0.00000000000E+00  0.00000000000E+00  0.19021586053E+03  0.19021586053E+03  0.00000000000E+00 0.  1.
         22   -1    0    0    0    0 -0.00000000000E+00 -0.00000000000E+00 -0.33472557050E+03  0.33472557050E+03  0.00000000000E+00 0. -1.
         24    2    1    2    0    0 -0.60715818109E+02  0.78321863722E+00 -0.10121857760E+03  0.14198650642E+03  0.78917321012E+02 0.  0.
         25    2    1    2    0    0  0.99083274104E+02 -0.42199115704E+01 -0.16634416138E+03  0.23055589695E+03  0.12510131387E+03 0.  0.
        -24    2    1    2    0    0 -0.38367455995E+02  0.34366929332E+01  0.12305302901E+03  0.15239902766E+03  0.81237572238E+02 0.  0.
        -11    1    3    3    0    0 -0.32901930457E+02  0.25139679594E+01  0.39084701017E+01  0.33228499835E+02  0.00000000000E+00 0.  1.
         12    1    3    3    0    0 -0.27813887652E+02 -0.17307493222E+01 -0.10512704770E+03  0.10875800659E+03  0.00000000000E+00 0. -1.
         11    1    5    5    0    0 -0.13739231336E+02 -0.26339137083E+01 -0.98421875073E+01  0.17104754721E+02  0.00000000000E+00 0. -1.
        -12    1    5    5    0    0 -0.24628224658E+02  0.60706066415E+01  0.13289521652E+03  0.13529427293E+03  0.00000000000E+00 0.  1.
          5    1    4    4  501    0  0.12609372447E+03 -0.27372136733E+01 -0.15743972698E+03  0.20177180110E+03  0.41800000000E+01 0.  1.
         -5    1    4    4    0  501 -0.27010450364E+02 -0.14826978971E+01 -0.89044344039E+01  0.28784095851E+02  0.41800000000E+01 0.  1.
</event>
<event>
11    1  0.8041700E-009  0.1346897E+03  0.7561462E-02  0.1113637E+00
         22   -1    0    0    0    0  0.00000000000E+00  0.00000000000E+00  0.81031167081E+02  0.81031167081E+02  0.00000000000E+00 0.  1.
         22   -1    0    0    0    0 -0.00000000000E+00 -0.00000000000E+00 -0.12561506091E+04  0.12561506091E+04  0.00000000000E+00 0.  1.
        -24    2    1    2    0    0 -0.33084180226E+02 -0.32946000672E+02 -0.97070844737E+03  0.97553731396E+03  0.84959750349E+02 0.  0.
         25    2    1    2    0    0  0.34067219820E+02  0.81237192136E+02 -0.21841111204E+03  0.26666476432E+03  0.12508647335E+03 0.  0.
         24    2    1    2    0    0 -0.98303959409E+00 -0.48291191464E+02  0.14000117369E+02  0.94979697928E+02  0.80573781048E+02 0.  0.
        -13    1    5    5    0    0 -0.34718340707E+02 -0.44609970910E+02  0.21049073950E+02  0.60319782827E+02  0.00000000000E+00 0.  1.
         14    1    5    5    0    0  0.33735301113E+02 -0.36812205539E+01 -0.70489565809E+01  0.34659915102E+02  0.00000000000E+00 0. -1.
         13    1    3    3    0    0  0.54040403959E+01 -0.45104852030E+02 -0.28095345524E+03  0.28460234599E+03  0.00000000000E+00 0. -1.
        -14    1    3    3    0    0 -0.38488220622E+02  0.12158851358E+02 -0.68975499213E+03  0.69093496797E+03  0.00000000000E+00 0.  1.
          5    1    4    4  501    0 -0.43930870485E+01 -0.31217130833E+02 -0.66746191923E+02  0.73934667156E+02  0.41800000000E+01 0.  1.
         -5    1    4    4    0  501  0.38460306868E+02  0.11245432297E+03 -0.15166492012E+03  0.19273009716E+03  0.41800000000E+01 0.  1.
</event>
<event>
11    1  0.8041700E-009  0.1646772E+03  0.7561462E-02  0.1082759E+00
         22   -1    0    0    0    0  0.00000000000E+00  0.00000000000E+00  0.17295814373E+04  0.17295814373E+04  0.00000000000E+00 0. -1.
         22   -1    0    0    0    0 -0.00000000000E+00 -0.00000000000E+00 -0.41916608014E+02  0.41916608014E+02  0.00000000000E+00 0.  1.
         24    2    1    2    0    0  0.59617017501E+02 -0.10308365584E+03  0.22889125113E+03  0.26764986560E+03  0.71167526537E+02 0.  0.
         25    2    1    2    0    0 -0.45073315520E+01  0.98814942892E+02  0.29036245517E+03  0.33126945378E+03  0.12507752261E+03 0.  0.
        -24    2    1    2    0    0 -0.55109685949E+02  0.42687129473E+01  0.11684111230E+04  0.11725787259E+04  0.81859738548E+02 0.  0.
        -11    1    3    3    0    0  0.73007039128E+02 -0.95061309855E+02  0.21744976428E+03  0.24829635595E+03  0.00000000000E+00 0.  1.
         12    1    3    3    0    0 -0.13390021626E+02 -0.80223459841E+01  0.11441486850E+02  0.19353509645E+02  0.00000000000E+00 0. -1.
         11    1    5    5    0    0 -0.64167351267E+02 -0.35057314888E+01  0.11393605505E+04  0.11411714171E+04  0.00000000000E+00 0. -1.
        -12    1    5    5    0    0  0.90576653177E+01  0.77744444361E+01  0.29050572411E+02  0.31407308779E+02  0.00000000000E+00 0.  1.
          5    1    4    4  501    0  0.31150832096E+02  0.10817118672E+03  0.15962064002E+03  0.19536530167E+03  0.41800000000E+01 0. -1.
         -5    1    4    4    0  501 -0.35658163648E+02 -0.93562438282E+01  0.13074181515E+03  0.13590415211E+03  0.41800000000E+01 0. -1.
</event>
<event>
11    1  0.8041700E-009  0.1569880E+03  0.7561462E-02  0.1089945E+00
         22   -1    0    0    0    0  0.00000000000E+00  0.00000000000E+00  0.42156522910E+03  0.42156522910E+03  0.00000000000E+00 0. -1.
         22   -1    0    0    0    0 -0.00000000000E+00 -0.00000000000E+00 -0.31059436036E+03  0.31059436036E+03  0.00000000000E+00 0. -1.
         24    2    1    2    0    0  0.11139768832E+02 -0.98058298724E+02 -0.24458808910E+03  0.27542990544E+03  0.79364822702E+02 0.  0.
         25    2    1    2    0    0 -0.30836548073E+02  0.62164690379E+02  0.74254293243E+02  0.16117319235E+03  0.12509099265E+03 0.  0.
        -24    2    1    2    0    0  0.19696779241E+02  0.35893608346E+02  0.28130466461E+03  0.29555649167E+03  0.80901243526E+02 0.  0.
        -13    1    3    3    0    0 -0.57308706240E+01 -0.35677858124E+02 -0.19115739909E+02  0.40879872195E+02  0.00000000000E+00 0.  1.
         14    1    3    3    0    0  0.16870639456E+02 -0.62380440600E+02 -0.22547234919E+03  0.23455003325E+03  0.00000000000E+00 0. -1.
         11    1    5    5    0    0  0.25472424356E+02  0.44071493392E+02  0.28096503066E+03  0.28553894548E+03  0.00000000000E+00 0. -1.
        -12    1    5    5    0    0 -0.57756451146E+01 -0.81778850461E+01  0.33963394411E+00  0.10017546183E+02  0.00000000000E+00 0.  1.
          5    1    4    4  501    0 -0.59971880529E+02 -0.11142361552E+02  0.48640469320E+02  0.78129036412E+02  0.41800000000E+01 0. -1.
         -5    1    4    4    0  501  0.29135332456E+02  0.73307051931E+02  0.25613823923E+02  0.83044155942E+02  0.41800000000E+01 0. -1.
</event>
<event>
11    1  0.8041700E-009  0.1915838E+03  0.7561462E-02  0.1060640E+00
         22   -1    0    0    0    0  0.00000000000E+00  0.00000000000E+00  0.24108751743E+04  0.24108751743E+04  0.00000000000E+00 0. -1.
         22   -1    0    0    0    0 -0.00000000000E+00 -0.00000000000E+00 -0.93021770019E+02  0.93021770019E+02  0.00000000000E+00 0. -1.
        -24    2    1    2    0    0 -0.63922974754E+01  0.44566959426E+02 -0.33204119578E+02  0.97287953210E+02  0.79594955514E+02 0.  0.
         25    2    1    2    0    0 -0.76709762544E+02  0.80508328722E+02  0.26376913618E+03  0.31238889895E+03  0.12508672320E+03 0.  0.
         24    2    1    2    0    0  0.83102060019E+02 -0.12507528815E+03  0.20872883877E+04  0.20942200922E+04  0.80219704493E+02 0.  0.
        -11    1    5    5    0    0  0.16730117980E+02 -0.47976829999E+02  0.12076626403E+04  0.12087310395E+04  0.00000000000E+00 0.  1.
         12    1    5    5    0    0  0.66371942039E+02 -0.77098458149E+02  0.87962574741E+03  0.88548905270E+03  0.00000000000E+00 0. -1.
         11    1    3    3    0    0 -0.37424375095E+02  0.45916618457E+02 -0.28965221097E+02  0.65938636132E+02  0.00000000000E+00 0. -1.
        -12    1    3    3    0    0  0.31032077619E+02 -0.13496590310E+01 -0.42388984806E+01  0.31349317077E+02  0.00000000000E+00 0.  1.
          5    1    4    4  501    0 -0.10609611269E+03  0.33279576578E+02  0.16646779673E+03  0.20023215300E+03  0.41800000000E+01 0.  1.
         -5    1    4    4    0  501  0.29386350146E+02  0.47228752144E+02  0.97301339452E+02  0.11215674595E+03  0.41800000000E+01 0.  1.
</event>
<event>
11    1  0.8041700E-009  0.1442185E+03  0.7561462E-02  0.1102937E+00
         22   -1    0    0    0    0  0.00000000000E+00  0.00000000000E+00  0.46495384095E+03  0.46495384095E+03  0.00000000000E+00 0. -1.
         22   -1    0    0    0    0 -0.00000000000E+00 -0.00000000000E+00 -0.27090649992E+03  0.27090649992E+03  0.00000000000E+00 0.  1.
        -24    2    1    2    0    0 -0.16259443135E+02 -0.78072026558E+02 -0.20908326284E+03  0.23796530300E+03  0.80944819537E+02 0.  0.
         25    2    1    2    0    0 -0.36417792147E+02  0.18147053548E+02  0.69350860627E+02  0.14870159636E+03  0.12508817591E+03 0.  0.
         24    2    1    2    0    0  0.52677235281E+02  0.59924973010E+02  0.33377974325E+03  0.34919344152E+03  0.64507744433E+02 0.  0.
        -11    1    5    5    0    0  0.42108587045E+02  0.29079273123E+02  0.92425049401E+02  0.10564623507E+03  0.00000000000E+00 0.  1.
         12    1    5    5    0    0  0.10568648236E+02  0.30845699887E+02  0.24135469385E+03  0.24354720645E+03  0.00000000000E+00 0. -1.
         11    1    3    3    0    0  0.15462754085E+02 -0.40368865784E+02 -0.31010854220E+02  0.53201646291E+02  0.00000000000E+00 0. -1.
        -12    1    3    3    0    0 -0.31722197219E+02 -0.37703160774E+02 -0.17807240862E+03  0.18476365670E+03  0.00000000000E+00 0.  1.
          5    1    4    4  501    0 -0.65213401714E+02 -0.16385941781E+02  0.77634827895E+02  0.10279068904E+03  0.41800000000E+01 0.  1.
         -5    1    4    4    0  501  0.28795609567E+02  0.34532995330E+02 -0.82839672685E+01  0.45910907315E+02  0.41800000000E+01 0.  1.
</event>
<event>
11    1  0.8041700E-009  0.1436307E+03  0.7561462E-02  0.1103571E+00
         22   -1    0    0    0    0  0.00000000000E+00  0.00000000000E+00  0.19140582633E+03  0.19140582633E+03  0.00000000000E+00 0. -1.
         22   -1    0    0    0    0 -0.00000000000E+00 -0.00000000000E+00 -0.14629370345E+04  0.14629370345E+04  0.00000000000E+00 0. -1.
        -24    2    1    2    0    0 -0.47085185939E+02  0.10049710491E+02 -0.13628281492E+04  0.13660515156E+04  0.80487064636E+02 0.  0.
         25    2    1    2    0    0 -0.37795793666E+01 -0.66501825410E+02 -0.41696820609E+01  0.14177936913E+03  0.12508886945E+03 0.  0.
         24    2    1    2    0    0  0.50864765305E+02  0.56452114919E+02  0.95466623077E+02  0.14651197613E+03  0.81103744676E+02 0.  0.
        -13    1    5    5    0    0 -0.15992323565E+02  0.52500763519E+01 -0.28380221850E+01  0.17069624619E+02  0.00000000000E+00 0.  1.
         14    1    5    5    0    0  0.66857088870E+02  0.51202038567E+02  0.98304645262E+02  0.12944235151E+03  0.00000000000E+00 0. -1.
         13    1    3    3    0    0 -0.53973635341E+02 -0.31170258684E+01 -0.13115463915E+04  0.13126602021E+04  0.00000000000E+00 0. -1.
        -14    1    3    3    0    0  0.68884494018E+01  0.13166736360E+02 -0.51281757699E+02  0.53391313472E+02  0.00000000000E+00 0.  1.
          5    1    4    4  501    0  0.34080600437E+02 -0.35907675945E+02 -0.53041645392E+02  0.72675560292E+02  0.41800000000E+01 0.  1.
         -5    1    4    4    0  501 -0.37860179803E+02 -0.30594149465E+02  0.48871963331E+02  0.69103808839E+02  0.41800000000E+01 0.  1.
</event>
<event>
11    1  0.8041700E-009  0.1429961E+03  0.7561462E-02  0.1104258E+00
         22   -1    0    0    0    0  0.00000000000E+00  0.00000000000E+00  0.53462425084E+03  0.53462425084E+03  0.00000000000E+00 0. -1.
         22   -1    0    0    0    0 -0.00000000000E+00 -0.00000000000E+00 -0.15943534775E+03  0.15943534775E+03  0.00000000000E+00 0.  1.
         24    2    1    2    0    0  0.24037058445E+02 -0.88892015738E+01 -0.33541317012E+02  0.88952371580E+02  0.78298827447E+02 0.  0.
         25    2    1    2    0    0 -0.22022769050E+02 -0.60941067884E+02 -0.38138737903E+02  0.14595234869E+03  0.12509479865E+03 0.  0.
        -24    2    1    2    0    0 -0.20142893947E+01  0.69830269458E+02  0.44686895801E+03  0.45915487832E+03  0.79063346477E+02 0.  0.
        -11    1    3    3    0    0  0.21420242651E+02  0.27038991018E+02 -0.39497075889E+02  0.52439992699E+02  0.00000000000E+00 0.  1.
         12    1    3    3    0    0  0.26168157945E+01 -0.35928192591E+02  0.59557588771E+01  0.36512378881E+02  0.00000000000E+00 0. -1.
         11    1    5    5    0    0  0.62102772843E+01 -0.16261069715E+02  0.49137819829E+02  0.52129792536E+02  0.00000000000E+00 0. -1.
        -12    1    5    5    0    0 -0.82245666791E+01  0.86091339173E+02  0.39773113818E+03  0.40702508578E+03  0.00000000000E+00 0.  1.
          5    1    4    4  501    0 -0.43813586970E+01 -0.45750900955E+02  0.41997334173E+02  0.62398635561E+02  0.41800000000E+01 0.  1.
         -5    1    4    4    0  501 -0.17641410353E+02 -0.15190166929E+02 -0.80136072076E+02  0.83553713133E+02  0.41800000000E+01 0.  1.
</event>
<event>
11    1  0.8041700E-009  0.1577511E+03  0.7561462E-02  0.1089212E+00
         22   -1    0    0    0    0  0.00000000000E+00  0.00000000000E+00  0.36520371667E+03  0.36520371667E+03  0.00000000000E+00 0. -1.
         22   -1    0    0    0    0 -0.00000000000E+00 -0.00000000000E+00 -0.73263600726E+03  0.73263600726E+03  0.00000000000E+00 0. -1.
         24    2    1    2    0    0 -0.43420621232E+01 -0.41908090457E+02 -0.66854809292E+03  0.67461586497E+03  0.79842790341E+02 0.  0.
         25    2    1    2    0    0 -0.92439501889E+02  0.17047688766E+02  0.10486567692E+03  0.18836224321E+03  0.12509132371E+03 0.  0.
        -24    2    1    2    0    0  0.96781564013E+02  0.24860401691E+02  0.19625012541E+03  0.23486161575E+03  0.81615906084E+02 0.  0.
        -13    1    3    3    0    0 -0.26966931108E+02  0.11834396743E+02 -0.30533556893E+03  0.30675247020E+03  0.00000000000E+00 0.  1.
         14    1    3    3    0    0  0.22624868984E+02 -0.53742487200E+02 -0.36321252400E+03  0.36786339478E+03  0.00000000000E+00 0. -1.
         11    1    5    5    0    0  0.48113509170E+02  0.44769638579E+02  0.60675427346E+02  0.89446843358E+02  0.00000000000E+00 0. -1.
        -12    1    5    5    0    0  0.48668054843E+02 -0.19909236888E+02  0.13557469806E+03  0.14541477239E+03  0.00000000000E+00 0.  1.
          5    1    4    4  501    0 -0.22673553472E+02  0.16688472045E+02 -0.26928964041E+02  0.39182095791E+02  0.41800000000E+01 0.  1.
         -5    1    4    4    0  501 -0.69765948418E+02  0.35921672117E+00  0.13179464097E+03  0.14918014741E+03  0.41800000000E+01 0.  1.
</event>
<event>
11    1  0.8041700E-009  0.1457712E+03  0.7561462E-02  0.1101280E+00
         22   -1    0    0    0    0  0.00000000000E+00  0.00000000000E+00  0.17864639300E+03  0.17864639300E+03  0.00000000000E+00 0. -1.
         22   -1    0    0    0    0 -0.00000000000E+00 -0.00000000000E+00 -0.61757041805E+03  0.61757041805E+03  0.00000000000E+00 0.  1.
        -24    2    1    2    0    0  0.54968524865E+02  0.38021265532E+02 -0.33472845082E+03  0.35056876822E+03  0.79926028974E+02 0.  0.
         25    2    1    2    0    0 -0.12504204078E+03 -0.44001943784E+02 -0.22071026845E+03  0.28622369175E+03  0.12505717133E+03 0.  0.
         24    2    1    2    0    0  0.70073515911E+02  0.59806782525E+01  0.11651469422E+03  0.15942435108E+03  0.83032425025E+02 0.  0.
        -13    1    5    5    0    0  0.53054382085E+02 -0.31807414164E+02  0.93236035747E+02  0.11189029188E+03  0.00000000000E+00 0.  1.
         14    1    5    5    0    0  0.17019133826E+02  0.37788092417E+02  0.23278658471E+02  0.47534059209E+02  0.00000000000E+00 0. -1.
         13    1    3    3    0    0  0.13200592835E+02 -0.22647594748E+02 -0.49849332143E+02  0.56321622084E+02  0.00000000000E+00 0. -1.
        -14    1    3    3    0    0  0.41767932030E+02  0.60668860280E+02 -0.28487911868E+03  0.29424714614E+03  0.00000000000E+00 0.  1.
          5    1    4    4  501    0 -0.12868856509E+03 -0.31687247306E+02 -0.23291862010E+03  0.26801750766E+03  0.41800000000E+01 0.  1.
         -5    1    4    4    0  501  0.36465243106E+01 -0.12314696479E+02  0.12208351650E+02  0.18206184085E+02  0.41800000000E+01 0.  1.
</event>
<event>
11    1  0.9907067E-009  0.1604498E+03  0.7561462E-02  0.1086655E+00
         22   -1    0    0    0    0  0.00000000000E+00  0.00000000000E+00  0.20573171254E+04  0.20573171254E+04  0.00000000000E+00 0.  1.
         22   -1    0    0    0    0 -0.00000000000E+00 -0.00000000000E+00 -0.45723692356E+03  0.45723692356E+03  0.00000000000E+00 0.  1.
        -24    2    1    2    0    0 -0.22464469277E+02 -0.12361654870E+02 -0.38731587439E+03  0.39636183871E+03  0.80197616769E+02 0.  0.
         25    2    1    2    0    0  0.11281305775E+03  0.54393820181E+02  0.60553436084E+02  0.18708214058E+03  0.12509010765E+03 0.  0.
         24    2    1    2    0    0 -0.90348588474E+02 -0.42032165311E+02  0.19268426401E+04  0.19311100696E+04  0.80832981543E+02 0.  0.
        -11    1    5    5    0    0 -0.70898229536E+02 -0.56134584661E+02  0.17816233641E+04  0.17839168877E+04  0.00000000000E+00 0.  1.
         12    1    5    5    0    0 -0.19450358939E+02  0.14102419351E+02  0.14521927597E+03  0.14719318194E+03  0.00000000000E+00 0. -1.
         11    1    3    3    0    0 -0.22771057410E+01  0.25690878825E+02 -0.49553240114E+02  0.55863494978E+02  0.00000000000E+00 0. -1.
        -12    1    3    3    0    0 -0.20187363536E+02 -0.38052533695E+02 -0.33776263428E+03  0.34049834373E+03  0.00000000000E+00 0.  1.
          5    1    4    4  501    0  0.32074945547E+02 -0.32858262640E+02 -0.12138908225E+02  0.47679062999E+02  0.41800000000E+01 0.  1.
         -5    1    4    4    0  501  0.80738112204E+02  0.87252082821E+02  0.72692344309E+02  0.13940307758E+03  0.41800000000E+01 0.  1.
</event>
<event>
11    1  0.8041700E-009  0.1315486E+03  0.7561462E-02  0.1117381E+00
         22   -1    0    0    0    0  0.00000000000E+00  0.00000000000E+00  0.28305548431E+03  0.28305548431E+03  0.00000000000E+00 0.  1.
         22   -1    0    0    0    0 -0.00000000000E+00 -0.00000000000E+00 -0.30508994522E+03  0.30508994522E+03  0.00000000000E+00 0.  1.
        -24    2    1    2    0    0  0.11211926544E+02 -0.13416161601E+02 -0.25523750680E+03  0.26830738183E+03  0.80851503282E+02 0.  0.
         25    2    1    2    0    0  0.17323153338E+02 -0.24290394878E+02  0.12618259247E+03  0.18016711254E+03  0.12509207358E+03 0.  0.
         24    2    1    2    0    0 -0.28535079881E+02  0.37706556478E+02  0.10702045341E+03  0.13967093516E+03  0.76279469686E+02 0.  0.
        -13    1    5    5    0    0 -0.14160658349E+02 -0.18881795530E+02  0.60750434892E+02  0.65174088308E+02  0.00000000000E+00 0.  1.
         14    1    5    5    0    0 -0.14374421533E+02  0.56588352008E+02  0.46270018518E+02  0.74496846853E+02  0.00000000000E+00 0. -1.
         11    1    3    3    0    0 -0.23843871695E+02 -0.30360663076E+02 -0.80412987168E+02  0.89199487583E+02  0.00000000000E+00 0. -1.
        -12    1    3    3    0    0  0.35055798239E+02  0.16944501475E+02 -0.17482451963E+03  0.17910789425E+03  0.00000000000E+00 0.  1.
          5    1    4    4  501    0  0.25064858385E+02  0.10725221700E+02 -0.17068848717E+02  0.32436021687E+02  0.41800000000E+01 0. -1.
         -5    1    4    4    0  501 -0.77417050470E+01 -0.35015616577E+02  0.14325144119E+03  0.14773109085E+03  0.41800000000E+01 0. -1.
</event>
<event>
11    1  0.8041700E-009  0.1279167E+03  0.7561462E-02  0.1121856E+00
         22   -1    0    0    0    0  0.00000000000E+00  0.00000000000E+00  0.19490538036E+03  0.19490538036E+03  0.00000000000E+00 0. -1.
         22   -1    0    0    0    0 -0.00000000000E+00 -0.00000000000E+00 -0.65735661308E+03  0.65735661308E+03  0.00000000000E+00 0. -1.
        -24    2    1    2    0    0 -0.18616582025E+02 -0.13096801303E+02 -0.54512578072E+03  0.55134004972E+03  0.79345007951E+02 0.  0.
         25    2    1    2    0    0  0.31165016334E+02  0.34057800059E+02 -0.51346991653E+02  0.14288261667E+03  0.12509091337E+03 0.  0.
         24    2    1    2    0    0 -0.12548434309E+02 -0.20960998757E+02  0.13402153965E+03  0.15803932704E+03  0.80111354560E+02 0.  0.
        -13    1    5    5    0    0  0.25176403830E+02 -0.66481224643E+01  0.10468649700E+02  0.28064950893E+02  0.00000000000E+00 0.  1.
         14    1    5    5    0    0 -0.37724838139E+02 -0.14312876292E+02  0.12355288995E+03  0.12997437615E+03  0.00000000000E+00 0. -1.
         13    1    3    3    0    0 -0.32708663647E+02 -0.69393660157E+00 -0.51365215594E+03  0.51469299153E+03  0.00000000000E+00 0. -1.
        -14    1    3    3    0    0  0.14092081622E+02 -0.12402864701E+02 -0.31473624781E+02  0.36647058191E+02  0.00000000000E+00 0.  1.
          5    1    4    4  501    0  0.50428296968E+02  0.70318122752E+02 -0.15068647476E+02  0.87932861089E+02  0.41800000000E+01 0.  1.
         -5    1    4    4    0  501 -0.19263280634E+02 -0.36260322693E+02 -0.36278344178E+02  0.54949755585E+02  0.41800000000E+01 0.  1.
</event>
<event>
11    1  0.8041700E-009  0.1298997E+03  0.7561462E-02  0.1119392E+00
         22   -1    0    0    0    0  0.00000000000E+00  0.00000000000E+00  0.69969916297E+03  0.69969916297E+03  0.00000000000E+00 0.  1.
         22   -1    0    0    0    0 -0.00000000000E+00 -0.00000000000E+00 -0.70487417066E+03  0.70487417066E+03  0.00000000000E+00 0.  1.
        -24    2    1    2    0    0  0.17802190180E+02 -0.35064974059E+02 -0.56063937663E+03  0.57025884140E+03  0.96603132371E+02 0.  0.
         25    2    1    2    0    0 -0.42491593965E+02 -0.19825987965E+02 -0.10265782760E+03  0.16847716516E+03  0.12508924916E+03 0.  0.
         24    2    1    2    0    0  0.24689403785E+02  0.54890962024E+02  0.65812219655E+03  0.66583732708E+03  0.81190739453E+02 0.  0.
        -13    1    5    5    0    0  0.46786170438E+02  0.55992207469E+02  0.58228329317E+03  0.58683720618E+03  0.00000000000E+00 0.  1.
         14    1    5    5    0    0 -0.22096766653E+02 -0.11012454457E+01  0.75838903372E+02  0.79000120903E+02  0.00000000000E+00 0. -1.
         13    1    3    3    0    0  0.16115270005E+02  0.31737221990E+02 -0.14644354142E+03  0.15070721287E+03  0.00000000000E+00 0. -1.
        -14    1    3    3    0    0  0.16869201751E+01 -0.66802196049E+02 -0.41419583521E+03  0.41955162853E+03  0.00000000000E+00 0.  1.
          5    1    4    4  501    0  0.18500504159E+02  0.19641641237E+02  0.14229367020E+02  0.30789771198E+02  0.41800000000E+01 0.  1.
         -5    1    4    4    0  501 -0.60992098124E+02 -0.39467629202E+02 -0.11688719462E+03  0.13768739396E+03  0.41800000000E+01 0.  1.
</event>
<event>
11    1  0.8041700E-009  0.1362770E+03  0.7561462E-02  0.1111788E+00
         22   -1    0    0    0    0  0.00000000000E+00  0.00000000000E+00  0.14873040768E+04  0.14873040768E+04  0.00000000000E+00 0. -1.
         22   -1    0    0    0    0 -0.00000000000E+00 -0.00000000000E+00 -0.80535583403E+02  0.80535583403E+02  0.00000000000E+00 0. -1.
        -24    2    1    2    0    0 -0.53950764667E+01  0.41460926357E+02 -0.32881197936E+02  0.96390363829E+02  0.80385407861E+02 0.  0.
         25    2    1    2    0    0 -0.41878959856E+02 -0.62748975483E+02  0.38335660426E+03  0.41024560452E+03  0.12509152166E+03 0.  0.
         24    2    1    2    0    0  0.47274036323E+02  0.21288049127E+02  0.10562930871E+04  0.10612036919E+04  0.87807598026E+02 0.  0.
        -13    1    5    5    0    0  0.55219597263E+02  0.40186169679E+02  0.51325045636E+03  0.51777423952E+03  0.00000000000E+00 0.  1.
         14    1    5    5    0    0 -0.79455609399E+01 -0.18898120553E+02  0.54304263075E+03  0.54342945238E+03  0.00000000000E+00 0. -1.
         13    1    3    3    0    0 -0.26251999163E+02  0.56540731051E+02 -0.33248383978E+02  0.70650384039E+02  0.00000000000E+00 0. -1.
        -14    1    3    3    0    0  0.20856922696E+02 -0.15079804694E+02  0.36718604179E+00  0.25739979789E+02  0.00000000000E+00 0.  1.
          5    1    4    4  501    0 -0.24421699478E+02 -0.95937446337E+02  0.33230941706E+03  0.34676711793E+03  0.41800000000E+01 0.  1.
         -5    1    4    4    0  501 -0.17457260378E+02  0.33188470854E+02  0.51047187204E+02  0.63478486584E+02  0.41800000000E+01 0.  1.
</event>
<event>
11    1  0.8041700E-009  0.1336696E+03  0.7561462E-02  0.1114841E+00
         22   -1    0    0    0    0  0.00000000000E+00  0.00000000000E+00  0.65753685995E+03  0.65753685995E+03  0.00000000000E+00 0.  1.
         22   -1    0    0    0    0 -0.00000000000E+00 -0.00000000000E+00 -0.49648605116E+03  0.49648605116E+03  0.00000000000E+00 0. -1.
         24    2    1    2    0    0 -0.46622625450E+02 -0.73926230851E+01 -0.44716220759E+03  0.45622123536E+03  0.77171598509E+02 0.  0.
         25    2    1    2    0    0  0.37300672381E+02  0.45206076435E+02  0.74988506797E+02  0.15718447732E+03  0.12509498092E+03 0.  0.
        -24    2    1    2    0    0  0.93219530693E+01 -0.37813453350E+02  0.53322450957E+03  0.54061719843E+03  0.80136268758E+02 0.  0.
        -11    1    3    3    0    0 -0.65956557199E+02 -0.22484608334E+01 -0.27069700884E+03  0.27862554371E+03  0.00000000000E+00 0.  1.
         12    1    3    3    0    0  0.19333931749E+02 -0.51441622517E+01 -0.17646519875E+03  0.17759569164E+03  0.00000000000E+00 0. -1.
         13    1    5    5    0    0  0.43262031035E+02 -0.22895863163E+02  0.23110938789E+03  0.23623584201E+03  0.00000000000E+00 0. -1.
        -14    1    5    5    0    0 -0.33940077966E+02 -0.14917590187E+02  0.30211512168E+03  0.30438135642E+03  0.00000000000E+00 0.  1.
          5    1    4    4  501    0 -0.21286100678E+02 -0.26899236918E+02 -0.44932307627E+01  0.34847217271E+02  0.41800000000E+01 0.  1.
         -5    1    4    4    0  501  0.58586773059E+02  0.72105313353E+02  0.79481737560E+02  0.12233726005E+03  0.41800000000E+01 0.  1.
</event>
<event>
11    1  0.8041700E-009  0.1828806E+03  0.7561462E-02  0.1067336E+00
         22   -1    0    0    0    0  0.00000000000E+00  0.00000000000E+00  0.96082681113E+03  0.96082681113E+03  0.00000000000E+00 0.  1.
         22   -1    0    0    0    0 -0.00000000000E+00 -0.00000000000E+00 -0.51740548428E+03  0.51740548428E+03  0.00000000000E+00 0. -1.
         24    2    1    2    0    0  0.11247227302E+03  0.76592371800E+02 -0.43239603808E+03  0.46028511391E+03  0.79872703287E+02 0.  0.
         25    2    1    2    0    0 -0.59222764610E+02 -0.10897709288E+03  0.46240625447E+02  0.18212127367E+03  0.12508645115E+03 0.  0.
        -24    2    1    2    0    0 -0.53249508411E+02  0.32384721082E+02  0.82957673948E+03  0.83582590782E+03  0.80765717912E+02 0.  0.
        -11    1    3    3    0    0  0.99733618968E+02  0.31692587340E+02 -0.35302419564E+03  0.36820822581E+03  0.00000000000E+00 0.  1.
         12    1    3    3    0    0  0.12738654052E+02  0.44899784461E+02 -0.79371842436E+02  0.92076888106E+02  0.00000000000E+00 0. -1.
         13    1    5    5    0    0 -0.74338696218E+01  0.41878468639E-01  0.41848016293E+01  0.85309282049E+01  0.00000000000E+00 0. -1.
        -14    1    5    5    0    0 -0.45815638789E+02  0.32342842613E+02  0.82539193785E+03  0.82729497962E+03  0.00000000000E+00 0.  1.
          5    1    4    4  501    0  0.24524422635E+02  0.27874333182E+01 -0.15415878468E+02  0.29399639437E+02  0.41800000000E+01 0. -1.
         -5    1    4    4    0  501 -0.83747187244E+02 -0.11176452620E+03  0.61656503916E+02  0.15272163423E+03  0.41800000000E+01 0. -1.
</event>
<event>
11    1  0.8041700E-009  0.1260663E+03  0.7561462E-02  0.1124199E+00
         22   -1    0    0    0    0  0.00000000000E+00  0.00000000000E+00  0.11397994945E+04  0.11397994945E+04  0.00000000000E+00 0.  1.
         22   -1    0    0    0    0 -0.00000000000E+00 -0.00000000000E+00 -0.26479766655E+04  0.26479766655E+04  0.00000000000E+00 0. -1.
        -24    2    1    2    0    0 -0.12847613084E+02  0.88921285640E+01 -0.25932958255E+04  0.25945574475E+04  0.79378704461E+02 0.  0.
         25    2    1    2    0    0 -0.27684157205E+01 -0.22536333001E+02  0.24028316665E+02  0.12939379145E+03  0.12509933187E+03 0.  0.
         24    2    1    2    0    0  0.15616028805E+02  0.13644204437E+02  0.10610903379E+04  0.10638249210E+04  0.73353477740E+02 0.  0.
        -11    1    5    5    0    0  0.28603057243E+02  0.35013058576E+02  0.46045220846E+03  0.46266649483E+03  0.00000000000E+00 0.  1.
         12    1    5    5    0    0 -0.12987028438E+02 -0.21368854139E+02  0.60063812943E+03  0.60115842618E+03  0.00000000000E+00 0. -1.
         13    1    3    3    0    0 -0.33003133521E+02 -0.12292050346E+02 -0.21547917297E+04  0.21550795112E+04  0.00000000000E+00 0. -1.
        -14    1    3    3    0    0  0.20155520437E+02  0.21184178910E+02 -0.43850409585E+03  0.43947793633E+03  0.00000000000E+00 0.  1.
          5    1    4    4  501    0  0.37362733429E+02  0.38467585030E+02  0.13903228133E+02  0.55556287671E+02  0.41800000000E+01 0. -1.
         -5    1    4    4    0  501 -0.40131149149E+02 -0.61003918031E+02  0.10125088532E+02  0.73837503783E+02  0.41800000000E+01 0. -1.
</event>
<event>
11    1  0.8041700E-009  0.1325426E+03  0.7561462E-02  0.1116184E+00
         22   -1    0    0    0    0  0.00000000000E+00  0.00000000000E+00  0.16626612253E+03  0.16626612253E+03  0.00000000000E+00 0. -1.
         22   -1    0    0    0    0 -0.00000000000E+00 -0.00000000000E+00 -0.13904744960E+04  0.13904744960E+04  0.00000000000E+00 0. -1.
        -24    2    1    2    0    0  0.11865999047E+02  0.32082691369E+02 -0.11997426239E+04  0.12027913076E+04  0.78450399050E+02 0.  0.
         25    2    1    2    0    0  0.32518738808E+02 -0.22810267537E+02 -0.14908254889E+03  0.19859783090E+03  0.12505085117E+03 0.  0.
         24    2    1    2    0    0 -0.44384737855E+02 -0.92724238319E+01  0.12461679924E+03  0.15535148006E+03  0.80924365345E+02 0.  0.
        -13    1    5    5    0    0 -0.13776542118E+02 -0.38126829616E+01 -0.98354190485E+01  0.17351228543E+02  0.00000000000E+00 0.  1.
         14    1    5    5    0    0 -0.30608195737E+02 -0.54597408702E+01  0.13445221829E+03  0.13800025152E+03  0.00000000000E+00 0. -1.
         13    1    3    3    0    0 -0.10646989336E+00 -0.19716095150E+02 -0.69042363752E+03  0.69070509987E+03  0.00000000000E+00 0. -1.
        -14    1    3    3    0    0  0.11972468941E+02  0.51798786519E+02 -0.50931898634E+03  0.51208620772E+03  0.00000000000E+00 0.  1.
          5    1    4    4  501    0 -0.31741598674E+02  0.13855013141E+02 -0.10879596754E+03  0.11425202593E+03  0.41800000000E+01 0.  1.
         -5    1    4    4    0  501  0.64260337482E+02 -0.36665280678E+02 -0.40286581346E+02  0.84345804976E+02  0.41800000000E+01 0.  1.
</event>
<event>
11    1  0.8041700E-009  0.1443284E+03  0.7561462E-02  0.1102819E+00
         22   -1    0    0    0    0  0.00000000000E+00  0.00000000000E+00  0.67135322623E+03  0.67135322623E+03  0.00000000000E+00 0.  1.
         22   -1    0    0    0    0 -0.00000000000E+00 -0.00000000000E+00 -0.10441755375E+04  0.10441755375E+04  0.00000000000E+00 0.  1.
         24    2    1    2    0    0  0.17264248147E+02 -0.67748027651E+02 -0.90187768465E+03  0.90809025982E+03  0.79728993538E+02 0.  0.
         25    2    1    2    0    0  0.22909482276E+02  0.12541452099E+03 -0.74587467468E+02  0.19355974606E+03  0.12509371903E+03 0.  0.
        -24    2    1    2    0    0 -0.40173730423E+02 -0.57666493338E+02  0.60364284087E+03  0.61387875782E+03  0.86735787912E+02 0.  0.
        -13    1    3    3    0    0  0.11504416365E+02  0.72004486873E+01 -0.43404142352E+03  0.43425356117E+03  0.00000000000E+00 0.  1.
         14    1    3    3    0    0  0.57598317817E+01 -0.74948476338E+02 -0.46783626112E+03  0.47383669865E+03  0.00000000000E+00 0. -1.
         13    1    5    5    0    0 -0.57765539421E+02 -0.72296781141E+01  0.31682590466E+03  0.32213006636E+03  0.00000000000E+00 0. -1.
        -14    1    5    5    0    0  0.17591808998E+02 -0.50436815224E+02  0.28681693621E+03  0.29174869147E+03  0.00000000000E+00 0.  1.
          5    1    4    4  501    0 -0.31364831824E+02 -0.13439925230E+01  0.81445805856E+01  0.32701155701E+02  0.41800000000E+01 0.  1.
         -5    1    4    4    0  501  0.54274314100E+02  0.12675851351E+03 -0.82732048054E+02  0.16085859036E+03  0.41800000000E+01 0.  1.
</event>
<event>
11    1  0.8041700E-009  0.1548343E+03  0.7561462E-02  0.1092039E+00
         22   -1    0    0    0    0  0.00000000000E+00  0.00000000000E+00  0.20561624052E+03  0.20561624052E+03  0.00000000000E+00 0.  1.
         22   -1    0    0    0    0 -0.00000000000E+00 -0.00000000000E+00 -0.17054581419E+03  0.17054581419E+03  0.00000000000E+00 0. -1.
         24    2    1    2    0    0 -0.81139909135E+01  0.20918174135E+01 -0.29925959190E+02  0.87265386310E+02  0.81544295115E+02 0.  0.
         25    2    1    2    0    0 -0.80633865611E+02 -0.32333258142E+02  0.94234235766E+01  0.15258950126E+03  0.12508994811E+03 0.  0.
        -24    2    1    2    0    0  0.88747856524E+02  0.30241440729E+02  0.55572961940E+02  0.13630716714E+03  0.81856966352E+02 0.  0.
        -11    1    3    3    0    0  0.17881948216E+02  0.26577765468E+02  0.10134134149E+02  0.33598249423E+02  0.00000000000E+00 0.  1.
         12    1    3    3    0    0 -0.25995939130E+02 -0.24485948055E+02 -0.40060093339E+02  0.53667136888E+02  0.00000000000E+00 0. -1.
         11    1    5    5    0    0  0.46375907325E+02  0.57532954306E+02  0.36486071077E+02  0.82413585009E+02  0.00000000000E+00 0. -1.
        -12    1    5    5    0    0  0.42371949199E+02 -0.27291513577E+02  0.19086890863E+02  0.53893582132E+02  0.00000000000E+00 0.  1.
          5    1    4    4  501    0  0.35005555486E+00 -0.57656155010E+02 -0.22222994101E+02  0.61932936441E+02  0.41800000000E+01 0.  1.
         -5    1    4    4    0  501 -0.80983921165E+02  0.25322896868E+02  0.31646417677E+02  0.90656564820E+02  0.41800000000E+01 0.  1.
</event>
<event>
11    1  0.8041700E-009  0.1395461E+03  0.7561462E-02  0.1108066E+00
         22   -1    0    0    0    0  0.00000000000E+00  0.00000000000E+00  0.79811357828E+03  0.79811357828E+03  0.00000000000E+00 0.  1.
         22   -1    0    0    0    0 -0.00000000000E+00 -0.00000000000E+00 -0.16064372255E+03  0.16064372255E+03  0.00000000000E+00 0.  1.
        -24    2    1    2    0    0  0.25473805005E+02  0.20574440019E+02 -0.12436747281E+03  0.15230658716E+03  0.81595379017E+02 0.  0.
         25    2    1    2    0    0 -0.28203798531E+02 -0.76909491998E+02  0.31177232476E+03  0.34577359757E+03  0.12508746571E+03 0.  0.
         24    2    1    2    0    0  0.27299935262E+01  0.56335051980E+02  0.45006500378E+03  0.46067711610E+03  0.80522088446E+02 0.  0.
        -11    1    5    5    0    0 -0.15893812229E+02 -0.14164739654E+02  0.16781932559E+03  0.16916435546E+03  0.00000000000E+00 0.  1.
         12    1    5    5    0    0  0.18623805755E+02  0.70499791633E+02  0.28224567819E+03  0.29151276064E+03  0.00000000000E+00 0. -1.
         13    1    3    3    0    0 -0.11079935037E+02  0.92886258954E+01  0.65800152109E+01  0.15885217393E+02  0.00000000000E+00 0. -1.
        -14    1    3    3    0    0  0.36553740041E+02  0.11285814123E+02 -0.13094748802E+03  0.13642136977E+03  0.00000000000E+00 0.  1.
          5    1    4    4  501    0  0.49200324582E+02 -0.40501905675E+02  0.13043143058E+03  0.14522708695E+03  0.41800000000E+01 0. -1.
         -5    1    4    4    0  501 -0.77404123113E+02 -0.36407586323E+02  0.18134089418E+03  0.20054651062E+03  0.41800000000E+01 0. -1.
</event>
<event>
11    1  0.8041700E-009  0.1453770E+03  0.7561462E-02  0.1101698E+00
         22   -1    0    0    0    0  0.00000000000E+00  0.00000000000E+00  0.26887099075E+03  0.26887099075E+03  0.00000000000E+00 0.  1.
         22   -1    0    0    0    0 -0.00000000000E+00 -0.00000000000E+00 -0.25169132749E+03  0.25169132749E+03  0.00000000000E+00 0. -1.
        -24    2    1    2    0    0  0.97961281227E+02 -0.46969865737E+01 -0.83092717092E+02  0.14998052775E+03  0.77274088586E+02 0.  0.
         25    2    1    2    0    0 -0.18730276560E+02  0.75030893351E+02  0.16605692136E+03  0.22181630038E+03  0.12508841579E+03 0.  0.
         24    2    1    2    0    0 -0.79231004668E+02 -0.70333906778E+02 -0.65784541009E+02  0.14876549011E+03  0.81111988436E+02 0.  0.
        -11    1    5    5    0    0 -0.95995352493E+02 -0.62220830842E+02 -0.60482296415E+02  0.12940111155E+03  0.00000000000E+00 0.  1.
         12    1    5    5    0    0  0.16764347826E+02 -0.81130759362E+01 -0.53022445936E+01  0.19364378557E+02  0.00000000000E+00 0. -1.
         11    1    3    3    0    0  0.92981270828E+02  0.20866570740E+02 -0.78653197082E+02  0.12356073774E+03  0.00000000000E+00 0. -1.
        -12    1    3    3    0    0  0.49800103988E+01 -0.25563557314E+02 -0.44395200097E+01  0.26419790007E+02  0.00000000000E+00 0.  1.
          5    1    4    4  501    0 -0.16857053190E+02  0.52555499077E+02  0.11922571220E+01  0.55363657778E+02  0.41800000000E+01 0. -1.
         -5    1    4    4    0  501 -0.18732233695E+01  0.22475394274E+02  0.16486466424E+03  0.16645264260E+03  0.41800000000E+01 0. -1.
</event>
<event>
11    1  0.8041700E-009  0.1397261E+03  0.7561462E-02  0.1107865E+00
         22   -1    0    0    0    0  0.00000000000E+00  0.00000000000E+00  0.27878771136E+03  0.27878771136E+03  0.00000000000E+00 0.  1.
         22   -1    0    0    0    0 -0.00000000000E+00 -0.00000000000E+00 -0.45839206186E+03  0.45839206186E+03  0.00000000000E+00 0.  1.
        -24    2    1    2    0    0  0.44767990213E+02 -0.40760119840E+02 -0.37525706081E+03  0.38845330585E+03  0.80078391728E+02 0.  0.
         25    2    1    2    0    0 -0.62612244463E+02  0.56054745832E+02  0.15902422503E+02  0.15153345883E+03  0.12508826650E+03 0.  0.
         24    2    1    2    0    0  0.17844254249E+02 -0.15294625992E+02  0.17975028780E+03  0.19719300854E+03  0.77605242462E+02 0.  0.
        -13    1    5    5    0    0 -0.12054505106E+02 -0.28111016572E+02  0.15007760196E+03  0.15316274663E+03  0.00000000000E+00 0.  1.
         14    1    5    5    0    0  0.29898759355E+02  0.12816390580E+02  0.29672685844E+02  0.44030261908E+02  0.00000000000E+00 0. -1.
         13    1    3    3    0    0  0.29139376060E+02  0.21435653190E+02 -0.14314713297E+03  0.14764718807E+03  0.00000000000E+00 0. -1.
        -14    1    3    3    0    0  0.15628614154E+02 -0.62195773030E+02 -0.23210992783E+03  0.24080611778E+03  0.00000000000E+00 0.  1.
          5    1    4    4  501    0  0.13013175271E+02  0.35516981193E+02  0.52581921342E+02  0.64908624510E+02  0.41800000000E+01 0. -1.
         -5    1    4    4    0  501 -0.75625419734E+02  0.20537764639E+02 -0.36679498839E+02  0.86624834322E+02  0.41800000000E+01 0. -1.
</event>
<event>
11    1  0.8041700E-009  0.1552798E+03  0.7561462E-02  0.1091603E+00
         22   -1    0    0    0    0  0.00000000000E+00  0.00000000000E+00  0.36338641654E+04  0.36338641654E+04  0.00000000000E+00 0.  1.
         22   -1    0    0    0    0 -0.00000000000E+00 -0.00000000000E+00 -0.24600835214E+03  0.24600835214E+03  0.00000000000E+00 0.  1.
        -24    2    1    2    0    0 -0.22883539947E+02 -0.90402654814E+02 -0.21673826705E+03  0.24874855143E+03  0.78765912906E+02 0.  0.
         25    2    1    2    0    0  0.68848152198E+02  0.40887978227E+02  0.43221333980E+03  0.45702106066E+03  0.12509190203E+03 0.  0.
         24    2    1    2    0    0 -0.45964612251E+02  0.49514676587E+02  0.31723807405E+04  0.31741029055E+04  0.79782472024E+02 0.  0.
        -11    1    5    5    0    0 -0.66268517749E+02  0.49041359044E+02  0.27481605239E+04  0.27493968132E+04  0.00000000000E+00 0.  1.
         12    1    5    5    0    0  0.20303905498E+02  0.47331754323E+00  0.42422021663E+03  0.42470609226E+03  0.00000000000E+00 0. -1.
         13    1    3    3    0    0  0.18400205744E+02  0.17242858256E+01 -0.55668485182E+02  0.58655954305E+02  0.00000000000E+00 0. -1.
        -14    1    3    3    0    0 -0.41283745691E+02 -0.92126940640E+02 -0.16106978187E+03  0.19009259712E+03  0.00000000000E+00 0.  1.
          5    1    4    4  501    0  0.82253170034E+02 -0.17375190812E+02  0.19572385339E+03  0.21305581527E+03  0.41800000000E+01 0. -1.
         -5    1    4    4    0  501 -0.13405017837E+02  0.58263169039E+02  0.23648948642E+03  0.24396524539E+03  0.41800000000E+01 0. -1.
</event>
<event>
11    1  0.8041700E-009  0.2972048E+03  0.7561462E-02  0.1001381E+00
         22   -1    0    0    0    0  0.00000000000E+00  0.00000000000E+00  0.17400110167E+04  0.17400110167E+04  0.00000000000E+00 0. -1.
         22   -1    0    0    0    0 -0.00000000000E+00 -0.00000000000E+00 -0.25865018339E+03  0.25865018339E+03  0.00000000000E+00 0.  1.
         24    2    1    2    0    0 -0.26863890829E+02 -0.25962995914E+03 -0.11942165301E+03  0.29895793325E+03  0.83575895634E+02 0.  0.
         25    2    1    2    0    0  0.28526283705E+02  0.33483411939E+03  0.64824859969E+03  0.74081119842E+03  0.12508936137E+03 0.  0.
        -24    2    1    2    0    0 -0.16623928760E+01 -0.75204160250E+02  0.95253388659E+03  0.95889206839E+03  0.80590101416E+02 0.  0.
        -13    1    3    3    0    0 -0.52260223555E+02 -0.16001006882E+03 -0.52645818742E+02  0.17636874814E+03  0.00000000000E+00 0.  1.
         14    1    3    3    0    0  0.25396332726E+02 -0.99619890325E+02 -0.66775834266E+02  0.12258918511E+03  0.00000000000E+00 0. -1.
         13    1    5    5    0    0  0.99711857471E+01 -0.90292514067E+02  0.75656142785E+03  0.76199564090E+03  0.00000000000E+00 0. -1.
        -14    1    5    5    0    0 -0.11633578623E+02  0.15088353818E+02  0.19597245874E+03  0.19689642749E+03  0.00000000000E+00 0.  1.
          5    1    4    4  501    0  0.67980894887E+02  0.27596465433E+03  0.55562761447E+03  0.62411329970E+03  0.41800000000E+01 0.  1.
         -5    1    4    4    0  501 -0.39454611182E+02  0.58869465067E+02  0.92620985228E+02  0.11669789872E+03  0.41800000000E+01 0.  1.
</event>
<event>
11    1  0.8041700E-009  0.2751014E+03  0.7561462E-02  0.1011317E+00
         22   -1    0    0    0    0  0.00000000000E+00  0.00000000000E+00  0.21692707816E+03  0.21692707816E+03  0.00000000000E+00 0.  1.
         22   -1    0    0    0    0 -0.00000000000E+00 -0.00000000000E+00 -0.74101709503E+03  0.74101709503E+03  0.00000000000E+00 0. -1.
         24    2    1    2    0    0  0.87955021860E+02  0.26503899565E+03 -0.39100160606E+03  0.48696796079E+03  0.79207220687E+02 0.  0.
         25    2    1    2    0    0 -0.16504613132E+03 -0.14149912363E+03 -0.16678124177E+03  0.30120838681E+03  0.12509309424E+03 0.  0.
        -24    2    1    2    0    0  0.77091109463E+02 -0.12353987202E+03  0.33692830967E+02  0.16976782558E+03  0.80503221097E+02 0.  0.
        -11    1    3    3    0    0  0.25571859537E+02  0.13269495456E+03 -0.12867720010E+03  0.18660035582E+03  0.00000000000E+00 0.  1.
         12    1    3    3    0    0  0.62383162323E+02  0.13234404109E+03 -0.26232440597E+03  0.30036760497E+03  0.00000000000E+00 0. -1.
         11    1    5    5    0    0 -0.16948796444E+02 -0.24283383325E+02  0.75417906435E+01  0.30558517842E+02  0.00000000000E+00 0. -1.
        -12    1    5    5    0    0  0.94039905907E+02 -0.99256488699E+02  0.26151040323E+02  0.13920930774E+03  0.00000000000E+00 0.  1.
          5    1    4    4  501    0 -0.46815996134E+01  0.10781655888E+02  0.11614666779E+02  0.17045068583E+02  0.41800000000E+01 0.  1.
         -5    1    4    4    0  501 -0.16036453171E+03 -0.15228077951E+03 -0.17839590854E+03  0.28416331823E+03  0.41800000000E+01 0.  1.
</event>
<event>
11    1  0.8041700E-009  0.5378854E+03  0.7561462E-02  0.9312635E-01
         22   -1    0    0    0    0  0.00000000000E+00  0.00000000000E+00  0.11960894512E+04  0.11960894512E+04  0.00000000000E+00 0. -1.
         22   -1    0    0    0    0 -0.00000000000E+00 -0.00000000000E+00 -0.14610488173E+04  0.14610488173E+04  0.00000000000E+00 0. -1.
         24    2    1    2    0    0  0.68397659183E+00  0.25878188037E+02 -0.10192500576E+04  0.10228230981E+04  0.81401852982E+02 0.  0.
         25    2    1    2    0    0 -0.25703692838E+03  0.43421131381E+03 -0.18720887168E+03  0.55253864839E+03  0.12507737100E+03 0.  0.
        -24    2    1    2    0    0  0.25635295179E+03 -0.46008950185E+03  0.94149956317E+03  0.10817765219E+04  0.80123843934E+02 0.  0.
        -11    1    3    3    0    0 -0.15709555624E+02  0.21352711960E+01 -0.38337610480E+02  0.41486406187E+02  0.00000000000E+00 0.  1.
         12    1    3    3    0    0  0.16393532216E+02  0.23742916841E+02 -0.98091244716E+03  0.98133669196E+03  0.00000000000E+00 0. -1.
         13    1    5    5    0    0  0.17539576914E+03 -0.35726500236E+03  0.76144462441E+03  0.85918558751E+03  0.00000000000E+00 0. -1.
        -14    1    5    5    0    0  0.80957182652E+02 -0.10282449948E+03  0.18005493876E+03  0.22259093443E+03  0.00000000000E+00 0.  1.
          5    1    4    4  501    0 -0.24007808804E+03  0.42438589794E+03 -0.14979393082E+03  0.51009467047E+03  0.41800000000E+01 0. -1.
         -5    1    4    4    0  501 -0.16958840345E+02  0.98254158702E+01 -0.37414940856E+02  0.42443977925E+02  0.41800000000E+01 0. -1.
</event>
<event>
11    1  0.8041700E-009  0.1715967E+03  0.7561462E-02  0.1076650E+00
         22   -1    0    0    0    0  0.00000000000E+00  0.00000000000E+00  0.34312078603E+04  0.34312078603E+04  0.00000000000E+00 0.  1.
         22   -1    0    0    0    0 -0.00000000000E+00 -0.00000000000E+00 -0.17690939650E+04  0.17690939650E+04  0.00000000000E+00 0. -1.
         24    2    1    2    0    0 -0.27492493214E+02 -0.61572985351E+01 -0.16347967126E+04  0.16371049695E+04  0.82210949676E+02 0.  0.
         25    2    1    2    0    0  0.14448304930E+03 -0.31553744179E+00 -0.62340533863E+02  0.20101894095E+03  0.12508725498E+03 0.  0.
        -24    2    1    2    0    0 -0.11699055609E+03  0.64728359769E+01  0.33592511418E+04  0.33621779148E+04  0.77093512722E+02 0.  0.
        -11    1    3    3    0    0  0.17629835356E+02 -0.30082120403E+02 -0.54720348169E+03  0.54831322748E+03  0.00000000000E+00 0.  1.
         12    1    3    3    0    0 -0.45122328570E+02  0.23924821867E+02 -0.10875932309E+04  0.10887917420E+04  0.00000000000E+00 0. -1.
         11    1    5    5    0    0 -0.10849348937E+02 -0.25160298716E+02  0.46315682476E+03  0.46396658643E+03  0.00000000000E+00 0. -1.
        -12    1    5    5    0    0 -0.10614120715E+03  0.31633134693E+02  0.28960943170E+04  0.28982113284E+04  0.00000000000E+00 0.  1.
          5    1    4    4  501    0  0.13852397394E+03 -0.44748981087E+02 -0.41681522925E+02  0.15147998026E+03  0.41800000000E+01 0. -1.
         -5    1    4    4    0  501  0.59590753585E+01  0.44433443645E+02 -0.20659010938E+02  0.49538960690E+02  0.41800000000E+01 0. -1.
</event>
<event>
11    1  0.8041700E-009  0.1433331E+03  0.7561462E-02  0.1103892E+00
         22   -1    0    0    0    0  0.00000000000E+00  0.00000000000E+00  0.14150229510E+04  0.14150229510E+04  0.00000000000E+00 0.  1.
         22   -1    0    0    0    0 -0.00000000000E+00 -0.00000000000E+00 -0.10284428620E+04  0.10284428620E+04  0.00000000000E+00 0. -1.
        -24    2    1    2    0    0 -0.10409427727E+02  0.69184402150E+02 -0.99332687105E+03  0.99922775874E+03  0.82843245878E+02 0.  0.
         25    2    1    2    0    0 -0.24888683772E+02 -0.76729257484E+02  0.15071599605E+03  0.21181689985E+03  0.12507702452E+03 0.  0.
         24    2    1    2    0    0  0.35298111498E+02  0.75448553344E+01  0.12291909641E+04  0.12324211544E+04  0.81538911571E+02 0.  0.
        -11    1    5    5    0    0  0.59864166473E+02  0.14296865263E+02  0.98012052286E+03  0.98205109750E+03  0.00000000000E+00 0.  1.
         12    1    5    5    0    0 -0.24566054974E+02 -0.67520099288E+01  0.24907044123E+03  0.25037005690E+03  0.00000000000E+00 0. -1.
         13    1    3    3    0    0  0.54066850794E+01  0.66927935178E+02 -0.95919020089E+03  0.96153753033E+03  0.00000000000E+00 0. -1.
        -14    1    3    3    0    0 -0.15816112806E+02  0.22564669720E+01 -0.34136670162E+02  0.37690228405E+02  0.00000000000E+00 0.  1.
          5    1    4    4  501    0 -0.84975901391E+01 -0.38428782495E+02  0.16335495778E+03  0.16808121547E+03  0.41800000000E+01 0. -1.
         -5    1    4    4    0  501 -0.16391093633E+02 -0.38300474989E+02 -0.12638961729E+02  0.43735684383E+02  0.41800000000E+01 0. -1.
</event>
<event>
11    1  0.8041700E-009  0.1525637E+03  0.7561462E-02  0.1094288E+00
         22   -1    0    0    0    0  0.00000000000E+00  0.00000000000E+00  0.43712182685E+03  0.43712182685E+03  0.00000000000E+00 0.  1.
         22   -1    0    0    0    0 -0.00000000000E+00 -0.00000000000E+00 -0.66933258128E+03  0.66933258128E+03  0.00000000000E+00 0.  1.
         24    2    1    2    0    0 -0.25698817526E+02 -0.56103646742E+01 -0.56787951566E+03  0.57419090024E+03  0.80722612668E+02 0.  0.
         25    2    1    2    0    0 -0.63324561629E+02  0.17110819696E+02 -0.32397733115E+02  0.14491420026E+03  0.12509089523E+03 0.  0.
        -24    2    1    2    0    0  0.89023379156E+02 -0.11500455022E+02  0.36806649435E+03  0.38734930763E+03  0.80679113514E+02 0.  0.
        -13    1    3    3    0    0 -0.22492226165E+02 -0.64467404408E+00 -0.56783403629E+03  0.56827969224E+03  0.00000000000E+00 0.  1.
         14    1    3    3    0    0 -0.32065913610E+01 -0.49656906301E+01 -0.45479366681E-01  0.59112079952E+01  0.00000000000E+00 0. -1.
         13    1    5    5    0    0  0.94332973304E+01  0.25627358249E+02  0.45735994360E+02  0.53268468811E+02  0.00000000000E+00 0. -1.
        -14    1    5    5    0    0  0.79590081825E+02 -0.37127813271E+02  0.32233049999E+03  0.33408083882E+03  0.00000000000E+00 0.  1.
          5    1    4    4  501    0 -0.41230566132E+02 -0.49604339369E+02 -0.36790833046E+02  0.74374645303E+02  0.41800000000E+01 0. -1.
         -5    1    4    4    0  501 -0.22093995497E+02  0.66715159064E+02  0.43930999304E+01  0.70539554953E+02  0.41800000000E+01 0. -1.
</event>
<event>
11    1  0.1202272E-008  0.2003176E+03  0.7561462E-02  0.1054299E+00
         22   -1    0    0    0    0  0.00000000000E+00  0.00000000000E+00  0.35164767022E+03  0.35164767022E+03  0.00000000000E+00 0.  1.
         22   -1    0    0    0    0 -0.00000000000E+00 -0.00000000000E+00 -0.29153780064E+04  0.29153780064E+04  0.00000000000E+00 0. -1.
        -24    2    1    2    0    0  0.64562775676E+02 -0.42878489755E+02 -0.16034812020E+04  0.16072338401E+04  0.77728595808E+02 0.  0.
         25    2    1    2    0    0  0.23679479828E+02  0.17209135968E+03 -0.12785830206E+04  0.12963791113E+04  0.12509238956E+03 0.  0.
         24    2    1    2    0    0 -0.88242255504E+02 -0.12921286993E+03  0.31833388639E+03  0.36341272524E+03  0.79054944408E+02 0.  0.
        -11    1    5    5    0    0 -0.82723889747E+02 -0.53839796709E+02  0.16054252346E+03  0.18845654004E+03  0.00000000000E+00 0.  1.
         12    1    5    5    0    0 -0.55183657575E+01 -0.75373073217E+02  0.15779136293E+03  0.17495618521E+03  0.00000000000E+00 0. -1.
         13    1    3    3    0    0  0.78586416627E+02 -0.24005932576E+02 -0.10307244651E+04  0.10339946966E+04  0.00000000000E+00 0. -1.
        -14    1    3    3    0    0 -0.14023640950E+02 -0.18872557179E+02 -0.57275673689E+03  0.57323914344E+03  0.00000000000E+00 0.  1.
          5    1    4    4  501    0  0.69801516115E+02  0.11483410631E+03 -0.96163130837E+03  0.97098474203E+03  0.41800000000E+01 0.  1.
         -5    1    4    4    0  501 -0.46122036287E+02  0.57257253374E+02 -0.31695171220E+03  0.32539436929E+03  0.41800000000E+01 0.  1.
</event>
<event>
11    1  0.8041700E-009  0.1379559E+03  0.7561462E-02  0.1109863E+00
         22   -1    0    0    0    0  0.00000000000E+00  0.00000000000E+00  0.87211413095E+03  0.87211413095E+03  0.00000000000E+00 0.  1.
         22   -1    0    0    0    0 -0.00000000000E+00 -0.00000000000E+00 -0.47528797872E+03  0.47528797872E+03  0.00000000000E+00 0.  1.
         24    2    1    2    0    0  0.17797009856E+02  0.38168963418E+02 -0.43619863023E+03  0.44522690624E+03  0.78639364793E+02 0.  0.
         25    2    1    2    0    0  0.36879662204E+02 -0.10776360528E+02  0.10489835136E+03  0.16771096491E+03  0.12508822568E+03 0.  0.
        -24    2    1    2    0    0 -0.54676672060E+02 -0.27392602890E+02  0.72812643110E+03  0.73446423852E+03  0.74362119601E+02 0.  0.
        -11    1    3    3    0    0 -0.66265147042E+01  0.56786960638E+02 -0.31831903209E+03  0.32341254736E+03  0.00000000000E+00 0.  1.
         12    1    3    3    0    0  0.24423524560E+02 -0.18617997220E+02 -0.11787959814E+03  0.12181435888E+03  0.00000000000E+00 0. -1.
         13    1    5    5    0    0 -0.19559137081E+01  0.16777963468E+01 -0.10674357494E+01  0.27892683797E+01  0.00000000000E+00 0. -1.
        -14    1    5    5    0    0 -0.52720758352E+02 -0.29070399237E+02  0.72919386685E+03  0.73167497014E+03  0.00000000000E+00 0.  1.
          5    1    4    4  501    0 -0.19150052709E+02 -0.28731362701E+02  0.10298036411E+03  0.10869518624E+03  0.41800000000E+01 0. -1.
         -5    1    4    4    0  501  0.56029714913E+02  0.17955002173E+02  0.19179872500E+01  0.59015778664E+02  0.41800000000E+01 0. -1.
</event>
<event>
11    1  0.8041700E-009  0.1427478E+03  0.7561462E-02  0.1104528E+00
         22   -1    0    0    0    0  0.00000000000E+00  0.00000000000E+00  0.81165077734E+03  0.81165077734E+03  0.00000000000E+00 0. -1.
         22   -1    0    0    0    0 -0.00000000000E+00 -0.00000000000E+00 -0.42025323224E+03  0.42025323224E+03  0.00000000000E+00 0.  1.
         24    2    1    2    0    0 -0.13337176292E+02  0.68745984611E+02 -0.33261013373E+03  0.34896998525E+03  0.79035807535E+02 0.  0.
         25    2    1    2    0    0  0.60029190059E+02 -0.45456235300E+02 -0.60947195802E+01  0.14613296108E+03  0.12509166127E+03 0.  0.
        -24    2    1    2    0    0 -0.46692013767E+02 -0.23289749311E+02  0.73010239841E+03  0.73680106325E+03  0.84283676241E+02 0.  0.
        -11    1    3    3    0    0 -0.35995847490E+00  0.51140701914E+02 -0.31929409085E+03  0.32336390864E+03  0.00000000000E+00 0.  1.
         12    1    3    3    0    0 -0.12977217817E+02  0.17605282697E+02 -0.13316042884E+02  0.25606076607E+02  0.00000000000E+00 0. -1.
         11    1    5    5    0    0 -0.69539604734E+02 -0.56476286459E+01  0.48150697623E+03  0.48653532297E+03  0.00000000000E+00 0. -1.
        -12    1    5    5    0    0  0.22847590967E+02 -0.17642120665E+02  0.24859542217E+03  0.25026574028E+03  0.00000000000E+00 0.  1.
          5    1    4    4  501    0  0.16961344128E+02 -0.41060305715E+02 -0.61320243050E+02  0.75837197389E+02  0.41800000000E+01 0.  1.
         -5    1    4    4    0  501  0.43067845931E+02 -0.43959295846E+01  0.55225523470E+02  0.70295763689E+02  0.41800000000E+01 0.  1.
</event>
<event>
11    1  0.8041700E-009  0.2180148E+03  0.7561462E-02  0.1042468E+00
         22   -1    0    0    0    0  0.00000000000E+00  0.00000000000E+00  0.33272111340E+03  0.33272111340E+03  0.00000000000E+00 0. -1.
         22   -1    0    0    0    0 -0.00000000000E+00 -0.00000000000E+00 -0.21314238507E+04  0.21314238507E+04  0.00000000000E+00 0. -1.
         24    2    1    2    0    0  0.55877816534E+02 -0.16077225984E+03 -0.17175084587E+04  0.17277817210E+04  0.80151855845E+02 0.  0.
         25    2    1    2    0    0 -0.15911460804E+03  0.24616923477E+03 -0.31949596523E+03  0.45126545736E+03  0.12508433384E+03 0.  0.
        -24    2    1    2    0    0  0.10323679150E+03 -0.85396974936E+02  0.23830168658E+03  0.28509778573E+03  0.80886186398E+02 0.  0.
        -13    1    3    3    0    0 -0.87176010852E+01 -0.56585375372E+02 -0.33578586851E+03  0.34063184051E+03  0.00000000000E+00 0.  1.
         14    1    3    3    0    0  0.64595417619E+02 -0.10418688446E+03 -0.13817225901E+04  0.13871498805E+04  0.00000000000E+00 0. -1.
         11    1    5    5    0    0  0.98906065304E+02 -0.42862967067E+02  0.20220772502E+03  0.22914538563E+03  0.00000000000E+00 0. -1.
        -12    1    5    5    0    0  0.43307261985E+01 -0.42534007869E+02  0.36093961564E+02  0.55952400093E+02  0.00000000000E+00 0.  1.
          5    1    4    4  501    0 -0.15452643570E+03  0.19658635151E+03 -0.31336094928E+03  0.40092040340E+03  0.41800000000E+01 0. -1.
         -5    1    4    4    0  501 -0.45881723421E+01  0.49582883258E+02 -0.61350159466E+01  0.50345053960E+02  0.41800000000E+01 0. -1.
</event>
<event>
11    1  0.1287927E-008  0.1686335E+03  0.7561462E-02  0.1079227E+00
         22   -1    0    0    0    0  0.00000000000E+00  0.00000000000E+00  0.77523509225E+03  0.77523509225E+03  0.00000000000E+00 0. -1.
         22   -1    0    0    0    0 -0.00000000000E+00 -0.00000000000E+00 -0.12184119948E+04  0.12184119948E+04  0.00000000000E+00 0.  1.
         24    2    1    2    0    0 -0.28486082608E+02 -0.91157051278E+02 -0.87813741162E+03  0.88704206631E+03  0.81223449859E+02 0.  0.
         25    2    1    2    0    0 -0.85151776605E+02  0.88587360206E+02 -0.30601802269E+03  0.35269388456E+03  0.12508957010E+03 0.  0.
        -24    2    1    2    0    0  0.11363785921E+03  0.25696910723E+01  0.74097853181E+03  0.75391113614E+03  0.80079024946E+02 0.  0.
        -11    1    3    3    0    0  0.20847234541E+01 -0.56275404025E+02 -0.72116953182E+03  0.72336488772E+03  0.00000000000E+00 0.  1.
         12    1    3    3    0    0 -0.30570806062E+02 -0.34881647254E+02 -0.15696787981E+03  0.16367717858E+03  0.00000000000E+00 0. -1.
         13    1    5    5    0    0  0.14454639619E+02 -0.29559066238E+02  0.23597668807E+03  0.23825967413E+03  0.00000000000E+00 0. -1.
        -14    1    5    5    0    0  0.99183219595E+02  0.32128757310E+02  0.50500184374E+03  0.51565146201E+03  0.00000000000E+00 0.  1.
          5    1    4    4  501    0 -0.93377483181E+02  0.11445899970E+03 -0.25356256325E+03  0.29348196343E+03  0.41800000000E+01 0.  1.
         -5    1    4    4    0  501  0.82257065755E+01 -0.25871639493E+02 -0.52455459441E+02  0.59211921130E+02  0.41800000000E+01 0.  1.
</event>
<event>
11    1  0.8041700E-009  0.1930204E+03  0.7561462E-02  0.1059572E+00
         22   -1    0    0    0    0  0.00000000000E+00  0.00000000000E+00  0.25477444240E+03  0.25477444240E+03  0.00000000000E+00 0. -1.
         22   -1    0    0    0    0 -0.00000000000E+00 -0.00000000000E+00 -0.31439932478E+03  0.31439932478E+03  0.00000000000E+00 0. -1.
        -24    2    1    2    0    0  0.13403611486E+03 -0.47027254704E+02 -0.44698220144E+02  0.16957218085E+03  0.81114430669E+02 0.  0.
         25    2    1    2    0    0 -0.26764823120E+02  0.16431016701E+03 -0.60735168987E+02  0.21691112841E+03  0.12508992819E+03 0.  0.
         24    2    1    2    0    0 -0.10727129174E+03 -0.11728291231E+03  0.45808506754E+02  0.18269045792E+03  0.77556254231E+02 0.  0.
        -13    1    5    5    0    0 -0.40859542253E+02  0.53025420336E+00  0.17834778995E+02  0.44585453956E+02  0.00000000000E+00 0.  1.
         14    1    5    5    0    0 -0.66411749492E+02 -0.11781316651E+03  0.27973727759E+02  0.13810500396E+03  0.00000000000E+00 0. -1.
         11    1    3    3    0    0  0.12714431506E+03 -0.29318258302E+02 -0.61462085281E+02  0.14423184478E+03  0.00000000000E+00 0. -1.
        -12    1    3    3    0    0  0.68917998073E+01 -0.17708996402E+02  0.16763865136E+02  0.25340336076E+02  0.00000000000E+00 0.  1.
          5    1    4    4  501    0 -0.22707031157E+02  0.16102141231E+02 -0.62534357223E+02  0.68577740189E+02  0.41800000000E+01 0. -1.
         -5    1    4    4    0  501 -0.40577919632E+01  0.14820802578E+03  0.17991882361E+01  0.14833338822E+03  0.41800000000E+01 0. -1.
</event>
<event>
11    1  0.8041700E-009  0.1281785E+03  0.7561462E-02  0.1121527E+00
         22   -1    0    0    0    0  0.00000000000E+00  0.00000000000E+00  0.28645898106E+02  0.28645898106E+02  0.00000000000E+00 0. -1.
         22   -1    0    0    0    0 -0.00000000000E+00 -0.00000000000E+00 -0.28457247527E+04  0.28457247527E+04  0.00000000000E+00 0. -1.
         24    2    1    2    0    0  0.72426463220E+01  0.23017650732E+02 -0.12854663116E+04  0.12883010026E+04  0.81936359357E+02 0.  0.
         25    2    1    2    0    0  0.27217264239E+01  0.44615750683E+01 -0.14815275442E+04  0.14868062056E+04  0.12506604471E+03 0.  0.
        -24    2    1    2    0    0 -0.99643727459E+01 -0.27479225800E+02 -0.50084998896E+02  0.99263442596E+02  0.80562567901E+02 0.  0.
        -11    1    3    3    0    0  0.20344958233E+02  0.37794860808E+02 -0.34943126470E+03  0.35205763388E+03  0.00000000000E+00 0.  1.
         12    1    3    3    0    0 -0.13102311911E+02 -0.14777210076E+02 -0.93603504686E+03  0.93624336871E+03  0.00000000000E+00 0. -1.
         11    1    5    5    0    0 -0.35590310793E+02  0.11673747841E+02 -0.13317569839E+02  0.39753041109E+02  0.00000000000E+00 0. -1.
        -12    1    5    5    0    0  0.25625938047E+02 -0.39152973641E+02 -0.36767429057E+02  0.59510401487E+02  0.00000000000E+00 0.  1.
          5    1    4    4  501    0 -0.57981771184E+02  0.32572524656E+01 -0.95497788985E+03  0.95675113692E+03  0.41800000000E+01 0. -1.
         -5    1    4    4    0  501  0.60703497608E+02  0.12043226027E+01 -0.52654965431E+03  0.53005506872E+03  0.41800000000E+01 0. -1.
</event>
<event>
11    1  0.8041700E-009  0.1970668E+03  0.7561462E-02  0.1056617E+00
         22   -1    0    0    0    0  0.00000000000E+00  0.00000000000E+00  0.28695676650E+04  0.28695676650E+04  0.00000000000E+00 0.  1.
         22   -1    0    0    0    0 -0.00000000000E+00 -0.00000000000E+00 -0.24062174215E+03  0.24062174215E+03  0.00000000000E+00 0.  1.
         24    2    1    2    0    0 -0.16157885412E+03  0.43975640084E+02 -0.17465560445E+03  0.25506301647E+03  0.80690638774E+02 0.  0.
         25    2    1    2    0    0  0.73953506668E+02  0.91902277871E+01  0.19549521168E+03  0.24376049685E+03  0.12508885083E+03 0.  0.
        -24    2    1    2    0    0  0.87625347449E+02 -0.53165867871E+02  0.26081063156E+04  0.26113658938E+04  0.80675069372E+02 0.  0.
        -13    1    3    3    0    0 -0.12708785763E+03  0.36404030985E+01 -0.92389004943E+02  0.15716330464E+03  0.00000000000E+00 0.  1.
         14    1    3    3    0    0 -0.34490996487E+02  0.40335236986E+02 -0.82266599504E+02  0.97899711824E+02  0.00000000000E+00 0. -1.
         13    1    5    5    0    0  0.95792851560E+02 -0.27340549627E+02  0.17507802227E+04  0.17536120336E+04  0.00000000000E+00 0. -1.
        -14    1    5    5    0    0 -0.81675041106E+01 -0.25825318244E+02  0.85732609290E+03  0.85775386023E+03  0.00000000000E+00 0.  1.
          5    1    4    4  501    0  0.78865786967E+02  0.27016165060E+02  0.20587178323E+03  0.22214938456E+03  0.41800000000E+01 0. -1.
         -5    1    4    4    0  501 -0.49122802988E+01 -0.17825937273E+02 -0.10376571554E+02  0.21611112295E+02  0.41800000000E+01 0. -1.
</event>
<event>
11    1  0.8041700E-009  0.1537568E+03  0.7561462E-02  0.1093101E+00
         22   -1    0    0    0    0  0.00000000000E+00  0.00000000000E+00  0.14194547910E+04  0.14194547910E+04  0.00000000000E+00 0.  1.
         22   -1    0    0    0    0 -0.00000000000E+00 -0.00000000000E+00 -0.13727913449E+03  0.13727913449E+03  0.00000000000E+00 0. -1.
         24    2    1    2    0    0 -0.49571362437E+02  0.13921785853E+02 -0.70515006035E+02  0.11754820796E+03  0.78702471521E+02 0.  0.
         25    2    1    2    0    0  0.82671364848E+00 -0.90004544689E+02  0.10686945347E+03  0.18753655945E+03  0.12508948606E+03 0.  0.
        -24    2    1    2    0    0  0.48744648789E+02  0.76082758836E+02  0.12458212091E+04  0.12516491581E+04  0.79940621497E+02 0.  0.
        -13    1    3    3    0    0 -0.63952651084E+02  0.31398182439E+02 -0.56485968730E+02  0.90920031372E+02  0.00000000000E+00 0.  1.
         14    1    3    3    0    0  0.14381288647E+02 -0.17476396586E+02 -0.14029037304E+02  0.26628176589E+02  0.00000000000E+00 0. -1.
         13    1    5    5    0    0 -0.17628450290E+02  0.21819386607E+01  0.32519190216E+03  0.32567667455E+03  0.00000000000E+00 0. -1.
        -14    1    5    5    0    0  0.66373099078E+02  0.73900820175E+02  0.92062930689E+03  0.92597248351E+03  0.00000000000E+00 0.  1.
          5    1    4    4  501    0  0.37862922109E+02  0.10711872096E+02  0.56349199297E+02  0.68855281103E+02  0.41800000000E+01 0. -1.
         -5    1    4    4    0  501 -0.37036208460E+02 -0.10071641679E+03  0.50520254177E+02  0.11868127834E+03  0.41800000000E+01 0. -1.
</event>
<event>
11    1  0.8041700E-009  0.1498731E+03  0.7561462E-02  0.1097009E+00
         22   -1    0    0    0    0  0.00000000000E+00  0.00000000000E+00  0.54461836969E+03  0.54461836969E+03  0.00000000000E+00 0.  1.
         22   -1    0    0    0    0 -0.00000000000E+00 -0.00000000000E+00 -0.23660647015E+03  0.23660647015E+03  0.00000000000E+00 0. -1.
         24    2    1    2    0    0 -0.16942489293E+02  0.17351551456E+02 -0.19704923243E+03  0.21428162539E+03  0.80623139952E+02 0.  0.
         25    2    1    2    0    0 -0.45894511336E+02  0.50948956918E+02  0.26727416615E+03  0.30296098853E+03  0.12509108002E+03 0.  0.
        -24    2    1    2    0    0  0.62837000629E+02 -0.68300508374E+02  0.23778696582E+03  0.26398222591E+03  0.67309185053E+02 0.  0.
        -11    1    3    3    0    0  0.77950649753E+01  0.41436186547E+02 -0.15069679146E+03  0.15648400413E+03  0.00000000000E+00 0.  1.
         12    1    3    3    0    0 -0.24737554268E+02 -0.24084635090E+02 -0.46352440972E+02  0.57797621254E+02  0.00000000000E+00 0. -1.
         11    1    5    5    0    0  0.22596746553E+02  0.10495037259E+02  0.69916417579E+02  0.74223070597E+02  0.00000000000E+00 0. -1.
        -12    1    5    5    0    0  0.40240254076E+02 -0.78795545633E+02  0.16787054824E+03  0.18975915532E+03  0.00000000000E+00 0.  1.
          5    1    4    4  501    0  0.24907278242E+01 -0.26703921467E+02  0.84794214358E+01  0.28437231488E+02  0.41800000000E+01 0.  1.
         -5    1    4    4    0  501 -0.48385239161E+02  0.77652878385E+02  0.25879474471E+03  0.27452375704E+03  0.41800000000E+01 0.  1.
</event>
<event>
11    1  0.8041700E-009  0.1503119E+03  0.7561462E-02  0.1096561E+00
         22   -1    0    0    0    0  0.00000000000E+00  0.00000000000E+00  0.90690671363E+03  0.90690671363E+03  0.00000000000E+00 0. -1.
         22   -1    0    0    0    0 -0.00000000000E+00 -0.00000000000E+00 -0.54884033422E+03  0.54884033422E+03  0.00000000000E+00 0. -1.
        -24    2    1    2    0    0  0.67870676012E+02 -0.48759752207E+02 -0.48709483043E+03  0.50052981615E+03  0.79276610244E+02 0.  0.
         25    2    1    2    0    0 -0.24151880243E+02  0.97822043417E+02  0.74152412443E+02  0.17694073548E+03  0.12512784704E+03 0.  0.
         24    2    1    2    0    0 -0.43718795769E+02 -0.49062291210E+02  0.77100879740E+03  0.77827649620E+03  0.83314448688E+02 0.  0.
        -13    1    5    5    0    0 -0.34527138113E+02 -0.65654116967E+02  0.40240568194E+03  0.40918567814E+03  0.00000000000E+00 0.  1.
         14    1    5    5    0    0 -0.91916576559E+01  0.16591825756E+02  0.36860311546E+03  0.36909081807E+03  0.00000000000E+00 0. -1.
         13    1    3    3    0    0  0.79461875232E+02 -0.46497010858E+02 -0.47415640456E+03  0.48301186075E+03  0.00000000000E+00 0. -1.
        -14    1    3    3    0    0 -0.11591199221E+02 -0.22627413491E+01 -0.12938425867E+02  0.17517955409E+02  0.00000000000E+00 0.  1.
          5    1    4    4  501    0 -0.57459782735E+02  0.10022848253E+03  0.82791261990E+02  0.14219437684E+03  0.41800000000E+01 0.  1.
         -5    1    4    4    0  501  0.33307902493E+02 -0.24064391125E+01 -0.86388495475E+01  0.34746358646E+02  0.41800000000E+01 0.  1.
</event>
<event>
11    1  0.8041700E-009  0.1484138E+03  0.7561462E-02  0.1098511E+00
         22   -1    0    0    0    0  0.00000000000E+00  0.00000000000E+00  0.30470210059E+04  0.30470210059E+04  0.00000000000E+00 0. -1.
         22   -1    0    0    0    0 -0.00000000000E+00 -0.00000000000E+00 -0.80687341772E+02  0.80687341772E+02  0.00000000000E+00 0.  1.
         24    2    1    2    0    0  0.64902549252E+01 -0.51452893385E+01 -0.51666274041E+02  0.94056617504E+02  0.78157827577E+02 0.  0.
         25    2    1    2    0    0 -0.60759316891E+02  0.61587499673E+02  0.90765420023E+03  0.92030864769E+03  0.12508854911E+03 0.  0.
        -24    2    1    2    0    0  0.54269061965E+02 -0.56442210335E+02  0.21103457379E+04  0.21133430825E+04  0.80802205534E+02 0.  0.
        -11    1    3    3    0    0  0.30172411205E+02  0.12137343563E+02 -0.55663133556E+02  0.64467619345E+02  0.00000000000E+00 0.  1.
         12    1    3    3    0    0 -0.23682156280E+02 -0.17282632901E+02  0.39968595153E+01  0.29588998159E+02  0.00000000000E+00 0. -1.
         11    1    5    5    0    0  0.75200879033E+02 -0.36917943497E+02  0.16139590428E+04  0.16161317702E+04  0.00000000000E+00 0. -1.
        -12    1    5    5    0    0 -0.20931817067E+02 -0.19524266838E+02  0.49638669514E+03  0.49721131229E+03  0.00000000000E+00 0.  1.
          5    1    4    4  501    0 -0.74789338043E+02 -0.70524708734E+01  0.60295254222E+03  0.60762852385E+03  0.41800000000E+01 0.  1.
         -5    1    4    4    0  501  0.14030021152E+02  0.68639970546E+02  0.30470165801E+03  0.31268012384E+03  0.41800000000E+01 0.  1.
</event>
<event>
11    1  0.8041700E-009  0.1526529E+03  0.7561462E-02  0.1094199E+00
         22   -1    0    0    0    0  0.00000000000E+00  0.00000000000E+00  0.23453750835E+03  0.23453750835E+03  0.00000000000E+00 0. -1.
         22   -1    0    0    0    0 -0.00000000000E+00 -0.00000000000E+00 -0.49649171986E+03  0.49649171986E+03  0.00000000000E+00 0.  1.
        -24    2    1    2    0    0 -0.71275233729E+02  0.49771696821E+02 -0.26685158366E+03  0.29196291194E+03  0.80468587028E+02 0.  0.
         25    2    1    2    0    0  0.84933616244E+02 -0.31951646420E+02 -0.17743523782E+03  0.23529733179E+03  0.12508774460E+03 0.  0.
         24    2    1    2    0    0 -0.13658382515E+02 -0.17820050401E+02  0.18233260997E+03  0.20376898448E+03  0.88161855534E+02 0.  0.
        -13    1    5    5    0    0  0.34608936755E+02  0.58724001132E+01  0.51574804283E+02  0.62387691280E+02  0.00000000000E+00 0.  1.
         14    1    5    5    0    0 -0.48267319270E+02 -0.23692450514E+02  0.13075780568E+03  0.14138129320E+03  0.00000000000E+00 0. -1.
         13    1    3    3    0    0  0.17429875128E+02  0.15621260426E+02 -0.53351317259E+02  0.58259654801E+02  0.00000000000E+00 0. -1.
        -14    1    3    3    0    0 -0.88705108857E+02  0.34150436395E+02 -0.21350026640E+03  0.23370325714E+03  0.00000000000E+00 0.  1.
          5    1    4    4  501    0 -0.22757187652E+02  0.60677251154E+01 -0.85032674823E+02  0.88333091565E+02  0.41800000000E+01 0. -1.
         -5    1    4    4    0  501  0.10769080390E+03 -0.38019371536E+02 -0.92402562994E+02  0.14696424022E+03  0.41800000000E+01 0. -1.
</event>
<event>
11    1  0.8041700E-009  0.1331444E+03  0.7561462E-02  0.1115465E+00
         22   -1    0    0    0    0  0.00000000000E+00  0.00000000000E+00  0.16934391303E+04  0.16934391303E+04  0.00000000000E+00 0.  1.
         22   -1    0    0    0    0 -0.00000000000E+00 -0.00000000000E+00 -0.18930827757E+03  0.18930827757E+03  0.00000000000E+00 0.  1.
         24    2    1    2    0    0  0.26265453759E+02  0.10911207359E+02 -0.16071490424E+03  0.18279344351E+03  0.82311809828E+02 0.  0.
         25    2    1    2    0    0  0.88660108959E+01  0.21752893687E+02  0.23733345951E+03  0.26930857384E+03  0.12509253538E+03 0.  0.
        -24    2    1    2    0    0 -0.35131464655E+02 -0.32664101046E+02  0.14275122974E+04  0.14306453905E+04  0.81570280722E+02 0.  0.
        -11    1    3    3    0    0  0.16429729930E+02 -0.29777838777E+02 -0.11873184165E+03  0.12350670399E+03  0.00000000000E+00 0.  1.
         12    1    3    3    0    0  0.98357238284E+01  0.40689046136E+02 -0.41983062592E+02  0.59286739523E+02  0.00000000000E+00 0. -1.
         13    1    5    5    0    0 -0.34829790293E+02  0.76104919731E+01  0.25934596015E+03  0.26178495168E+03  0.00000000000E+00 0. -1.
        -14    1    5    5    0    0 -0.30167436214E+00 -0.40274593019E+02  0.11681663373E+04  0.11688604388E+04  0.00000000000E+00 0.  1.
          5    1    4    4  501    0  0.30405273794E+02  0.45859130402E+02  0.22915019064E+03  0.23570070595E+03  0.41800000000E+01 0.  1.
         -5    1    4    4    0  501 -0.21539262898E+02 -0.24106236715E+02  0.81832688720E+01  0.33607867891E+02  0.41800000000E+01 0.  1.
</event>
<event>
11    1  0.8041700E-009  0.1907142E+03  0.7561462E-02  0.1061292E+00
         22   -1    0    0    0    0  0.00000000000E+00  0.00000000000E+00  0.29223546952E+03  0.29223546952E+03  0.00000000000E+00 0.  1.
         22   -1    0    0    0    0 -0.00000000000E+00 -0.00000000000E+00 -0.65652892146E+03  0.65652892146E+03  0.00000000000E+00 0. -1.
         24    2    1    2    0    0  0.24726515615E+02  0.25998694236E+02 -0.53073258366E+03  0.53785342511E+03  0.79510369574E+02 0.  0.
         25    2    1    2    0    0 -0.13323251709E+03 -0.83169777678E+02  0.17198276713E+03  0.26436761419E+03  0.12507616763E+03 0.  0.
        -24    2    1    2    0    0  0.10850600148E+03  0.57171083442E+02 -0.55436354188E+01  0.14654335168E+03  0.80013354448E+02 0.  0.
        -11    1    3    3    0    0  0.15195939635E+02  0.54781688938E+02 -0.35558409971E+03  0.36009998888E+03  0.00000000000E+00 0.  1.
         12    1    3    3    0    0  0.95305759795E+01 -0.28782994702E+02 -0.17514848395E+03  0.17775343623E+03  0.00000000000E+00 0. -1.
         11    1    5    5    0    0  0.14482841132E+02  0.27613035811E+01 -0.31565257821E+02  0.34838814360E+02  0.00000000000E+00 0. -1.
        -12    1    5    5    0    0  0.94023160348E+02  0.54409779861E+02  0.26021622402E+02  0.11170453732E+03  0.00000000000E+00 0.  1.
          5    1    4    4  501    0 -0.58345665490E+02  0.22284040957E+01  0.38117472406E+00  0.58538877342E+02  0.41800000000E+01 0. -1.
         -5    1    4    4    0  501 -0.74886851605E+02 -0.85398181774E+02  0.17160159241E+03  0.20582873684E+03  0.41800000000E+01 0. -1.
</event>
<event>
11    1  0.8041700E-009  0.1375795E+03  0.7561462E-02  0.1110292E+00
         22   -1    0    0    0    0  0.00000000000E+00  0.00000000000E+00  0.65930647118E+03  0.65930647118E+03  0.00000000000E+00 0.  1.
         22   -1    0    0    0    0 -0.00000000000E+00 -0.00000000000E+00 -0.27821341089E+03  0.27821341089E+03  0.00000000000E+00 0. -1.
         24    2    1    2    0    0 -0.39996650095E+02  0.51459986315E+02 -0.24259884427E+03  0.26338376417E+03  0.79176674427E+02 0.  0.
         25    2    1    2    0    0 -0.28835858407E+02 -0.34761969310E+02  0.22889179460E+03  0.26472443474E+03  0.12509065302E+03 0.  0.
        -24    2    1    2    0    0  0.68832508502E+02 -0.16698017005E+02  0.39480010996E+03  0.40941168316E+03  0.82061327612E+02 0.  0.
        -11    1    3    3    0    0 -0.52134677986E+01 -0.11223111768E+02 -0.22576110045E+01  0.12579161009E+02  0.00000000000E+00 0.  1.
         12    1    3    3    0    0 -0.34783182297E+02  0.62683098082E+02 -0.24034123327E+03  0.25080460316E+03  0.00000000000E+00 0. -1.
         11    1    5    5    0    0  0.61678785682E+02 -0.96651067485E+01  0.12790800976E+03  0.14233111343E+03  0.00000000000E+00 0. -1.
        -12    1    5    5    0    0  0.71537228204E+01 -0.70329102568E+01  0.26689210020E+03  0.26708056973E+03  0.00000000000E+00 0.  1.
          5    1    4    4  501    0  0.12865408165E+02 -0.64747362734E+02  0.64276865406E+02  0.92231922536E+02  0.41800000000E+01 0.  1.
         -5    1    4    4    0  501 -0.41701266572E+02  0.29985393424E+02  0.16461492919E+03  0.17249251220E+03  0.41800000000E+01 0.  1.
</event>
<event>
11    1  0.8041700E-009  0.2945230E+03  0.7561462E-02  0.1002536E+00
         22   -1    0    0    0    0  0.00000000000E+00  0.00000000000E+00  0.23881215400E+03  0.23881215400E+03  0.00000000000E+00 0. -1.
         22   -1    0    0    0    0 -0.00000000000E+00 -0.00000000000E+00 -0.15764876723E+04  0.15764876723E+04  0.00000000000E+00 0. -1.
        -24    2    1    2    0    0  0.24030475629E+03 -0.77219933235E+02 -0.11569243065E+04  0.11870478613E+04  0.83063109231E+02 0.  0.
         25    2    1    2    0    0 -0.33827079988E+03  0.12476856190E+03 -0.26828567829E+03  0.46649683550E+03  0.12509102393E+03 0.  0.
         24    2    1    2    0    0  0.97966043585E+02 -0.47548628660E+02  0.87534466423E+02  0.16175512955E+03  0.81512093223E+02 0.  0.
        -13    1    5    5    0    0  0.95908329950E+02 -0.56971292450E+02  0.48663812145E+02  0.12170580319E+03  0.00000000000E+00 0.  1.
         14    1    5    5    0    0  0.20577136350E+01  0.94226637900E+01  0.38870654278E+02  0.40049326365E+02  0.00000000000E+00 0. -1.
         11    1    3    3    0    0  0.22569224062E+03 -0.91702332282E+02 -0.10265193490E+04  0.10550299896E+04  0.00000000000E+00 0. -1.
        -12    1    3    3    0    0  0.14612515674E+02  0.14482399047E+02 -0.13040495750E+03  0.13201787165E+03  0.00000000000E+00 0.  1.
          5    1    4    4  501    0 -0.34102399566E+03  0.10499505476E+03 -0.23439783491E+03  0.42694395950E+03  0.41800000000E+01 0. -1.
         -5    1    4    4    0  501  0.27531957792E+01  0.19773507131E+02 -0.33887843378E+02  0.39552876003E+02  0.41800000000E+01 0. -1.
</event>
<event>
11    1  0.8041700E-009  0.1428965E+03  0.7561462E-02  0.1104366E+00
         22   -1    0    0    0    0  0.00000000000E+00  0.00000000000E+00  0.73366108389E+03  0.73366108389E+03  0.00000000000E+00 0.  1.
         22   -1    0    0    0    0 -0.00000000000E+00 -0.00000000000E+00 -0.54957889125E+03  0.54957889125E+03  0.00000000000E+00 0.  1.
        -24    2    1    2    0    0 -0.54838945774E+02 -0.37255458818E+01 -0.21200958642E+03  0.23360325550E+03  0.81247932780E+02 0.  0.
         25    2    1    2    0    0  0.48318959822E+02  0.72516610017E+02 -0.30484400130E+03  0.34083712756E+03  0.12508677703E+03 0.  0.
         24    2    1    2    0    0  0.65199859524E+01 -0.68791064135E+02  0.70093578036E+03  0.70879959208E+03  0.79442890284E+02 0.  0.
        -13    1    5    5    0    0 -0.92909995852E+01 -0.79410643813E+02  0.44265829142E+03  0.44982078208E+03  0.00000000000E+00 0.  1.
         14    1    5    5    0    0  0.15810985538E+02  0.10619579678E+02  0.25827748894E+03  0.25897881000E+03  0.00000000000E+00 0. -1.
         11    1    3    3    0    0 -0.18691605226E+02  0.27681238486E+02 -0.15769754221E+03  0.16119597356E+03  0.00000000000E+00 0. -1.
        -12    1    3    3    0    0 -0.36147340548E+02 -0.31406784368E+02 -0.54312044209E+02  0.72407281949E+02  0.00000000000E+00 0.  1.
          5    1    4    4  501    0 -0.72955920621E+01  0.28579728447E+01 -0.21155660780E+03  0.21174292048E+03  0.41800000000E+01 0. -1.
         -5    1    4    4    0  501  0.55614551884E+02  0.69658637172E+02 -0.93287393503E+02  0.12909420708E+03  0.41800000000E+01 0. -1.
</event>
<event>
11    1  0.8041700E-009  0.1385057E+03  0.7561462E-02  0.1109239E+00
         22   -1    0    0    0    0  0.00000000000E+00  0.00000000000E+00  0.99915876854E+03  0.99915876854E+03  0.00000000000E+00 0.  1.
         22   -1    0    0    0    0 -0.00000000000E+00 -0.00000000000E+00 -0.23292863021E+03  0.23292863021E+03  0.00000000000E+00 0. -1.
         24    2    1    2    0    0  0.39936845283E+02  0.46916136379E+02 -0.20537509654E+03  0.23148559747E+03  0.87238615841E+02 0.  0.
         25    2    1    2    0    0  0.61904913250E+01  0.18937227064E+01  0.39013426054E+03  0.40974522474E+03  0.12507797402E+03 0.  0.
        -24    2    1    2    0    0 -0.46127336608E+02 -0.48809859085E+02  0.58147097432E+03  0.59085657653E+03  0.80578325420E+02 0.  0.
        -13    1    3    3    0    0  0.14516025197E+02  0.78761114034E+01  0.39980325739E+01  0.16992127084E+02  0.00000000000E+00 0.  1.
         14    1    3    3    0    0  0.25420820086E+02  0.39040024975E+02 -0.20937312911E+03  0.21449347039E+03  0.00000000000E+00 0. -1.
         13    1    5    5    0    0 -0.66384264329E+02 -0.25963318773E+02  0.33486682493E+03  0.34236932531E+03  0.00000000000E+00 0. -1.
        -14    1    5    5    0    0  0.20256927721E+02 -0.22846540312E+02  0.24660414939E+03  0.24848725122E+03  0.00000000000E+00 0.  1.
          5    1    4    4  501    0 -0.34127205968E+02  0.45788322216E+02  0.11838699880E+03  0.13150737821E+03  0.41800000000E+01 0.  1.
         -5    1    4    4    0  501  0.40317697293E+02 -0.43894599510E+02  0.27174726174E+03  0.27823784654E+03  0.41800000000E+01 0.  1.
</event>
<event>
11    1  0.8041700E-009  0.1861268E+03  0.7561462E-02  0.1064792E+00
         22   -1    0    0    0    0  0.00000000000E+00  0.00000000000E+00  0.13615509575E+04  0.13615509575E+04  0.00000000000E+00 0.  1.
         22   -1    0    0    0    0 -0.00000000000E+00 -0.00000000000E+00 -0.16151674804E+03  0.16151674804E+03  0.00000000000E+00 0. -1.
         24    2    1    2    0    0 -0.13401897174E+03 -0.29730118025E+02 -0.94006813285E+02  0.18685426221E+03  0.85042751930E+02 0.  0.
         25    2    1    2    0    0  0.14146886487E+03  0.24339669959E+02  0.45211900296E+03  0.49057586113E+03  0.12508886211E+03 0.  0.
        -24    2    1    2    0    0 -0.74498931290E+01  0.53904480656E+01  0.84192201975E+03  0.84563758215E+03  0.78649063437E+02 0.  0.
        -11    1    3    3    0    0  0.29150339129E+01 -0.97567812810E+01  0.95914322565E+01  0.13988844713E+02  0.00000000000E+00 0.  1.
         12    1    3    3    0    0 -0.13693400566E+03 -0.19973336744E+02 -0.10359824554E+03  0.17286541749E+03  0.00000000000E+00 0. -1.
         11    1    5    5    0    0  0.27942318734E+02 -0.19833336700E+02  0.29275230557E+03  0.29475082161E+03  0.00000000000E+00 0. -1.
        -12    1    5    5    0    0 -0.35392211863E+02  0.25223784766E+02  0.54916971417E+03  0.55088676055E+03  0.00000000000E+00 0.  1.
          5    1    4    4  501    0  0.16396434123E+03  0.20035076658E+02  0.36999306491E+03  0.40521358562E+03  0.41800000000E+01 0. -1.
         -5    1    4    4    0  501 -0.22495476351E+02  0.43045933010E+01  0.82125938046E+02  0.85362275507E+02  0.41800000000E+01 0. -1.
</event>
<event>
11    1  0.8041700E-009  0.1393163E+03  0.7561462E-02  0.1108324E+00
         22   -1    0    0    0    0  0.00000000000E+00  0.00000000000E+00  0.32179770822E+03  0.32179770822E+03  0.00000000000E+00 0.  1.
         22   -1    0    0    0    0 -0.00000000000E+00 -0.00000000000E+00 -0.91179933988E+03  0.91179933988E+03  0.00000000000E+00 0. -1.
         24    2    1    2    0    0 -0.12360130565E+02  0.28861302065E+02 -0.86046188718E+03  0.86396206140E+03  0.71063609941E+02 0.  0.
         25    2    1    2    0    0  0.50008673896E+02  0.25354944956E+02  0.10443277481E+03  0.17232983861E+03  0.12509047975E+03 0.  0.
        -24    2    1    2    0    0 -0.37648543331E+02 -0.54216247020E+02  0.16602748072E+03  0.19730514809E+03  0.83710112006E+02 0.  0.
        -11    1    3    3    0    0 -0.13808717393E+02 -0.22187237268E+02 -0.24723372173E+03  0.24861107645E+03  0.00000000000E+00 0.  1.
         12    1    3    3    0    0  0.14485868280E+01  0.51048539332E+02 -0.61322816545E+03  0.61535098495E+03  0.00000000000E+00 0. -1.
         11    1    5    5    0    0  0.27014195761E+02 -0.15205025270E+02  0.44805127007E+02  0.54483566074E+02  0.00000000000E+00 0. -1.
        -12    1    5    5    0    0 -0.64662739092E+02 -0.39011221750E+02  0.12122235371E+03  0.14282158201E+03  0.00000000000E+00 0.  1.
          5    1    4    4  501    0 -0.17756297178E+02  0.37636633681E+02 -0.58612646939E+01  0.42233033376E+02  0.41800000000E+01 0.  1.
         -5    1    4    4    0  501  0.67764971075E+02 -0.12281688725E+02  0.11029403950E+03  0.13009680524E+03  0.41800000000E+01 0.  1.
</event>
<event>
11    1  0.8041700E-009  0.1940307E+03  0.7561462E-02  0.1058827E+00
         22   -1    0    0    0    0  0.00000000000E+00  0.00000000000E+00  0.99843728956E+03  0.99843728956E+03  0.00000000000E+00 0.  1.
         22   -1    0    0    0    0 -0.00000000000E+00 -0.00000000000E+00 -0.38308406473E+04  0.38308406473E+04  0.00000000000E+00 0. -1.
         24    2    1    2    0    0  0.89166318800E+02  0.10055016718E+03 -0.37469527605E+04  0.37501746836E+04  0.78065352441E+02 0.  0.
         25    2    1    2    0    0 -0.22712686835E+03 -0.91698542186E+02  0.18724284515E+03  0.33272079271E+03  0.12509198965E+03 0.  0.
        -24    2    1    2    0    0  0.13796054955E+03 -0.88516249922E+01  0.72730655765E+03  0.74638246055E+03  0.94870881320E+02 0.  0.
        -13    1    3    3    0    0  0.13376216794E+02 -0.10982894169E+02 -0.73650212277E+03  0.73670545266E+03  0.00000000000E+00 0.  1.
         14    1    3    3    0    0  0.75790102006E+02  0.11153306135E+03 -0.30104506377E+04  0.30134692309E+04  0.00000000000E+00 0. -1.
         11    1    5    5    0    0  0.49352079400E+01 -0.26811597181E+02  0.62932125678E+02  0.68583310384E+02  0.00000000000E+00 0. -1.
        -12    1    5    5    0    0  0.13302534161E+03  0.17959972189E+02  0.66437443197E+03  0.67779915017E+03  0.00000000000E+00 0.  1.
          5    1    4    4  501    0 -0.18715429725E+03 -0.14260256878E+02  0.13057133827E+03  0.22868413299E+03  0.41800000000E+01 0.  1.
         -5    1    4    4    0  501 -0.39972571096E+02 -0.77438285308E+02  0.56671506886E+02  0.10403665971E+03  0.41800000000E+01 0.  1.
</event>
<event>
11    1  0.8041700E-009  0.2380046E+03  0.7561462E-02  0.1030491E+00
         22   -1    0    0    0    0  0.00000000000E+00  0.00000000000E+00  0.29008006284E+04  0.29008006284E+04  0.00000000000E+00 0. -1.
         22   -1    0    0    0    0 -0.00000000000E+00 -0.00000000000E+00 -0.11521374073E+04  0.11521374073E+04  0.00000000000E+00 0. -1.
         24    2    1    2    0    0 -0.69538148305E+02  0.10566546526E+03 -0.10946848975E+04  0.11046330437E+04  0.76670671409E+02 0.  0.
         25    2    1    2    0    0 -0.79058848384E+02 -0.24014088337E+03  0.36917933734E+03  0.46460382423E+03  0.12508151341E+03 0.  0.
        -24    2    1    2    0    0  0.14859699669E+03  0.13447541811E+03  0.24741687812E+04  0.24837011678E+04  0.84235549685E+02 0.  0.
        -13    1    3    3    0    0  0.15940159202E+00  0.23251997012E+02 -0.60231600383E+02  0.64564126717E+02  0.00000000000E+00 0.  1.
         14    1    3    3    0    0 -0.69697549897E+02  0.82413468247E+02 -0.10344532971E+04  0.10400689170E+04  0.00000000000E+00 0. -1.
         11    1    5    5    0    0  0.84472438310E+02  0.12699211485E+03  0.16758978032E+04  0.16828238282E+04  0.00000000000E+00 0. -1.
        -12    1    5    5    0    0  0.64124558379E+02  0.74833032642E+01  0.79827097797E+03  0.80087733960E+03  0.00000000000E+00 0.  1.
          5    1    4    4  501    0 -0.74418625370E+02 -0.47044463827E+02  0.13153525267E+03  0.15833606183E+03  0.41800000000E+01 0. -1.
         -5    1    4    4    0  501 -0.46402230141E+01 -0.19309641955E+03  0.23764408467E+03  0.30626776240E+03  0.41800000000E+01 0. -1.
</event>
<event>
11    1  0.8041700E-009  0.1477112E+03  0.7561462E-02  0.1099241E+00
         22   -1    0    0    0    0  0.00000000000E+00  0.00000000000E+00  0.24790619899E+04  0.24790619899E+04  0.00000000000E+00 0. -1.
         22   -1    0    0    0    0 -0.00000000000E+00 -0.00000000000E+00 -0.12644933069E+03  0.12644933069E+03  0.00000000000E+00 0.  1.
        -24    2    1    2    0    0 -0.19836119213E+02 -0.75569753302E+02 -0.79534461149E+02  0.14374688832E+03  0.90736862152E+02 0.  0.
         25    2    1    2    0    0  0.55459817353E+02  0.72021283368E+02  0.41700593690E+03  0.44475182237E+03  0.12508946992E+03 0.  0.
         24    2    1    2    0    0 -0.35623698140E+02  0.35484699336E+01  0.20151411835E+04  0.20170126099E+04  0.79146950102E+02 0.  0.
        -13    1    5    5    0    0 -0.52543891769E+02 -0.95563793286E+01  0.85067635761E+03  0.85235113090E+03  0.00000000000E+00 0.  1.
         14    1    5    5    0    0  0.16920193629E+02  0.13104849262E+02  0.11644648259E+04  0.11646614790E+04  0.00000000000E+00 0. -1.
         11    1    3    3    0    0 -0.38308987070E+02 -0.67182407227E+02 -0.18626183211E+02  0.79548658268E+02  0.00000000000E+00 0. -1.
        -12    1    3    3    0    0  0.18472867857E+02 -0.83873460750E+01 -0.60908277938E+02  0.64198230057E+02  0.00000000000E+00 0.  1.
          5    1    4    4  501    0 -0.37966850337E+02  0.28447676271E+01  0.10443827865E+03  0.11124028440E+03  0.41800000000E+01 0.  1.
         -5    1    4    4    0  501  0.93426667691E+02  0.69176515741E+02  0.31256765826E+03  0.33351153796E+03  0.41800000000E+01 0.  1.
</event>
<event>
11    1  0.8041700E-009  0.1444522E+03  0.7561462E-02  0.1102686E+00
         22   -1    0    0    0    0  0.00000000000E+00  0.00000000000E+00  0.56069509004E+03  0.56069509004E+03  0.00000000000E+00 0. -1.
         22   -1    0    0    0    0 -0.00000000000E+00 -0.00000000000E+00 -0.78736293600E+03  0.78736293600E+03  0.00000000000E+00 0. -1.
        -24    2    1    2    0    0  0.28751737365E+02  0.65472207736E+02 -0.71373594468E+03  0.72173723478E+03  0.79827094024E+02 0.  0.
         25    2    1    2    0    0 -0.51956121079E+01 -0.95168257429E+02  0.28603995611E+02  0.15984290778E+03  0.12509026738E+03 0.  0.
         24    2    1    2    0    0 -0.23556125257E+02  0.29696049692E+02  0.45846410311E+03  0.46647788349E+03  0.77301588221E+02 0.  0.
        -13    1    5    5    0    0 -0.30351383161E+02 -0.10073579632E+02  0.84589765963E+02  0.90432914207E+02  0.00000000000E+00 0.  1.
         14    1    5    5    0    0  0.67952579034E+01  0.39769629324E+02  0.37387433714E+03  0.37604496928E+03  0.00000000000E+00 0. -1.
         11    1    3    3    0    0 -0.13997292279E+02  0.54228677487E+02 -0.52078547342E+03  0.52378829977E+03  0.00000000000E+00 0. -1.
        -12    1    3    3    0    0  0.42749029644E+02  0.11243530250E+02 -0.19295047127E+03  0.19794893501E+03  0.00000000000E+00 0.  1.
          5    1    4    4  501    0  0.26179403446E+02 -0.20442170611E+02  0.63281618286E+02  0.71591054728E+02  0.41800000000E+01 0. -1.
         -5    1    4    4    0  501 -0.31375015554E+02 -0.74726086817E+02 -0.34677622676E+02  0.88251853048E+02  0.41800000000E+01 0. -1.
</event>
<event>
11    1  0.8041700E-009  0.1375520E+03  0.7561462E-02  0.1110323E+00
         22   -1    0    0    0    0  0.00000000000E+00  0.00000000000E+00  0.12234376318E+04  0.12234376318E+04  0.00000000000E+00 0. -1.
         22   -1    0    0    0    0 -0.00000000000E+00 -0.00000000000E+00 -0.19376710578E+04  0.19376710578E+04  0.00000000000E+00 0. -1.
        -24    2    1    2    0    0  0.26063190778E+02  0.51134470092E+02 -0.18812776843E+04  0.18838778583E+04  0.80597988649E+02 0.  0.
         25    2    1    2    0    0 -0.27782492311E+02 -0.36799252355E+02  0.29209534968E+02  0.13648078041E+03  0.12509098543E+03 0.  0.
         24    2    1    2    0    0  0.17193015332E+01 -0.14335217737E+02  0.11378347233E+04  0.11407500509E+04  0.80214503965E+02 0.  0.
        -11    1    5    5    0    0  0.23364058441E+02 -0.11658708349E+02  0.12584593071E+03  0.12852627351E+03  0.00000000000E+00 0.  1.
         12    1    5    5    0    0 -0.21644756908E+02 -0.26765093881E+01  0.10119887926E+04  0.10122237774E+04  0.00000000000E+00 0. -1.
         13    1    3    3    0    0 -0.80847589330E+01  0.22969356963E+02 -0.14741191284E+04  0.14743202364E+04  0.00000000000E+00 0. -1.
        -14    1    3    3    0    0  0.34147949711E+02  0.28165113130E+02 -0.40715855590E+03  0.40955762196E+03  0.00000000000E+00 0.  1.
          5    1    4    4  501    0 -0.38816929061E+02  0.35357071723E+02 -0.98524601221E+01  0.53585631218E+02  0.41800000000E+01 0. -1.
         -5    1    4    4    0  501  0.11034436750E+02 -0.72156324078E+02  0.39061995090E+02  0.82895149190E+02  0.41800000000E+01 0. -1.
</event>
<event>
11    1  0.8041700E-009  0.1381975E+03  0.7561462E-02  0.1109588E+00
         22   -1    0    0    0    0  0.00000000000E+00  0.00000000000E+00  0.28005958288E+03  0.28005958288E+03  0.00000000000E+00 0.  1.
         22   -1    0    0    0    0 -0.00000000000E+00 -0.00000000000E+00 -0.23922184521E+03  0.23922184521E+03  0.00000000000E+00 0.  1.
         24    2    1    2    0    0  0.11892661182E+02  0.93039466705E+01 -0.15591109416E+03  0.17593230024E+03  0.80099351885E+02 0.  0.
         25    2    1    2    0    0 -0.68347814384E+02 -0.12602899336E+02  0.24212135224E+02  0.14513444389E+03  0.12509005759E+03 0.  0.
        -24    2    1    2    0    0  0.56455153202E+02  0.32989526654E+01  0.17253669661E+03  0.19821468396E+03  0.79511520221E+02 0.  0.
        -11    1    3    3    0    0  0.15778595163E+02  0.20814176651E+02 -0.16074814482E+03  0.16285625588E+03  0.00000000000E+00 0.  1.
         12    1    3    3    0    0 -0.38859339815E+01 -0.11510229981E+02  0.48370506608E+01  0.13076044364E+02  0.00000000000E+00 0. -1.
         11    1    5    5    0    0  0.35876517300E+02  0.37590631901E+02  0.12912995358E+03  0.13919312128E+03  0.00000000000E+00 0. -1.
        -12    1    5    5    0    0  0.20578635903E+02 -0.34291679236E+02  0.43406743029E+02  0.59021562677E+02  0.00000000000E+00 0.  1.
          5    1    4    4  501    0  0.28293943635E+02 -0.42865781183E+01 -0.23210606040E+02  0.37082699890E+02  0.41800000000E+01 0. -1.
         -5    1    4    4    0  501 -0.96641758019E+02 -0.83163212176E+01  0.47422741264E+02  0.10805174400E+03  0.41800000000E+01 0. -1.
</event>
<event>
11    1  0.8041700E-009  0.2212799E+03  0.7561462E-02  0.1040419E+00
         22   -1    0    0    0    0  0.00000000000E+00  0.00000000000E+00  0.49458199193E+03  0.49458199193E+03  0.00000000000E+00 0.  1.
         22   -1    0    0    0    0 -0.00000000000E+00 -0.00000000000E+00 -0.96529783076E+03  0.96529783076E+03  0.00000000000E+00 0. -1.
        -24    2    1    2    0    0 -0.12902025808E+03 -0.13454783308E+03 -0.50222602806E+03  0.54123433218E+03  0.77163933813E+02 0.  0.
         25    2    1    2    0    0  0.13114385701E+03  0.11952278568E+03 -0.41328986062E+03  0.46684097532E+03  0.12509028667E+03 0.  0.
         24    2    1    2    0    0 -0.21235989332E+01  0.15025047400E+02  0.44480004985E+03  0.45180451519E+03  0.77781578023E+02 0.  0.
        -11    1    5    5    0    0 -0.38413875933E+02 -0.97428377097E-01  0.26393317719E+03  0.26671399922E+03  0.00000000000E+00 0.  1.
         12    1    5    5    0    0  0.36290277000E+02  0.15122475777E+02  0.18086687266E+03  0.18509051597E+03  0.00000000000E+00 0. -1.
         11    1    3    3    0    0 -0.43059980017E+02 -0.11090947903E+02 -0.18319434384E+03  0.18851349718E+03  0.00000000000E+00 0. -1.
        -12    1    3    3    0    0 -0.85960278059E+02 -0.12345688517E+03 -0.31903168423E+03  0.35272083500E+03  0.00000000000E+00 0.  1.
          5    1    4    4  501    0 -0.18273689410E+02  0.39797803797E+02 -0.54279488160E+02  0.69867933608E+02  0.41800000000E+01 0. -1.
         -5    1    4    4    0  501  0.14941754642E+03  0.79724981880E+02 -0.35901037246E+03  0.39697304171E+03  0.41800000000E+01 0. -1.
</event>
<event>
11    1  0.8041700E-009  0.1477117E+03  0.7561462E-02  0.1099240E+00
         22   -1    0    0    0    0  0.00000000000E+00  0.00000000000E+00  0.42852092592E+03  0.42852092592E+03  0.00000000000E+00 0.  1.
         22   -1    0    0    0    0 -0.00000000000E+00 -0.00000000000E+00 -0.43799941733E+03  0.43799941733E+03  0.00000000000E+00 0.  1.
        -24    2    1    2    0    0 -0.69242702662E+02 -0.38204854860E+02 -0.38251185262E+03  0.39858143125E+03  0.79357905309E+02 0.  0.
         25    2    1    2    0    0  0.66299672463E+02  0.25659337951E+02  0.82344146101E+02  0.16577595900E+03  0.12508821684E+03 0.  0.
         24    2    1    2    0    0  0.29430301989E+01  0.12545516908E+02  0.29068921511E+03  0.30216295301E+03  0.81462745927E+02 0.  0.
        -13    1    5    5    0    0 -0.10803007559E+01 -0.58594064010E+01  0.28084183475E+03  0.28090502993E+03  0.00000000000E+00 0.  1.
         14    1    5    5    0    0  0.40233309548E+01  0.18404923309E+02  0.98473803536E+01  0.21257923084E+02  0.00000000000E+00 0. -1.
         11    1    3    3    0    0 -0.51788215020E+02 -0.52639450133E+02 -0.17645246507E+03  0.19128095398E+03  0.00000000000E+00 0. -1.
        -12    1    3    3    0    0 -0.17454487642E+02  0.14434595273E+02 -0.20605938755E+03  0.20730047727E+03  0.00000000000E+00 0.  1.
          5    1    4    4  501    0  0.99796135370E+02  0.28378895181E+02  0.39343010800E+02  0.11104042158E+03  0.41800000000E+01 0.  1.
         -5    1    4    4    0  501 -0.33496462907E+02 -0.27195572296E+01  0.43001135301E+02  0.54735537414E+02  0.41800000000E+01 0.  1.
</event>
<event>
11    1  0.8041700E-009  0.1881297E+03  0.7561462E-02  0.1063250E+00
         22   -1    0    0    0    0  0.00000000000E+00  0.00000000000E+00  0.29258872182E+03  0.29258872182E+03  0.00000000000E+00 0. -1.
         22   -1    0    0    0    0 -0.00000000000E+00 -0.00000000000E+00 -0.40911511208E+03  0.40911511208E+03  0.00000000000E+00 0. -1.
         24    2    1    2    0    0  0.36481725222E+02 -0.30647884257E+02 -0.22336874337E+03  0.24213592232E+03  0.80411443693E+02 0.  0.
         25    2    1    2    0    0 -0.11823564432E+03 -0.84137080270E+02 -0.84058222519E+02  0.20922231677E+03  0.12509787047E+03 0.  0.
        -24    2    1    2    0    0  0.81753919101E+02  0.11478496453E+03  0.19090057563E+03  0.25034559481E+03  0.79816011522E+02 0.  0.
        -11    1    3    3    0    0  0.31344236623E+02 -0.45464848431E+01 -0.20944349228E+02  0.37971008132E+02  0.00000000000E+00 0.  1.
         12    1    3    3    0    0  0.51374885988E+01 -0.26101399414E+02 -0.20242439414E+03  0.20416491419E+03  0.00000000000E+00 0. -1.
         11    1    5    5    0    0  0.76101265022E+02  0.65020675016E+02  0.16735075396E+03  0.19500093735E+03  0.00000000000E+00 0. -1.
        -12    1    5    5    0    0  0.56526540794E+01  0.49764289511E+02  0.23549821676E+02  0.55344657462E+02  0.00000000000E+00 0.  1.
          5    1    4    4  501    0 -0.11351530411E+03 -0.38270454074E+02 -0.10411227046E+03  0.15876772085E+03  0.41800000000E+01 0.  1.
         -5    1    4    4    0  501 -0.47203402150E+01 -0.45866626197E+02  0.20054047945E+02  0.50454595920E+02  0.41800000000E+01 0.  1.
</event>
<event>
11    1  0.8041700E-009  0.1390203E+03  0.7561462E-02  0.1108657E+00
         22   -1    0    0    0    0  0.00000000000E+00  0.00000000000E+00  0.43942287087E+03  0.43942287087E+03  0.00000000000E+00 0.  1.
         22   -1    0    0    0    0 -0.00000000000E+00 -0.00000000000E+00 -0.57136007626E+03  0.57136007626E+03  0.00000000000E+00 0.  1.
        -24    2    1    2    0    0  0.45429825375E+02  0.14901343526E+02 -0.53136647193E+03  0.53797197843E+03  0.69120207013E+02 0.  0.
         25    2    1    2    0    0 -0.88528818400E+02  0.95232595643E+01  0.20890793363E+03  0.25926377958E+03  0.12508852269E+03 0.  0.
         24    2    1    2    0    0  0.43098993025E+02 -0.24424603090E+02  0.19052133290E+03  0.21354718912E+03  0.82764359799E+02 0.  0.
        -13    1    5    5    0    0  0.30715716384E+01 -0.37317494718E+01  0.15776574774E+03  0.15783976580E+03  0.00000000000E+00 0.  1.
         14    1    5    5    0    0  0.40027421387E+02 -0.20692853619E+02  0.32755585162E+02  0.55707423321E+02  0.00000000000E+00 0. -1.
         13    1    3    3    0    0  0.67614862401E+00 -0.16103794077E+02 -0.33917290216E+02  0.37552256074E+02  0.00000000000E+00 0. -1.
        -14    1    3    3    0    0  0.44753676751E+02  0.31005137602E+02 -0.49744918171E+03  0.50041972236E+03  0.00000000000E+00 0.  1.
          5    1    4    4  501    0  0.31609545853E+02 -0.56349432364E+01  0.43844034745E+02  0.54504015971E+02  0.41800000000E+01 0.  1.
         -5    1    4    4    0  501 -0.12013836425E+03  0.15158202801E+02  0.16506389889E+03  0.20475976361E+03  0.41800000000E+01 0.  1.
</event>
<event>
11    1  0.8041700E-009  0.1275269E+03  0.7561462E-02  0.1122345E+00
         22   -1    0    0    0    0  0.00000000000E+00  0.00000000000E+00  0.10756609987E+04  0.10756609987E+04  0.00000000000E+00 0. -1.
         22   -1    0    0    0    0 -0.00000000000E+00 -0.00000000000E+00 -0.59903950746E+02  0.59903950746E+02  0.00000000000E+00 0. -1.
        -24    2    1    2    0    0  0.45320808704E+01 -0.11497355537E+02 -0.13146157706E+02  0.81822973196E+02  0.79808824943E+02 0.  0.
         25    2    1    2    0    0 -0.82891126855E+01  0.32567933512E+02  0.46437879312E+03  0.48210055769E+03  0.12507559531E+03 0.  0.
         24    2    1    2    0    0  0.37570318152E+01 -0.21070577976E+02  0.56452441250E+03  0.57164141853E+03  0.87338505345E+02 0.  0.
        -13    1    5    5    0    0  0.19094778587E+02  0.13931330553E+02  0.46062424107E+02  0.51772960654E+02  0.00000000000E+00 0.  1.
         14    1    5    5    0    0 -0.15337746771E+02 -0.35001908529E+02  0.51846198840E+03  0.51986845787E+03  0.00000000000E+00 0. -1.
         11    1    3    3    0    0 -0.13788353854E+02 -0.35586779516E+02 -0.28741451848E+02  0.47776653636E+02  0.00000000000E+00 0. -1.
        -12    1    3    3    0    0  0.18320434724E+02  0.24089423980E+02  0.15595294142E+02  0.34046319559E+02  0.00000000000E+00 0.  1.
          5    1    4    4  501    0 -0.18773424495E+02 -0.36706196091E+02  0.30694546850E+03  0.30973017181E+03  0.41800000000E+01 0.  1.
         -5    1    4    4    0  501  0.10484311810E+02  0.69274129603E+02  0.15743332462E+03  0.17237038588E+03  0.41800000000E+01 0.  1.
</event>
<event>
11    1  0.8041700E-009  0.1975284E+03  0.7561462E-02  0.1056285E+00
         22   -1    0    0    0    0  0.00000000000E+00  0.00000000000E+00  0.14986433617E+03  0.14986433617E+03  0.00000000000E+00 0.  1.
         22   -1    0    0    0    0 -0.00000000000E+00 -0.00000000000E+00 -0.17189025771E+04  0.17189025771E+04  0.00000000000E+00 0.  1.
         24    2    1    2    0    0  0.84351216303E+02 -0.12543182430E+03 -0.13792295444E+04  0.13898220043E+04  0.80515819800E+02 0.  0.
         25    2    1    2    0    0 -0.73529168340E+02  0.14764844166E+03 -0.28512467199E+03  0.35234986054E+03  0.12509094582E+03 0.  0.
        -24    2    1    2    0    0 -0.10822047964E+02 -0.22216617360E+02  0.95315975467E+02  0.12659504843E+03  0.79564290356E+02 0.  0.
        -11    1    3    3    0    0  0.78088324492E+02 -0.10802575119E+03 -0.13381158341E+04  0.13447383890E+04  0.00000000000E+00 0.  1.
         12    1    3    3    0    0  0.62628918116E+01 -0.17406073107E+02 -0.41113710315E+02  0.45083615324E+02  0.00000000000E+00 0. -1.
         11    1    5    5    0    0  0.16012166699E+02 -0.29188211225E+01 -0.79891723215E+01  0.18131074804E+02  0.00000000000E+00 0. -1.
        -12    1    5    5    0    0 -0.26834214663E+02 -0.19297796237E+02  0.10330514779E+03  0.10846397363E+03  0.00000000000E+00 0.  1.
          5    1    4    4  501    0  0.10122891305E+02  0.98684431930E+02 -0.19995969634E+03  0.22325421070E+03  0.41800000000E+01 0. -1.
         -5    1    4    4    0  501 -0.83652059645E+02  0.48964009726E+02 -0.85164975651E+02  0.12909564984E+03  0.41800000000E+01 0. -1.
</event>
<event>
11    1  0.8041700E-009  0.1737154E+03  0.7561462E-02  0.1074843E+00
         22   -1    0    0    0    0  0.00000000000E+00  0.00000000000E+00  0.40015021971E+03  0.40015021971E+03  0.00000000000E+00 0. -1.
         22   -1    0    0    0    0 -0.00000000000E+00 -0.00000000000E+00 -0.50091264304E+03  0.50091264304E+03  0.00000000000E+00 0. -1.
         24    2    1    2    0    0  0.62745855567E+02 -0.12243275358E+03 -0.34644017801E+03  0.38161585834E+03  0.81749892103E+02 0.  0.
         25    2    1    2    0    0  0.45736915607E+02  0.92461811538E+02 -0.68659856915E+02  0.17607752330E+03  0.12509223084E+03 0.  0.
        -24    2    1    2    0    0 -0.10848277117E+03  0.29970942042E+02  0.31433761159E+03  0.34336948112E+03  0.80172922468E+02 0.  0.
        -11    1    3    3    0    0  0.86857301617E+01 -0.43730418368E+02 -0.37502697149E+02  0.58260138110E+02  0.00000000000E+00 0.  1.
         12    1    3    3    0    0  0.54060125405E+02 -0.78702335211E+02 -0.30893748086E+03  0.32335572023E+03  0.00000000000E+00 0. -1.
         11    1    5    5    0    0 -0.47299058654E+02 -0.13358608592E+01  0.22879883782E+03  0.23364052230E+03  0.00000000000E+00 0. -1.
        -12    1    5    5    0    0 -0.61183712519E+02  0.31306802901E+02  0.85538773772E+02  0.10972895882E+03  0.00000000000E+00 0.  1.
          5    1    4    4  501    0  0.45896964087E+02  0.35100954032E+02  0.27424812245E+02  0.64095249536E+02  0.41800000000E+01 0.  1.
         -5    1    4    4    0  501 -0.16004848008E+00  0.57360857505E+02 -0.96084669160E+02  0.11198227376E+03  0.41800000000E+01 0.  1.
</event>
<event>
11    1  0.8041700E-009  0.1523023E+03  0.7561462E-02  0.1094549E+00
         22   -1    0    0    0    0  0.00000000000E+00  0.00000000000E+00  0.16064205833E+04  0.16064205833E+04  0.00000000000E+00 0.  1.
         22   -1    0    0    0    0 -0.00000000000E+00 -0.00000000000E+00 -0.12590750240E+04  0.12590750240E+04  0.00000000000E+00 0. -1.
         24    2    1    2    0    0  0.40970935992E+02  0.20966770931E+00 -0.12333407220E+04  0.12366078481E+04  0.79943554874E+02 0.  0.
         25    2    1    2    0    0  0.26728678235E+02 -0.59849405825E+02  0.21123409418E+03  0.25409346001E+03  0.12508904931E+03 0.  0.
        -24    2    1    2    0    0 -0.67699614228E+02  0.59639738116E+02  0.13694521871E+04  0.13747942991E+04  0.80746120016E+02 0.  0.
        -13    1    3    3    0    0  0.22991179098E+02  0.28232403252E+02 -0.24347411356E+03  0.24618145114E+03  0.00000000000E+00 0.  1.
         14    1    3    3    0    0  0.17979756894E+02 -0.28022735542E+02 -0.98986660842E+03  0.99042639698E+03  0.00000000000E+00 0. -1.
         13    1    5    5    0    0  0.11989573321E+02  0.15897810299E+02  0.92926984173E+02  0.95036385812E+02  0.00000000000E+00 0. -1.
        -14    1    5    5    0    0 -0.79689187549E+02  0.43741927817E+02  0.12765252029E+04  0.12797579133E+04  0.00000000000E+00 0.  1.
          5    1    4    4  501    0  0.61325371923E+02 -0.62602543811E+02  0.19826292574E+03  0.21680761023E+03  0.41800000000E+01 0.  1.
         -5    1    4    4    0  501 -0.34596693688E+02  0.27531379857E+01  0.12971168446E+02  0.37285849779E+02  0.41800000000E+01 0.  1.
</event>
<event>
11    1  0.8041700E-009  0.1545635E+03  0.7561462E-02  0.1092305E+00
         22   -1    0    0    0    0  0.00000000000E+00  0.00000000000E+00  0.69085343635E+03  0.69085343635E+03  0.00000000000E+00 0. -1.
         22   -1    0    0    0    0 -0.00000000000E+00 -0.00000000000E+00 -0.34862605356E+03  0.34862605356E+03  0.00000000000E+00 0.  1.
        -24    2    1    2    0    0 -0.88899557125E+02  0.25058192723E+02 -0.28550544549E+03  0.31075963806E+03  0.80790772784E+02 0.  0.
         25    2    1    2    0    0  0.65208420994E+02 -0.47461907039E+02  0.70283534666E+02  0.16460040005E+03  0.12509494660E+03 0.  0.
         24    2    1    2    0    0  0.23691136131E+02  0.22403714316E+02  0.55744929361E+03  0.56411945180E+03  0.80111451180E+02 0.  0.
        -11    1    5    5    0    0  0.39973716750E+02  0.30823435598E+02  0.20247747205E+03  0.20867464844E+03  0.00000000000E+00 0.  1.
         12    1    5    5    0    0 -0.16282580619E+02 -0.84197212815E+01  0.35497182155E+03  0.35544480336E+03  0.00000000000E+00 0. -1.
         11    1    3    3    0    0 -0.71114249455E+02 -0.20033481673E+02 -0.18381675258E+03  0.19810899877E+03  0.00000000000E+00 0. -1.
        -12    1    3    3    0    0 -0.17785307670E+02  0.45091674395E+02 -0.10168869291E+03  0.11265063930E+03  0.00000000000E+00 0.  1.
          5    1    4    4  501    0 -0.21617094863E+02 -0.50024490666E+02  0.31637313050E+01  0.54746963865E+02  0.41800000000E+01 0. -1.
         -5    1    4    4    0  501  0.86825515857E+02  0.25625836271E+01  0.67119803361E+02  0.10985343619E+03  0.41800000000E+01 0. -1.
</event>
<event>
11    1  0.8041700E-009  0.1692011E+03  0.7561462E-02  0.1078729E+00
         22   -1    0    0    0    0  0.00000000000E+00  0.00000000000E+00  0.95806955121E+02  0.95806955121E+02  0.00000000000E+00 0.  1.
         22   -1    0    0    0    0 -0.00000000000E+00 -0.00000000000E+00 -0.98320142785E+03  0.98320142785E+03  0.00000000000E+00 0. -1.
        -24    2    1    2    0    0  0.18535915974E+02 -0.34250175263E+02 -0.67038960994E+03  0.67627861410E+03  0.80086703542E+02 0.  0.
         25    2    1    2    0    0 -0.11821877516E+03 -0.19974012932E+02 -0.19607663604E+03  0.26167559306E+03  0.12511366357E+03 0.  0.
         24    2    1    2    0    0  0.99682859185E+02  0.54224188195E+02 -0.20928226743E+02  0.14105417580E+03  0.81125549836E+02 0.  0.
        -13    1    5    5    0    0  0.95373026951E+02  0.38452724501E+02  0.12746739379E+02  0.10362000606E+03  0.00000000000E+00 0.  1.
         14    1    5    5    0    0  0.43098322341E+01  0.15771463695E+02 -0.33674966122E+02  0.37434169742E+02  0.00000000000E+00 0. -1.
         11    1    3    3    0    0 -0.33620553599E+01 -0.57035303611E+02 -0.40363415487E+03  0.40765777345E+03  0.00000000000E+00 0. -1.
        -12    1    3    3    0    0  0.21897971334E+02  0.22785128348E+02 -0.26675545507E+03  0.26862084065E+03  0.00000000000E+00 0.  1.
          5    1    4    4  501    0 -0.12342545592E+03 -0.55779007736E+02 -0.16705661127E+03  0.21510584521E+03  0.41800000000E+01 0. -1.
         -5    1    4    4    0  501  0.52066807661E+01  0.35804994804E+02 -0.29020024768E+02  0.46569747853E+02  0.41800000000E+01 0. -1.
</event>
<event>
11    1  0.8041700E-009  0.2049084E+03  0.7561462E-02  0.1051106E+00
         22   -1    0    0    0    0  0.00000000000E+00  0.00000000000E+00  0.19533769268E+04  0.19533769268E+04  0.00000000000E+00 0.  1.
         22   -1    0    0    0    0 -0.00000000000E+00 -0.00000000000E+00 -0.10559510842E+04  0.10559510842E+04  0.00000000000E+00 0. -1.
        -24    2    1    2    0    0 -0.16294784400E+03 -0.32801881877E+02 -0.99645688812E+03  0.10134278733E+04  0.80509385859E+02 0.  0.
         25    2    1    2    0    0  0.10501308753E+03 -0.28740037506E+02  0.90749069214E+02  0.18903933781E+03  0.12508692726E+03 0.  0.
         24    2    1    2    0    0  0.57934756471E+02  0.61541919382E+02  0.18031336615E+04  0.18068607999E+04  0.79442463247E+02 0.  0.
        -13    1    5    5    0    0  0.53576789405E+02  0.28189576668E+02  0.15843870593E+04  0.15855432754E+04  0.00000000000E+00 0.  1.
         14    1    5    5    0    0  0.43579670658E+01  0.33352342715E+02  0.21874660218E+03  0.22131752440E+03  0.00000000000E+00 0. -1.
         11    1    3    3    0    0 -0.94292493850E+02  0.18423705771E+02 -0.43577456184E+03  0.44623981902E+03  0.00000000000E+00 0. -1.
        -12    1    3    3    0    0 -0.68655350149E+02 -0.51225587648E+02 -0.56068232628E+03  0.56718805430E+03  0.00000000000E+00 0.  1.
          5    1    4    4  501    0  0.10677663828E+03 -0.29759828326E+02  0.11767484348E+03  0.16171499328E+03  0.41800000000E+01 0.  1.
         -5    1    4    4    0  501 -0.17635507507E+01  0.10197908203E+01 -0.26925774263E+02  0.27324344535E+02  0.41800000000E+01 0.  1.
</event>
<event>
11    1  0.8041700E-009  0.1318899E+03  0.7561462E-02  0.1116968E+00
         22   -1    0    0    0    0  0.00000000000E+00  0.00000000000E+00  0.52547806922E+03  0.52547806922E+03  0.00000000000E+00 0.  1.
         22   -1    0    0    0    0 -0.00000000000E+00 -0.00000000000E+00 -0.10263678383E+04  0.10263678383E+04  0.00000000000E+00 0.  1.
        -24    2    1    2    0    0 -0.55370535605E+02  0.12592425646E+02 -0.66562807946E+03  0.67555014894E+03  0.10041313742E+03 0.  0.
         25    2    1    2    0    0  0.68279023652E+01  0.43959494612E+02 -0.33715655410E+03  0.36235590028E+03  0.12509276188E+03 0.  0.
         24    2    1    2    0    0  0.48542633240E+02 -0.56551920258E+02  0.50189486447E+03  0.51393985832E+03  0.81738706059E+02 0.  0.
        -13    1    5    5    0    0 -0.59893089228E+01  0.14015244896E+02  0.15563756190E+03  0.15638206286E+03  0.00000000000E+00 0.  1.
         14    1    5    5    0    0  0.54531942162E+02 -0.70567165155E+02  0.34625730257E+03  0.35755779547E+03  0.00000000000E+00 0. -1.
         11    1    3    3    0    0  0.18776421038E+02 -0.25600468415E+02 -0.16610457379E+03  0.16911140530E+03  0.00000000000E+00 0. -1.
        -12    1    3    3    0    0 -0.74146956642E+02  0.38192894061E+02 -0.49952350567E+03  0.50643874363E+03  0.00000000000E+00 0.  1.
          5    1    4    4  501    0  0.58501460798E+02  0.45501131236E+02 -0.25144881317E+03  0.26217694769E+03  0.41800000000E+01 0.  1.
         -5    1    4    4    0  501 -0.51673558432E+02 -0.15416366239E+01 -0.85707740937E+02  0.10017895258E+03  0.41800000000E+01 0.  1.
</event>
<event>
11    1  0.8041700E-009  0.1676270E+03  0.7561462E-02  0.1080115E+00
         22   -1    0    0    0    0  0.00000000000E+00  0.00000000000E+00  0.12151324563E+04  0.12151324563E+04  0.00000000000E+00 0. -1.
         22   -1    0    0    0    0 -0.00000000000E+00 -0.00000000000E+00 -0.12287624855E+03  0.12287624855E+03  0.00000000000E+00 0.  1.
         24    2    1    2    0    0  0.91877883651E+01 -0.62957396333E+02 -0.73819306402E+02  0.12447863237E+03  0.77444113471E+02 0.  0.
         25    2    1    2    0    0 -0.74548250486E+02  0.13468269087E+03  0.54909958431E+03  0.58382712121E+03  0.12508750977E+03 0.  0.
        -24    2    1    2    0    0  0.65360462121E+02 -0.71725294532E+02  0.61697592984E+03  0.62970295127E+03  0.80311897986E+02 0.  0.
        -13    1    3    3    0    0  0.36500255882E+02 -0.51552544639E+02 -0.70558075606E+02  0.94701507757E+02  0.00000000000E+00 0.  1.
         14    1    3    3    0    0 -0.27312467517E+02 -0.11404851694E+02 -0.32612307961E+01  0.29777124615E+02  0.00000000000E+00 0. -1.
         11    1    5    5    0    0  0.11802681116E+01  0.10341827437E+02  0.18684158605E+03  0.18713130338E+03  0.00000000000E+00 0. -1.
        -12    1    5    5    0    0  0.64180194009E+02 -0.82067121970E+02  0.43013434378E+03  0.44257164789E+03  0.00000000000E+00 0.  1.
          5    1    4    4  501    0 -0.10539579359E+03  0.10886148161E+03  0.36288595824E+03  0.39327189904E+03  0.41800000000E+01 0. -1.
         -5    1    4    4    0  501  0.30847543105E+02  0.25821209259E+02  0.18621362607E+03  0.19055522217E+03  0.41800000000E+01 0. -1.
</event>
<event>
11    1  0.8041700E-009  0.1518867E+03  0.7561462E-02  0.1094966E+00
         22   -1    0    0    0    0  0.00000000000E+00  0.00000000000E+00  0.23333344961E+03  0.23333344961E+03  0.00000000000E+00 0. -1.
         22   -1    0    0    0    0 -0.00000000000E+00 -0.00000000000E+00 -0.60486253680E+03  0.60486253680E+03  0.00000000000E+00 0.  1.
        -24    2    1    2    0    0 -0.93190554797E+01  0.68259154270E+01 -0.51965179506E+03  0.52665036153E+03  0.84789016257E+02 0.  0.
         25    2    1    2    0    0  0.38749629963E+01 -0.89395503151E+02  0.11136821604E+03  0.18990215780E+03  0.12511346319E+03 0.  0.
         24    2    1    2    0    0  0.54440924834E+01  0.82569587724E+02  0.36754491820E+02  0.12164346707E+03  0.81233401092E+02 0.  0.
        -13    1    5    5    0    0  0.31747766883E+02  0.36399492820E+02  0.47151193239E+02  0.67498731866E+02  0.00000000000E+00 0.  1.
         14    1    5    5    0    0 -0.26303674400E+02  0.46170094903E+02 -0.10396701419E+02  0.54144735208E+02  0.00000000000E+00 0. -1.
         11    1    3    3    0    0  0.30707275420E+02 -0.18252966455E+02 -0.28996141348E+03  0.29215360490E+03  0.00000000000E+00 0. -1.
        -12    1    3    3    0    0 -0.40026330900E+02  0.25078881882E+02 -0.22969038158E+03  0.23449675663E+03  0.00000000000E+00 0.  1.
          5    1    4    4  501    0 -0.59856481105E+02 -0.50965956871E+02  0.49151692427E+02  0.92809958293E+02  0.41800000000E+01 0. -1.
         -5    1    4    4    0  501  0.63731444101E+02 -0.38429546280E+02  0.62216523617E+02  0.97092199509E+02  0.41800000000E+01 0. -1.
</event>
<event>
11    1  0.8041700E-009  0.1468007E+03  0.7561462E-02  0.1100193E+00
         22   -1    0    0    0    0  0.00000000000E+00  0.00000000000E+00  0.10597118528E+04  0.10597118528E+04  0.00000000000E+00 0.  1.
         22   -1    0    0    0    0 -0.00000000000E+00 -0.00000000000E+00 -0.21627570170E+03  0.21627570170E+03  0.00000000000E+00 0. -1.
        -24    2    1    2    0    0 -0.64487836576E+02  0.13886720289E+02 -0.13337263928E+03  0.16936502941E+03  0.80899506870E+02 0.  0.
         25    2    1    2    0    0  0.28950891123E+02 -0.82939299541E+02  0.33598888885E+02  0.15650801136E+03  0.12509512692E+03 0.  0.
         24    2    1    2    0    0  0.35536945453E+02  0.69052579252E+02  0.94320990152E+03  0.95011451375E+03  0.83913870896E+02 0.  0.
        -11    1    5    5    0    0  0.37405741022E+02  0.38794854005E+02  0.85767258243E+03  0.85936400251E+03  0.00000000000E+00 0.  1.
         12    1    5    5    0    0 -0.18687955684E+01  0.30257725247E+02  0.85537319087E+02  0.90750511241E+02  0.00000000000E+00 0. -1.
         11    1    3    3    0    0  0.17260770771E+02  0.14157267498E+02 -0.23457125620E+02  0.32382081048E+02  0.00000000000E+00 0. -1.
        -12    1    3    3    0    0 -0.81748607347E+02 -0.27054720909E+00 -0.10991551366E+03  0.13698294836E+03  0.00000000000E+00 0.  1.
          5    1    4    4  501    0  0.62306298640E+02 -0.83904434916E+02 -0.57448901578E+01  0.10474972655E+03  0.41800000000E+01 0.  1.
         -5    1    4    4    0  501 -0.33355407517E+02  0.96513537515E+00  0.39343779043E+02  0.51758284808E+02  0.41800000000E+01 0.  1.
</event>
<event>
11    1  0.8041700E-009  0.1640120E+03  0.7561462E-02  0.1083363E+00
         22   -1    0    0    0    0  0.00000000000E+00  0.00000000000E+00  0.19417650886E+03  0.19417650886E+03  0.00000000000E+00 0.  1.
         22   -1    0    0    0    0 -0.00000000000E+00 -0.00000000000E+00 -0.95680473561E+03  0.95680473561E+03  0.00000000000E+00 0. -1.
        -24    2    1    2    0    0 -0.16622622452E+02 -0.98789744655E+02 -0.70342030184E+03  0.71508362189E+03  0.80676762606E+02 0.  0.
         25    2    1    2    0    0  0.39704656363E+02  0.14191724731E+03 -0.19290081142E+03  0.27308196914E+03  0.12508426759E+03 0.  0.
         24    2    1    2    0    0 -0.23082033911E+02 -0.43127502659E+02  0.13369288651E+03  0.16281565344E+03  0.79008780053E+02 0.  0.
        -13    1    5    5    0    0 -0.50399516514E+01 -0.61996589903E+02  0.11487427761E+03  0.13063337218E+03  0.00000000000E+00 0.  1.
         14    1    5    5    0    0 -0.18042082260E+02  0.18869087244E+02  0.18818608909E+02  0.32182281258E+02  0.00000000000E+00 0. -1.
         11    1    3    3    0    0 -0.19335295367E+02 -0.11031057929E+03 -0.55466728492E+03  0.56586047266E+03  0.00000000000E+00 0. -1.
        -12    1    3    3    0    0  0.27126729156E+01  0.11520834631E+02 -0.14875301692E+03  0.14922314923E+03  0.00000000000E+00 0.  1.
          5    1    4    4  501    0  0.71120207715E+02  0.14489503947E+03 -0.16085319977E+03  0.22791200206E+03  0.41800000000E+01 0.  1.
         -5    1    4    4    0  501 -0.31415551352E+02 -0.29777921549E+01 -0.32047611652E+02  0.45169967075E+02  0.41800000000E+01 0.  1.
</event>
<event>
11    1  0.8041700E-009  0.1362171E+03  0.7561462E-02  0.1111858E+00
         22   -1    0    0    0    0  0.00000000000E+00  0.00000000000E+00  0.43102450251E+02  0.43102450251E+02  0.00000000000E+00 0. -1.
         22   -1    0    0    0    0 -0.00000000000E+00 -0.00000000000E+00 -0.10129572556E+04  0.10129572556E+04  0.00000000000E+00 0. -1.
         24    2    1    2    0    0 -0.41251393516E+02  0.31420364195E+02 -0.68396868862E+03  0.69060848911E+03  0.80237157583E+02 0.  0.
         25    2    1    2    0    0  0.53904115286E+02 -0.40513430641E+02 -0.21187091499E+03  0.25511397869E+03  0.12508743261E+03 0.  0.
        -24    2    1    2    0    0 -0.12652721771E+02  0.90930664463E+01 -0.74015201735E+02  0.11033723805E+03  0.80332314719E+02 0.  0.
        -13    1    3    3    0    0 -0.91188608144E+01  0.53280524430E+02 -0.47411232514E+03  0.47718388987E+03  0.00000000000E+00 0.  1.
         14    1    3    3    0    0 -0.32132532701E+02 -0.21860160235E+02 -0.20985636349E+03  0.21342459923E+03  0.00000000000E+00 0. -1.
         13    1    5    5    0    0 -0.36525856829E+02  0.25050148157E+02 -0.18827719807E+02  0.48126200483E+02  0.00000000000E+00 0. -1.
        -14    1    5    5    0    0  0.23873135059E+02 -0.15957081710E+02 -0.55187481928E+02  0.62211037572E+02  0.00000000000E+00 0.  1.
          5    1    4    4  501    0  0.77360711584E+02 -0.45607824332E+02 -0.21250691170E+03  0.23074100905E+03  0.41800000000E+01 0. -1.
         -5    1    4    4    0  501 -0.23456596297E+02  0.50943936909E+01  0.63599671438E+00  0.24372969634E+02  0.41800000000E+01 0. -1.
</event>
<event>
11    1  0.8041700E-009  0.1548883E+03  0.7561462E-02  0.1091986E+00
         22   -1    0    0    0    0  0.00000000000E+00  0.00000000000E+00  0.10171327191E+03  0.10171327191E+03  0.00000000000E+00 0. -1.
         22   -1    0    0    0    0 -0.00000000000E+00 -0.00000000000E+00 -0.19149243389E+04  0.19149243389E+04  0.00000000000E+00 0. -1.
         24    2    1    2    0    0  0.57603097096E+02 -0.86851272316E+01 -0.10294573114E+04  0.10342634880E+04  0.80777834458E+02 0.  0.
         25    2    1    2    0    0 -0.12331373225E+03  0.68846986064E+02 -0.83211025725E+03  0.85323241115E+03  0.12510748645E+03 0.  0.
        -24    2    1    2    0    0  0.65710635158E+02 -0.60161858832E+02  0.48356501616E+02  0.12914171162E+03  0.80011834130E+02 0.  0.
        -13    1    3    3    0    0  0.41016276582E+02  0.20916101650E+02 -0.25907847708E+03  0.26313775012E+03  0.00000000000E+00 0.  1.
         14    1    3    3    0    0  0.16586820514E+02 -0.29601228881E+02 -0.77037883428E+03  0.77112573792E+03  0.00000000000E+00 0. -1.
         13    1    5    5    0    0  0.50820839033E+02 -0.53731395327E+02  0.70176715805E+02  0.10195387175E+03  0.00000000000E+00 0. -1.
        -14    1    5    5    0    0  0.14889796125E+02 -0.64304635051E+01 -0.21820214189E+02  0.27187839870E+02  0.00000000000E+00 0.  1.
          5    1    4    4  501    0 -0.65455819754E+02  0.96308202600E+02 -0.40870781958E+03  0.42499328043E+03  0.41800000000E+01 0. -1.
         -5    1    4    4    0  501 -0.57857912501E+02 -0.27461216536E+02 -0.42340243768E+03  0.42823913072E+03  0.41800000000E+01 0. -1.
</event>
<event>
11    1  0.8041700E-009  0.1401876E+03  0.7561462E-02  0.1107349E+00
         22   -1    0    0    0    0  0.00000000000E+00  0.00000000000E+00  0.11849603915E+04  0.11849603915E+04  0.00000000000E+00 0. -1.
         22   -1    0    0    0    0 -0.00000000000E+00 -0.00000000000E+00 -0.51349311033E+03  0.51349311033E+03  0.00000000000E+00 0.  1.
         24    2    1    2    0    0 -0.53397126138E+02  0.34350575276E+02 -0.48973114831E+03  0.50428462472E+03  0.10215267988E+03 0.  0.
         25    2    1    2    0    0  0.36938353747E+02 -0.42145541267E+02  0.31273674776E+03  0.34145679585E+03  0.12509109245E+03 0.  0.
        -24    2    1    2    0    0  0.16458772391E+02  0.77949659916E+01  0.84846168167E+03  0.85271208122E+03  0.83060312412E+02 0.  0.
        -11    1    3    3    0    0  0.14355600309E+02  0.38823730616E+02 -0.29850586667E+03  0.30136210405E+03  0.00000000000E+00 0.  1.
         12    1    3    3    0    0 -0.67752726447E+02 -0.44731553406E+01 -0.19122528164E+03  0.20292252068E+03  0.00000000000E+00 0. -1.
         13    1    5    5    0    0  0.16553624370E+02 -0.32629654757E+02  0.58746928081E+03  0.58860757109E+03  0.00000000000E+00 0. -1.
        -14    1    5    5    0    0 -0.94851979045E-01  0.40424620749E+02  0.26099240086E+03  0.26410451012E+03  0.00000000000E+00 0.  1.
          5    1    4    4  501    0 -0.45465516352E+01  0.41379114689E+02  0.12452150455E+03  0.13136201794E+03  0.41800000000E+01 0.  1.
         -5    1    4    4    0  501  0.41484905382E+02 -0.83524655957E+02  0.18821524321E+03  0.21009477791E+03  0.41800000000E+01 0.  1.
</event>
<event>
11    1  0.8041700E-009  0.1787381E+03  0.7561462E-02  0.1070668E+00
         22   -1    0    0    0    0  0.00000000000E+00  0.00000000000E+00  0.69245749002E+03  0.69245749002E+03  0.00000000000E+00 0.  1.
         22   -1    0    0    0    0 -0.00000000000E+00 -0.00000000000E+00 -0.50161410964E+03  0.50161410964E+03  0.00000000000E+00 0.  1.
        -24    2    1    2    0    0  0.55708017790E+02  0.10865568144E+03 -0.38150057541E+03  0.40869055962E+03  0.81091578686E+02 0.  0.
         25    2    1    2    0    0 -0.93142973218E+02 -0.14732791969E+03  0.98931800762E+01  0.21476855938E+03  0.12508608918E+03 0.  0.
         24    2    1    2    0    0  0.37434955428E+02  0.38672238252E+02  0.56245077570E+03  0.57061248066E+03  0.79691970095E+02 0.  0.
        -11    1    5    5    0    0  0.24779396496E+02  0.60854900499E+02  0.31082966664E+03  0.31769862932E+03  0.00000000000E+00 0.  1.
         12    1    5    5    0    0  0.12655558932E+02 -0.22182662247E+02  0.25162110906E+03  0.25291385134E+03  0.00000000000E+00 0. -1.
         11    1    3    3    0    0 -0.13823715256E+02  0.41536408589E+02 -0.70171682821E+02  0.82706912721E+02  0.00000000000E+00 0. -1.
        -12    1    3    3    0    0  0.69531733046E+02  0.67119272850E+02 -0.31132889259E+03  0.32598364690E+03  0.00000000000E+00 0.  1.
          5    1    4    4  501    0  0.11196897856E+02 -0.38113026783E+01  0.33451027360E+02  0.35725903503E+02  0.41800000000E+01 0.  1.
         -5    1    4    4    0  501 -0.10433987107E+03 -0.14351661701E+03 -0.23557847284E+02  0.17904265588E+03  0.41800000000E+01 0.  1.
</event>
<event>
11    1  0.8041700E-009  0.2223219E+03  0.7561462E-02  0.1039773E+00
         22   -1    0    0    0    0  0.00000000000E+00  0.00000000000E+00  0.78187520963E+03  0.78187520963E+03  0.00000000000E+00 0.  1.
         22   -1    0    0    0    0 -0.00000000000E+00 -0.00000000000E+00 -0.84980650424E+03  0.84980650424E+03  0.00000000000E+00 0. -1.
         24    2    1    2    0    0 -0.59184374581E+02 -0.17463649820E+03 -0.75649069976E+03  0.78275019909E+03  0.80118653628E+02 0.  0.
         25    2    1    2    0    0  0.26972228151E+02  0.17724266598E+03  0.77228196520E+02  0.23184879705E+03  0.12508879495E+03 0.  0.
        -24    2    1    2    0    0  0.32212146430E+02 -0.26061677845E+01  0.61133120863E+03  0.61708271773E+03  0.77593939073E+02 0.  0.
        -11    1    3    3    0    0  0.73339629425E+01 -0.10190934781E+03 -0.36315987398E+03  0.37725905722E+03  0.00000000000E+00 0.  1.
         12    1    3    3    0    0 -0.66518337523E+02 -0.72727150386E+02 -0.39333082578E+03  0.40549114187E+03  0.00000000000E+00 0. -1.
         11    1    5    5    0    0  0.37875292354E+02 -0.26753345721E+02  0.21343451748E+03  0.21841376452E+03  0.00000000000E+00 0. -1.
        -12    1    5    5    0    0 -0.56631459241E+01  0.24147177936E+02  0.39789669115E+03  0.39866895321E+03  0.00000000000E+00 0.  1.
          5    1    4    4  501    0 -0.46981696208E+02  0.85206738322E+02  0.15706663406E+02  0.98649073535E+02  0.41800000000E+01 0. -1.
         -5    1    4    4    0  501  0.73953924359E+02  0.92035927660E+02  0.61521533114E+02  0.13319972352E+03  0.41800000000E+01 0. -1.
</event>
<event>
11    1  0.8041700E-009  0.2345377E+03  0.7561462E-02  0.1032474E+00
         22   -1    0    0    0    0  0.00000000000E+00  0.00000000000E+00  0.39013481472E+03  0.39013481472E+03  0.00000000000E+00 0.  1.
         22   -1    0    0    0    0 -0.00000000000E+00 -0.00000000000E+00 -0.18240973568E+04  0.18240973568E+04  0.00000000000E+00 0.  1.
        -24    2    1    2    0    0  0.13746392190E+03  0.15528221083E+03 -0.14728245272E+04  0.14895442177E+04  0.80752670992E+02 0.  0.
         25    2    1    2    0    0 -0.81389086154E+02 -0.14560661978E+03 -0.30416232758E+03  0.36876774765E+03  0.12509779820E+03 0.  0.
         24    2    1    2    0    0 -0.56074835750E+02 -0.96755910546E+01  0.34302431267E+03  0.35592020616E+03  0.75996774992E+02 0.  0.
        -13    1    5    5    0    0 -0.64103231175E+02 -0.14966703707E+01  0.33685699704E+03  0.34290538159E+03  0.00000000000E+00 0.  1.
         14    1    5    5    0    0  0.80283954247E+01 -0.81789206840E+01  0.61673156271E+01  0.13014824574E+02  0.00000000000E+00 0. -1.
         11    1    3    3    0    0  0.80330656769E+02  0.10617275452E+03 -0.66384299647E+03  0.67706217748E+03  0.00000000000E+00 0. -1.
        -12    1    3    3    0    0  0.57133265135E+02  0.49109456316E+02 -0.80898153069E+03  0.81248204022E+03  0.00000000000E+00 0.  1.
          5    1    4    4  501    0 -0.37565587011E+02 -0.10070764690E+03 -0.28245866849E+03  0.30224753973E+03  0.41800000000E+01 0.  1.
         -5    1    4    4    0  501 -0.43823499143E+02 -0.44898972875E+02 -0.21703659098E+02  0.66520207912E+02  0.41800000000E+01 0.  1.
</event>
<event>
11    1  0.8041700E-009  0.1541981E+03  0.7561462E-02  0.1092665E+00
         22   -1    0    0    0    0  0.00000000000E+00  0.00000000000E+00  0.38358297941E+03  0.38358297941E+03  0.00000000000E+00 0. -1.
         22   -1    0    0    0    0 -0.00000000000E+00 -0.00000000000E+00 -0.22757815182E+03  0.22757815182E+03  0.00000000000E+00 0. -1.
        -24    2    1    2    0    0  0.51246201573E+02  0.51369614800E+02 -0.13612895029E+03  0.17384444161E+03  0.80161014659E+02 0.  0.
         25    2    1    2    0    0 -0.40444450713E+02 -0.13008394095E+03  0.95154617899E+02  0.20799015263E+03  0.12509163441E+03 0.  0.
         24    2    1    2    0    0 -0.10801750860E+02  0.78714326148E+02  0.19697915998E+03  0.22932653700E+03  0.86471082707E+02 0.  0.
        -11    1    5    5    0    0 -0.32331778467E+02 -0.32993646139E+01  0.49707210197E+02  0.59388857972E+02  0.00000000000E+00 0.  1.
         12    1    5    5    0    0  0.21530027608E+02  0.82013690762E+02  0.14727194978E+03  0.16993767903E+03  0.00000000000E+00 0. -1.
         11    1    3    3    0    0  0.68740779501E+02  0.27393616335E+02 -0.72313997322E+02  0.10346506266E+03  0.00000000000E+00 0. -1.
        -12    1    3    3    0    0 -0.17494577928E+02  0.23975998465E+02 -0.63814952963E+02  0.70379378947E+02  0.00000000000E+00 0.  1.
          5    1    4    4  501    0  0.32212386361E+02  0.13200098295E+01  0.30072887032E+02  0.44285789995E+02  0.41800000000E+01 0.  1.
         -5    1    4    4    0  501 -0.72656837075E+02 -0.13140395078E+03  0.65081730868E+02  0.16370436264E+03  0.41800000000E+01 0.  1.
</event>
<event>
11    1  0.8041700E-009  0.1639053E+03  0.7561462E-02  0.1083461E+00
         22   -1    0    0    0    0  0.00000000000E+00  0.00000000000E+00  0.13691544969E+04  0.13691544969E+04  0.00000000000E+00 0.  1.
         22   -1    0    0    0    0 -0.00000000000E+00 -0.00000000000E+00 -0.16647594123E+04  0.16647594123E+04  0.00000000000E+00 0.  1.
        -24    2    1    2    0    0 -0.21631088276E+02  0.10377835998E+03 -0.16501152276E+04  0.16554799778E+04  0.80596778010E+02 0.  0.
         25    2    1    2    0    0  0.64739269092E+02 -0.67557787784E+02  0.70297734376E+03  0.72012545320E+03  0.12509314471E+03 0.  0.
         24    2    1    2    0    0 -0.43108180816E+02 -0.36220572197E+02  0.65153296838E+03  0.65830847827E+03  0.75528793082E+02 0.  0.
        -13    1    5    5    0    0 -0.32389646666E+02 -0.59269686101E+02  0.42180702881E+03  0.42718047059E+03  0.00000000000E+00 0.  1.
         14    1    5    5    0    0 -0.10718534149E+02  0.23049113903E+02  0.22972593957E+03  0.23112800768E+03  0.00000000000E+00 0. -1.
         13    1    3    3    0    0 -0.29580351690E+02  0.17063962477E+02 -0.21217719642E+03  0.21490774463E+03  0.00000000000E+00 0. -1.
        -14    1    3    3    0    0  0.79492634138E+01  0.86714397504E+02 -0.14379380312E+04  0.14405722332E+04  0.00000000000E+00 0.  1.
          5    1    4    4  501    0 -0.29457015642E+01 -0.83571731394E+02  0.45023128087E+03  0.45795042321E+03  0.41800000000E+01 0.  1.
         -5    1    4    4    0  501  0.67684970656E+02  0.16013943610E+02  0.25274606289E+03  0.26217502999E+03  0.41800000000E+01 0.  1.
</event>
<event>
11    1  0.8041700E-009  0.2323108E+03  0.7561462E-02  0.1033768E+00
         22   -1    0    0    0    0  0.00000000000E+00  0.00000000000E+00  0.85347167145E+03  0.85347167145E+03  0.00000000000E+00 0. -1.
         22   -1    0    0    0    0 -0.00000000000E+00 -0.00000000000E+00 -0.11542949890E+04  0.11542949890E+04  0.00000000000E+00 0.  1.
         24    2    1    2    0    0 -0.15851381502E+02  0.27413212406E+02 -0.75135327274E+03  0.75626686016E+03  0.80031698781E+02 0.  0.
         25    2    1    2    0    0 -0.67133560296E+02 -0.20402440862E+03 -0.34684488373E+03  0.42671069235E+03  0.12509103631E+03 0.  0.
        -24    2    1    2    0    0  0.82984941797E+02  0.17661119621E+03  0.79737483889E+03  0.82478910796E+03  0.79952634273E+02 0.  0.
        -13    1    3    3    0    0 -0.15051461710E+01  0.41734187045E+02 -0.69710920915E+03  0.69835897453E+03  0.00000000000E+00 0.  1.
         14    1    3    3    0    0 -0.14346235331E+02 -0.14320974639E+02 -0.54244063599E+02  0.57907885633E+02  0.00000000000E+00 0. -1.
         11    1    5    5    0    0  0.56447434898E+02  0.12781876313E+03  0.68883173816E+03  0.70286066373E+03  0.00000000000E+00 0. -1.
        -12    1    5    5    0    0  0.26537506900E+02  0.48792433079E+02  0.10854310073E+03  0.12192844424E+03  0.00000000000E+00 0.  1.
          5    1    4    4  501    0  0.25776708758E+02 -0.11920813000E+03 -0.18618243606E+03  0.22261264310E+03  0.41800000000E+01 0.  1.
         -5    1    4    4    0  501 -0.92910269054E+02 -0.84816278613E+02 -0.16066244767E+03  0.20409804924E+03  0.41800000000E+01 0.  1.
</event>
<event>
11    1  0.8041700E-009  0.3186365E+03  0.7561462E-02  0.9925984E-01
         22   -1    0    0    0    0  0.00000000000E+00  0.00000000000E+00  0.11954023705E+04  0.11954023705E+04  0.00000000000E+00 0. -1.
         22   -1    0    0    0    0 -0.00000000000E+00 -0.00000000000E+00 -0.10642977873E+03  0.10642977873E+03  0.00000000000E+00 0.  1.
        -24    2    1    2    0    0 -0.28384749643E+01  0.11210072425E+02  0.65239037697E+02  0.10464948675E+03  0.81004076275E+02 0.  0.
         25    2    1    2    0    0  0.17333447577E+03 -0.24330541896E+03  0.52712314312E+03  0.61866724118E+03  0.12509188586E+03 0.  0.
         24    2    1    2    0    0 -0.17049600080E+03  0.23209534653E+03  0.49661041099E+03  0.57851542134E+03  0.71561555673E+02 0.  0.
        -11    1    5    5    0    0 -0.37025874437E+02  0.82162057991E+02  0.10436254384E+03  0.13788785192E+03  0.00000000000E+00 0.  1.
         12    1    5    5    0    0 -0.13347012636E+03  0.14993328854E+03  0.39224786715E+03  0.44062756942E+03  0.00000000000E+00 0. -1.
         11    1    3    3    0    0 -0.23113019797E+02 -0.27596560157E+02  0.41164239899E+02  0.54683420367E+02  0.00000000000E+00 0. -1.
        -12    1    3    3    0    0  0.20274544833E+02  0.38806632582E+02  0.24074797799E+02  0.49966066381E+02  0.00000000000E+00 0.  1.
          5    1    4    4  501    0  0.12884158777E+03 -0.24187316380E+03  0.40878477689E+03  0.49216384296E+03  0.41800000000E+01 0. -1.
         -5    1    4    4    0  501  0.44492887992E+02 -0.14322551631E+01  0.11833836624E+03  0.12650339822E+03  0.41800000000E+01 0. -1.
</event>
<event>
11    1  0.8041700E-009  0.2729450E+03  0.7561462E-02  0.1012340E+00
         22   -1    0    0    0    0  0.00000000000E+00  0.00000000000E+00  0.19898764449E+04  0.19898764449E+04  0.00000000000E+00 0.  1.
         22   -1    0    0    0    0 -0.00000000000E+00 -0.00000000000E+00 -0.76371117194E+03  0.76371117194E+03  0.00000000000E+00 0.  1.
         24    2    1    2    0    0 -0.23914137257E+03  0.40092621248E+02 -0.72060479449E+03  0.76454218805E+03  0.80358404124E+02 0.  0.
         25    2    1    2    0    0  0.23711267613E+03 -0.85533931715E+02  0.10330858429E+04  0.10707250969E+04  0.12508956638E+03 0.  0.
        -24    2    1    2    0    0  0.20286964479E+01  0.45441310466E+02  0.91368422452E+03  0.91832033189E+03  0.80151990129E+02 0.  0.
        -13    1    3    3    0    0 -0.14073292437E+03 -0.11124674526E+02 -0.34123565486E+03  0.36928483117E+03  0.00000000000E+00 0.  1.
         14    1    3    3    0    0 -0.98408448200E+02  0.51217295774E+02 -0.37936913963E+03  0.39525735688E+03  0.00000000000E+00 0. -1.
         11    1    5    5    0    0  0.27947326580E+02 -0.21510194597E+01  0.14227066627E+03  0.14500559448E+03  0.00000000000E+00 0. -1.
        -12    1    5    5    0    0 -0.25918630132E+02  0.47592329926E+02  0.77141355824E+03  0.77331473741E+03  0.00000000000E+00 0.  1.
          5    1    4    4  501    0  0.23150879999E+03 -0.10923767280E+03  0.91917001610E+03  0.95415941253E+03  0.41800000000E+01 0. -1.
         -5    1    4    4    0  501  0.56038761321E+01  0.23703741088E+02  0.11391582682E+03  0.11656568435E+03  0.41800000000E+01 0. -1.
</event>
<event>
11    1  0.8041702E-009  0.1446552E+03  0.7561462E-02  0.1102469E+00
         22   -1    0    0    0    0  0.00000000000E+00  0.00000000000E+00  0.85725911539E+03  0.85725911539E+03  0.00000000000E+00 0. -1.
         22   -1    0    0    0    0 -0.00000000000E+00 -0.00000000000E+00 -0.49832599503E+03  0.49832599503E+03  0.00000000000E+00 0. -1.
        -24    2    1    2    0    0 -0.70840302289E+02 -0.65425190336E+01 -0.40329856311E+03  0.41700348834E+03  0.78619496897E+02 0.  0.
         25    2    1    2    0    0  0.16720292968E+02  0.57942110951E+02 -0.27207094464E+02  0.14150854827E+03  0.12509031468E+03 0.  0.
         24    2    1    2    0    0  0.54120009321E+02 -0.51399591918E+02  0.78943877794E+03  0.79707307382E+03  0.80876495001E+02 0.  0.
        -13    1    5    5    0    0  0.39978650299E+02 -0.17795407506E+02  0.14156519787E+03  0.14817447235E+03  0.00000000000E+00 0.  1.
         14    1    5    5    0    0  0.14141359022E+02 -0.33604184411E+02  0.64787358006E+03  0.64889860147E+03  0.00000000000E+00 0. -1.
         13    1    3    3    0    0 -0.42766573097E+02  0.43872019692E+01 -0.36840145386E+03  0.37090141348E+03  0.00000000000E+00 0. -1.
        -14    1    3    3    0    0 -0.28073729192E+02 -0.10929721003E+02 -0.34897109258E+02  0.46102074861E+02  0.00000000000E+00 0.  1.
          5    1    4    4  501    0 -0.34419786988E+02 -0.15087422448E+01  0.28761043393E+02  0.45074028625E+02  0.41800000000E+01 0.  1.
         -5    1    4    4    0  501  0.51140079957E+02  0.59450853196E+02 -0.55968137857E+02  0.96434519644E+02  0.41800000000E+01 0.  1.
</event>
<event>
11    1  0.8041700E-009  0.1647346E+03  0.7561462E-02  0.1082707E+00
         22   -1    0    0    0    0  0.00000000000E+00  0.00000000000E+00  0.36386199418E+03  0.36386199418E+03  0.00000000000E+00 0. -1.
         22   -1    0    0    0    0 -0.00000000000E+00 -0.00000000000E+00 -0.47927062272E+03  0.47927062272E+03  0.00000000000E+00 0. -1.
        -24    2    1    2    0    0  0.49696264298E+02 -0.27081928104E+02 -0.35288864529E+03  0.36635819761E+03  0.80528153255E+02 0.  0.
         25    2    1    2    0    0 -0.11847989471E+03  0.99722327162E+02 -0.83883812222E+01  0.19925155004E+03  0.12509511288E+03 0.  0.
         24    2    1    2    0    0  0.68783630416E+02 -0.72640399059E+02  0.24586839798E+03  0.27752286925E+03  0.80992953075E+02 0.  0.
        -11    1    5    5    0    0  0.93805263194E+01 -0.65649250736E+02  0.10137863977E+03  0.12114225934E+03  0.00000000000E+00 0.  1.
         12    1    5    5    0    0  0.59403104096E+02 -0.69911483224E+01  0.14448975821E+03  0.15638060992E+03  0.00000000000E+00 0. -1.
         11    1    3    3    0    0  0.70297632477E+02 -0.16790220399E+02 -0.30156038756E+03  0.31010052560E+03  0.00000000000E+00 0. -1.
        -12    1    3    3    0    0 -0.20601368178E+02 -0.10291707705E+02 -0.51328257736E+02  0.56257672015E+02  0.00000000000E+00 0.  1.
          5    1    4    4  501    0 -0.10665657736E+03  0.11123934039E+02 -0.19529776049E+02  0.10907910871E+03  0.41800000000E+01 0.  1.
         -5    1    4    4    0  501 -0.11823317350E+02  0.88598393124E+02  0.11141394827E+02  0.90172441333E+02  0.41800000000E+01 0.  1.
</event>
<event>
11    1  0.8041700E-009  0.1812097E+03  0.7561462E-02  0.1068669E+00
         22   -1    0    0    0    0  0.00000000000E+00  0.00000000000E+00  0.52450277277E+03  0.52450277277E+03  0.00000000000E+00 0. -1.
         22   -1    0    0    0    0 -0.00000000000E+00 -0.00000000000E+00 -0.30749242904E+03  0.30749242904E+03  0.00000000000E+00 0.  1.
        -24    2    1    2    0    0 -0.14147904101E+02 -0.12234699762E+03 -0.14507538116E+03  0.21677385992E+03  0.10380312669E+03 0.  0.
         25    2    1    2    0    0  0.75136855700E+02  0.13800063680E+03 -0.35805799472E+02  0.20402266643E+03  0.12511382938E+03 0.  0.
         24    2    1    2    0    0 -0.60988951600E+02 -0.15653639177E+02  0.39789152436E+03  0.41119867546E+03  0.82474219622E+02 0.  0.
        -11    1    5    5    0    0  0.73414107657E+01  0.23620878843E+02  0.84212765187E+02  0.87770336959E+02  0.00000000000E+00 0.  1.
         12    1    5    5    0    0 -0.68330362365E+02 -0.39274518020E+02  0.31367875917E+03  0.32342833850E+03  0.00000000000E+00 0. -1.
         11    1    3    3    0    0 -0.39080840454E+02 -0.12764961912E+02 -0.12491890287E+02  0.42968635842E+02  0.00000000000E+00 0. -1.
        -12    1    3    3    0    0  0.24932936354E+02 -0.10958203571E+03 -0.13258349087E+03  0.17380522408E+03  0.00000000000E+00 0.  1.
          5    1    4    4  501    0 -0.34423766810E+02  0.33303666140E+02  0.72147433115E+00  0.48084538315E+02  0.41800000000E+01 0. -1.
         -5    1    4    4    0  501  0.10956062251E+03  0.10469697066E+03 -0.36527273803E+02  0.15593812812E+03  0.41800000000E+01 0. -1.
</event>
<event>
11    1  0.8041700E-009  0.1636182E+03  0.7561462E-02  0.1083723E+00
         22   -1    0    0    0    0  0.00000000000E+00  0.00000000000E+00  0.19918501454E+04  0.19918501454E+04  0.00000000000E+00 0.  1.
         22   -1    0    0    0    0 -0.00000000000E+00 -0.00000000000E+00 -0.17037932347E+03  0.17037932347E+03  0.00000000000E+00 0. -1.
        -24    2    1    2    0    0  0.18770651092E+02  0.55706099823E+02 -0.13366181048E+03  0.16617573375E+03  0.79330876748E+02 0.  0.
         25    2    1    2    0    0 -0.82626377675E+02 -0.13017757178E+03  0.53872051406E+03  0.57414402376E+03  0.12509296251E+03 0.  0.
         24    2    1    2    0    0  0.63855726583E+02  0.74471471956E+02  0.14164121184E+04  0.14219097114E+04  0.77332944395E+02 0.  0.
        -11    1    5    5    0    0  0.15405570369E+02  0.65816176041E+02  0.55648452724E+03  0.56057482078E+03  0.00000000000E+00 0.  1.
         12    1    5    5    0    0  0.48450156214E+02  0.86552959150E+01  0.85992759114E+03  0.86133489061E+03  0.00000000000E+00 0. -1.
         11    1    3    3    0    0 -0.10524889534E+02  0.28637698571E+02 -0.12030303398E+03  0.12411168786E+03  0.00000000000E+00 0. -1.
        -12    1    3    3    0    0  0.29295540626E+02  0.27068401252E+02 -0.13358776506E+02  0.42064045890E+02  0.00000000000E+00 0.  1.
          5    1    4    4  501    0  0.10091011968E+02 -0.45774235573E+02  0.46384678753E+02  0.66076622098E+02  0.41800000000E+01 0.  1.
         -5    1    4    4    0  501 -0.92717389643E+02 -0.84403336206E+02  0.49233583530E+03  0.50806740166E+03  0.41800000000E+01 0.  1.
</event>
<event>
11    1  0.8041700E-009  0.1344614E+03  0.7561462E-02  0.1113906E+00
         22   -1    0    0    0    0  0.00000000000E+00  0.00000000000E+00  0.19350468054E+03  0.19350468054E+03  0.00000000000E+00 0.  1.
         22   -1    0    0    0    0 -0.00000000000E+00 -0.00000000000E+00 -0.79723632288E+03  0.79723632288E+03  0.00000000000E+00 0. -1.
        -24    2    1    2    0    0  0.11875063209E+02  0.23667713568E+02 -0.61705645463E+03  0.62280491733E+03  0.80163077889E+02 0.  0.
         25    2    1    2    0    0  0.37699487321E+02 -0.14091392153E+02 -0.13675893699E+03  0.18967990661E+03  0.12512250576E+03 0.  0.
         24    2    1    2    0    0 -0.49574550529E+02 -0.95763214143E+01  0.15008374928E+03  0.17825617948E+03  0.81858363855E+02 0.  0.
        -13    1    5    5    0    0 -0.30524996651E+02  0.57955372772E+01  0.15060093070E+03  0.15377257233E+03  0.00000000000E+00 0.  1.
         14    1    5    5    0    0 -0.19049553878E+02 -0.15371858692E+02 -0.51718141879E+00  0.24483607153E+02  0.00000000000E+00 0. -1.
         11    1    3    3    0    0 -0.55188931824E+01 -0.28716543936E+01 -0.53177566828E+03  0.53181205887E+03  0.00000000000E+00 0. -1.
        -12    1    3    3    0    0  0.17393956391E+02  0.26539367961E+02 -0.85280786351E+02  0.90992858463E+02  0.00000000000E+00 0.  1.
          5    1    4    4  501    0  0.52803384215E+02 -0.46516972585E+02 -0.13654107961E+03  0.15366510646E+03  0.41800000000E+01 0. -1.
         -5    1    4    4    0  501 -0.15103896895E+02  0.32425580432E+02 -0.21785737801E+00  0.36014800146E+02  0.41800000000E+01 0. -1.
</event>
<event>
11    1  0.8041700E-009  0.1376386E+03  0.7561462E-02  0.1110224E+00
         22   -1    0    0    0    0  0.00000000000E+00  0.00000000000E+00  0.18798931538E+03  0.18798931538E+03  0.00000000000E+00 0. -1.
         22   -1    0    0    0    0 -0.00000000000E+00 -0.00000000000E+00 -0.10396765638E+04  0.10396765638E+04  0.00000000000E+00 0.  1.
         24    2    1    2    0    0  0.58541054819E+02 -0.90252125268E+00 -0.94217305349E+03  0.94769959794E+03  0.83765121475E+02 0.  0.
         25    2    1    2    0    0 -0.36069639195E+02  0.10062220121E+02 -0.29088375713E+02  0.13377048787E+03  0.12508454212E+03 0.  0.
        -24    2    1    2    0    0 -0.22471415624E+02 -0.91596988686E+01  0.11957418083E+03  0.14619579333E+03  0.80537945476E+02 0.  0.
        -11    1    3    3    0    0  0.61789800008E+02  0.31549994843E+02 -0.66819445143E+03  0.67178657807E+03  0.00000000000E+00 0.  1.
         12    1    3    3    0    0 -0.32487451892E+01 -0.32452516096E+02 -0.27397860206E+03  0.27591301986E+03  0.00000000000E+00 0. -1.
         11    1    5    5    0    0 -0.10714717942E+02  0.35464870765E+01  0.12689832572E+03  0.12739924577E+03  0.00000000000E+00 0. -1.
        -12    1    5    5    0    0 -0.11756697681E+02 -0.12706185945E+02 -0.73241448930E+01  0.18796547557E+02  0.00000000000E+00 0.  1.
          5    1    4    4  501    0 -0.20560386564E+02 -0.53066373158E+02  0.98093202517E+01  0.57900471670E+02  0.41800000000E+01 0.  1.
         -5    1    4    4    0  501 -0.15509252631E+02  0.63128593279E+02 -0.38897695965E+02  0.75870016199E+02  0.41800000000E+01 0.  1.
</event>
<event>
11    1  0.8041700E-009  0.1791604E+03  0.7561462E-02  0.1070324E+00
         22   -1    0    0    0    0  0.00000000000E+00  0.00000000000E+00  0.17122480851E+03  0.17122480851E+03  0.00000000000E+00 0. -1.
         22   -1    0    0    0    0 -0.00000000000E+00 -0.00000000000E+00 -0.34700660097E+03  0.34700660097E+03  0.00000000000E+00 0.  1.
         24    2    1    2    0    0 -0.19336753394E+02  0.15658543594E+03 -0.94976605377E+02  0.20101963762E+03  0.80594232780E+02 0.  0.
         25    2    1    2    0    0 -0.36090957430E+02 -0.10386970152E+03 -0.11328972831E+03  0.20142710248E+03  0.12508734137E+03 0.  0.
        -24    2    1    2    0    0  0.55427710824E+02 -0.52715734419E+02  0.32484541221E+02  0.11578466938E+03  0.80620496549E+02 0.  0.
        -13    1    3    3    0    0  0.20678152197E+02  0.49033974455E+02 -0.61823472302E+02  0.81572411737E+02  0.00000000000E+00 0.  1.
         14    1    3    3    0    0 -0.40014905591E+02  0.10755146149E+03 -0.33153133075E+02  0.11944722588E+03  0.00000000000E+00 0. -1.
         11    1    5    5    0    0  0.53605316652E+02 -0.67033307567E+02  0.44792636312E+02  0.96816189579E+02  0.00000000000E+00 0. -1.
        -12    1    5    5    0    0  0.18223941715E+01  0.14317573148E+02 -0.12308095092E+02  0.18968479806E+02  0.00000000000E+00 0.  1.
          5    1    4    4  501    0 -0.52039573529E+02 -0.79195942216E+02 -0.13476206747E+03  0.16479806341E+03  0.41800000000E+01 0.  1.
         -5    1    4    4    0  501  0.15948616099E+02 -0.24673759306E+02  0.21472339162E+02  0.36629039066E+02  0.41800000000E+01 0.  1.
</event>
<event>
11    1  0.8041700E-009  0.2168915E+03  0.7561462E-02  0.1043182E+00
         22   -1    0    0    0    0  0.00000000000E+00  0.00000000000E+00  0.64936340891E+03  0.64936340891E+03  0.00000000000E+00 0. -1.
         22   -1    0    0    0    0 -0.00000000000E+00 -0.00000000000E+00 -0.92776414951E+03  0.92776414951E+03  0.00000000000E+00 0.  1.
        -24    2    1    2    0    0 -0.82734887461E+02  0.17046108920E+02 -0.72385009922E+03  0.73302513648E+03  0.78938286900E+02 0.  0.
         25    2    1    2    0    0  0.24927227717E+03 -0.51934701804E+02 -0.72621835787E+02  0.29283940232E+03  0.12508838115E+03 0.  0.
         24    2    1    2    0    0 -0.16653738971E+03  0.34888592884E+02  0.51807119440E+03  0.55126301963E+03  0.80877921987E+02 0.  0.
        -11    1    5    5    0    0 -0.87617314091E+02  0.34982067079E+02  0.17066378782E+03  0.19500427488E+03  0.00000000000E+00 0.  1.
         12    1    5    5    0    0 -0.78920075620E+02 -0.93474194570E-01  0.34740740657E+03  0.35625874476E+03  0.00000000000E+00 0. -1.
         13    1    3    3    0    0 -0.91552107406E+01  0.15746782552E+02 -0.28710763746E+02  0.34001279378E+02  0.00000000000E+00 0. -1.
        -14    1    3    3    0    0 -0.73579676721E+02  0.12993263679E+01 -0.69513933547E+03  0.69902385710E+03  0.00000000000E+00 0.  1.
          5    1    4    4  501    0  0.58233676509E+02  0.14951472937E+02  0.28352058814E+02  0.66603447822E+02  0.41800000000E+01 0.  1.
         -5    1    4    4    0  501  0.19103860066E+03 -0.66886174741E+02 -0.10097389460E+03  0.22623595449E+03  0.41800000000E+01 0.  1.
</event>
<event>
11    1  0.8041700E-009  0.1855813E+03  0.7561462E-02  0.1065216E+00
         22   -1    0    0    0    0  0.00000000000E+00  0.00000000000E+00  0.14284723812E+03  0.14284723812E+03  0.00000000000E+00 0. -1.
         22   -1    0    0    0    0 -0.00000000000E+00 -0.00000000000E+00 -0.17779589335E+04  0.17779589335E+04  0.00000000000E+00 0. -1.
        -24    2    1    2    0    0 -0.21745847747E+02 -0.13821664848E+03 -0.14759673955E+04  0.14846558900E+04  0.78400479938E+02 0.  0.
         25    2    1    2    0    0 -0.21169901263E+02  0.12276625343E+03 -0.24902290237E+03  0.30525392876E+03  0.12509131632E+03 0.  0.
         24    2    1    2    0    0  0.42915749010E+02  0.15450395046E+02  0.89878602493E+02  0.13089635288E+03  0.83517757335E+02 0.  0.
        -11    1    5    5    0    0  0.44822290007E+02 -0.18028409906E+02  0.17956688044E+02  0.51541283363E+02  0.00000000000E+00 0.  1.
         12    1    5    5    0    0 -0.19065409967E+01  0.33478804951E+02  0.71921914449E+02  0.79355069514E+02  0.00000000000E+00 0. -1.
         11    1    3    3    0    0 -0.44571332175E+02 -0.41313371422E+02 -0.54048954784E+03  0.54389553191E+03  0.00000000000E+00 0. -1.
        -12    1    3    3    0    0  0.22825484428E+02 -0.96903277055E+02 -0.93547784768E+03  0.94076035809E+03  0.00000000000E+00 0.  1.
          5    1    4    4  501    0  0.28168932538E+02  0.66448556932E+01 -0.38561580144E+01  0.29495511898E+02  0.41800000000E+01 0. -1.
         -5    1    4    4    0  501 -0.49338833801E+02  0.11612139774E+03 -0.24516674436E+03  0.27575841686E+03  0.41800000000E+01 0. -1.
</event>
<event>
11    1  0.8041700E-009  0.1377012E+03  0.7561462E-02  0.1110153E+00
         22   -1    0    0    0    0  0.00000000000E+00  0.00000000000E+00  0.10552500185E+04  0.10552500185E+04  0.00000000000E+00 0.  1.
         22   -1    0    0    0    0 -0.00000000000E+00 -0.00000000000E+00 -0.66177937833E+03  0.66177937833E+03  0.00000000000E+00 0.  1.
         24    2    1    2    0    0 -0.36838769038E+02 -0.44354851003E+02 -0.51615217060E+03  0.52543678055E+03  0.79663664395E+02 0.  0.
         25    2    1    2    0    0  0.89881824307E+01  0.64928014976E+02 -0.10342801376E+03  0.17504634628E+03  0.12508970687E+03 0.  0.
        -24    2    1    2    0    0  0.27850586608E+02 -0.20573163972E+02  0.10130508245E+04  0.10165462700E+04  0.76781740695E+02 0.  0.
        -13    1    3    3    0    0 -0.36028345906E+02 -0.47730098412E+02 -0.18833656976E+03  0.19760280239E+03  0.00000000000E+00 0.  1.
         14    1    3    3    0    0 -0.81042313259E+00  0.33752474085E+01 -0.32781560084E+03  0.32783397816E+03  0.00000000000E+00 0. -1.
         13    1    5    5    0    0  0.79629885369E+01 -0.23692283633E+01  0.94474203718E+01  0.12580786190E+02  0.00000000000E+00 0. -1.
        -14    1    5    5    0    0  0.19887598071E+02 -0.18203935609E+02  0.10036034041E+04  0.10039654838E+04  0.00000000000E+00 0.  1.
          5    1    4    4  501    0  0.21094719037E+02  0.98237244919E+02 -0.54186908453E+02  0.11423325658E+03  0.41800000000E+01 0.  1.
         -5    1    4    4    0  501 -0.12106536607E+02 -0.33309229944E+02 -0.49241105303E+02  0.60813089705E+02  0.41800000000E+01 0.  1.
</event>
<event>
11    1  0.8041700E-009  0.1350157E+03  0.7561462E-02  0.1113255E+00
         22   -1    0    0    0    0  0.00000000000E+00  0.00000000000E+00  0.45268967722E+03  0.45268967722E+03  0.00000000000E+00 0.  1.
         22   -1    0    0    0    0 -0.00000000000E+00 -0.00000000000E+00 -0.81807143464E+03  0.81807143464E+03  0.00000000000E+00 0. -1.
        -24    2    1    2    0    0 -0.34246038911E+02  0.38073167962E+02 -0.66978726706E+03  0.67658593606E+03  0.80815768570E+02 0.  0.
         25    2    1    2    0    0  0.47578842928E+02 -0.19736845781E+02 -0.10806438051E+03  0.17314497916E+03  0.12509190261E+03 0.  0.
         24    2    1    2    0    0 -0.13332804017E+02 -0.18336322181E+02  0.41246989015E+03  0.42103019663E+03  0.81369723007E+02 0.  0.
        -13    1    5    5    0    0 -0.19895270900E+02  0.24488150939E+02  0.27724420050E+03  0.27903375791E+03  0.00000000000E+00 0.  1.
         14    1    5    5    0    0  0.65624668828E+01 -0.42824473121E+02  0.13522568965E+03  0.14199643873E+03  0.00000000000E+00 0. -1.
         11    1    3    3    0    0 -0.47994517159E+02  0.25954678700E+02 -0.63432987979E+03  0.63667221976E+03  0.00000000000E+00 0. -1.
        -12    1    3    3    0    0  0.13748478248E+02  0.12118489262E+02 -0.35457387277E+02  0.39913716297E+02  0.00000000000E+00 0.  1.
          5    1    4    4  501    0 -0.40289852746E+02 -0.13195528925E+02 -0.57195743391E+02  0.71317737485E+02  0.41800000000E+01 0.  1.
         -5    1    4    4    0  501  0.87868695674E+02 -0.65413168560E+01 -0.50868637120E+02  0.10182724168E+03  0.41800000000E+01 0.  1.
</event>
<event>
11    1  0.8041700E-009  0.2369288E+03  0.7561462E-02  0.1031102E+00
         22   -1    0    0    0    0  0.00000000000E+00  0.00000000000E+00  0.45637985194E+03  0.45637985194E+03  0.00000000000E+00 0. -1.
         22   -1    0    0    0    0 -0.00000000000E+00 -0.00000000000E+00 -0.10322369718E+04  0.10322369718E+04  0.00000000000E+00 0. -1.
        -24    2    1    2    0    0  0.78408314878E+02  0.50709845668E+02 -0.81743453642E+03  0.82671473755E+03  0.80862127476E+02 0.  0.
         25    2    1    2    0    0  0.12714229635E+03 -0.97849969212E+02 -0.11999723491E+03  0.23619271540E+03  0.12509149622E+03 0.  0.
         24    2    1    2    0    0 -0.20555061123E+03  0.47140123544E+02  0.36157465149E+03  0.42570937078E+03  0.77582180576E+02 0.  0.
        -13    1    5    5    0    0 -0.15652875563E+03  0.30625968170E+02  0.19857441011E+03  0.25469785554E+03  0.00000000000E+00 0.  1.
         14    1    5    5    0    0 -0.49021855597E+02  0.16514155375E+02  0.16300024138E+03  0.17101151524E+03  0.00000000000E+00 0. -1.
         13    1    3    3    0    0  0.86355120833E+02  0.18480079055E+02 -0.65469985486E+03  0.66062895802E+03  0.00000000000E+00 0. -1.
        -14    1    3    3    0    0 -0.79468059548E+01  0.32229766613E+02 -0.16273468156E+03  0.16608577953E+03  0.00000000000E+00 0.  1.
          5    1    4    4  501    0  0.56608143240E+02  0.20781299353E+02 -0.61501891752E+02  0.86233980385E+02  0.41800000000E+01 0.  1.
         -5    1    4    4    0  501  0.70534153110E+02 -0.11863126857E+03 -0.58495343153E+02  0.14995873501E+03  0.41800000000E+01 0.  1.
</event>
<event>
11    1  0.8041700E-009  0.1301104E+03  0.7561462E-02  0.1119133E+00
         22   -1    0    0    0    0  0.00000000000E+00  0.00000000000E+00  0.11510247864E+04  0.11510247864E+04  0.00000000000E+00 0. -1.
         22   -1    0    0    0    0 -0.00000000000E+00 -0.00000000000E+00 -0.74250335029E+03  0.74250335029E+03  0.00000000000E+00 0. -1.
         24    2    1    2    0    0  0.35419980702E+02  0.44730994892E+01 -0.72864159366E+03  0.73407163026E+03  0.81657839175E+02 0.  0.
         25    2    1    2    0    0 -0.51794373498E+02 -0.29557807265E+02  0.68382843990E+03  0.69772942535E+03  0.12509474282E+03 0.  0.
        -24    2    1    2    0    0  0.16374392795E+02  0.25084707776E+02  0.45333458991E+03  0.46172708112E+03  0.82354621782E+02 0.  0.
        -11    1    3    3    0    0  0.28933722469E+02  0.16750625320E+02 -0.10329136139E+03  0.10856725603E+03  0.00000000000E+00 0.  1.
         12    1    3    3    0    0  0.64862582331E+01 -0.12277525830E+02 -0.62535023227E+03  0.62550437423E+03  0.00000000000E+00 0. -1.
         13    1    5    5    0    0 -0.30884946364E+02  0.10078273334E+02  0.26462828572E+03  0.26661504291E+03  0.00000000000E+00 0. -1.
        -14    1    5    5    0    0  0.47259339159E+02  0.15006434442E+02  0.18870630420E+03  0.19511203821E+03  0.00000000000E+00 0.  1.
          5    1    4    4  501    0 -0.41756804512E+02  0.45478025313E+02  0.26867252663E+03  0.27570687419E+03  0.41800000000E+01 0. -1.
         -5    1    4    4    0  501 -0.10037568986E+02 -0.75035832579E+02  0.41515591327E+03  0.42202255116E+03  0.41800000000E+01 0. -1.
</event>
<event>
11    1  0.8041700E-009  0.2100525E+03  0.7561462E-02  0.1047634E+00
         22   -1    0    0    0    0  0.00000000000E+00  0.00000000000E+00  0.26509404171E+03  0.26509404171E+03  0.00000000000E+00 0.  1.
         22   -1    0    0    0    0 -0.00000000000E+00 -0.00000000000E+00 -0.11041929575E+04  0.11041929575E+04  0.00000000000E+00 0. -1.
        -24    2    1    2    0    0 -0.80702770033E+02 -0.13888512423E+03 -0.80149584429E+03  0.82137379690E+03  0.80357395441E+02 0.  0.
         25    2    1    2    0    0  0.16793809047E+03  0.15355579937E+03 -0.21188217348E+03  0.33514863081E+03  0.12509182048E+03 0.  0.
         24    2    1    2    0    0 -0.87235320433E+02 -0.14670675139E+02  0.17427910193E+03  0.21276457154E+03  0.84085240631E+02 0.  0.
        -11    1    5    5    0    0 -0.49630131700E+02  0.39710233979E+01  0.16133338870E+03  0.16884129030E+03  0.00000000000E+00 0.  1.
         12    1    5    5    0    0 -0.37605188733E+02 -0.18641698537E+02  0.12945713230E+02  0.43923281241E+02  0.00000000000E+00 0. -1.
         13    1    3    3    0    0 -0.65602182644E+02 -0.99035259563E+02 -0.71663237966E+03  0.72641145130E+03  0.00000000000E+00 0. -1.
        -14    1    3    3    0    0 -0.15100587389E+02 -0.39849864663E+02 -0.84863464631E+02  0.94962345603E+02  0.00000000000E+00 0.  1.
          5    1    4    4  501    0  0.13279757046E+03  0.37552915045E+02 -0.12114346241E+03  0.18368077481E+03  0.41800000000E+01 0.  1.
         -5    1    4    4    0  501  0.35140520003E+02  0.11600288432E+03 -0.90738711063E+02  0.15146785600E+03  0.41800000000E+01 0.  1.
</event>
<event>
11    1  0.8041700E-009  0.1379584E+03  0.7561462E-02  0.1109860E+00
         22   -1    0    0    0    0  0.00000000000E+00  0.00000000000E+00  0.74169988803E+03  0.74169988803E+03  0.00000000000E+00 0.  1.
         22   -1    0    0    0    0 -0.00000000000E+00 -0.00000000000E+00 -0.18370402512E+03  0.18370402512E+03  0.00000000000E+00 0. -1.
        -24    2    1    2    0    0  0.32676741939E+02 -0.47246293249E+02 -0.14974516658E+03  0.17992998127E+03  0.81554899038E+02 0.  0.
         25    2    1    2    0    0 -0.44993071959E+02  0.63552731241E+02  0.38863009457E+03  0.41562460799E+03  0.12508852141E+03 0.  0.
         24    2    1    2    0    0  0.12316330020E+02 -0.16306437993E+02  0.31911093492E+03  0.32984932388E+03  0.80939457462E+02 0.  0.
        -13    1    5    5    0    0  0.82480838725E+01 -0.41803536225E+02  0.27839485357E+03  0.28163675368E+03  0.00000000000E+00 0.  1.
         14    1    5    5    0    0  0.40682461474E+01  0.25497098232E+02  0.40716081346E+02  0.48212570198E+02  0.00000000000E+00 0. -1.
         11    1    3    3    0    0  0.33105321516E+02 -0.12810919966E+02 -0.13957987088E+03  0.14402299240E+03  0.00000000000E+00 0. -1.
        -12    1    3    3    0    0 -0.42857957613E+00 -0.34435373283E+02 -0.10165295697E+02  0.35906988876E+02  0.00000000000E+00 0.  1.
          5    1    4    4  501    0  0.39577838626E+02  0.28770131697E+02  0.20021513114E+03  0.20614969543E+03  0.41800000000E+01 0. -1.
         -5    1    4    4    0  501 -0.84570910585E+02  0.34782599544E+02  0.18841496343E+03  0.20947491256E+03  0.41800000000E+01 0. -1.
</event>
<event>
11    1  0.8041700E-009  0.1336125E+03  0.7561462E-02  0.1114908E+00
         22   -1    0    0    0    0  0.00000000000E+00  0.00000000000E+00  0.28528308305E+03  0.28528308305E+03  0.00000000000E+00 0.  1.
         22   -1    0    0    0    0 -0.00000000000E+00 -0.00000000000E+00 -0.27644921176E+03  0.27644921176E+03  0.00000000000E+00 0.  1.
         24    2    1    2    0    0  0.48219336777E+02 -0.97656362586E+01 -0.20722437931E+03  0.22690048411E+03  0.78239467147E+02 0.  0.
         25    2    1    2    0    0 -0.30191804932E+02 -0.10855668516E+02  0.34050266929E+02  0.13355645739E+03  0.12509402867E+03 0.  0.
        -24    2    1    2    0    0 -0.18027531845E+02  0.20621304775E+02  0.18200798368E+03  0.20127535331E+03  0.81453248023E+02 0.  0.
        -11    1    3    3    0    0  0.35342232704E+02 -0.74256839299E+01 -0.21036384234E+03  0.21344123397E+03  0.00000000000E+00 0.  1.
         12    1    3    3    0    0  0.12877104074E+02 -0.23399523288E+01  0.31394630328E+01  0.13459250141E+02  0.00000000000E+00 0. -1.
         11    1    5    5    0    0 -0.77037223006E+01 -0.17939802759E+02  0.54634707387E+01  0.20273957996E+02  0.00000000000E+00 0. -1.
        -12    1    5    5    0    0 -0.10323809545E+02  0.38561107534E+02  0.17654451294E+03  0.18100139531E+03  0.00000000000E+00 0.  1.
          5    1    4    4  501    0 -0.58516137933E+02  0.66185906039E+01 -0.26206800021E+02  0.64592669147E+02  0.41800000000E+01 0.  1.
         -5    1    4    4    0  501  0.28324333002E+02 -0.17474259120E+02  0.60257066949E+02  0.68963788245E+02  0.41800000000E+01 0.  1.
</event>
<event>
11    1  0.8041700E-009  0.1354325E+03  0.7561462E-02  0.1112769E+00
         22   -1    0    0    0    0  0.00000000000E+00  0.00000000000E+00  0.13696771598E+04  0.13696771598E+04  0.00000000000E+00 0.  1.
         22   -1    0    0    0    0 -0.00000000000E+00 -0.00000000000E+00 -0.15579569741E+03  0.15579569741E+03  0.00000000000E+00 0. -1.
         24    2    1    2    0    0 -0.52691743351E+01  0.11405635599E+02 -0.12066171983E+03  0.14692563737E+03  0.82885701791E+02 0.  0.
         25    2    1    2    0    0 -0.37909943901E+02 -0.39893206329E+02  0.21296915013E+03  0.25304513489E+03  0.12508936657E+03 0.  0.
        -24    2    1    2    0    0  0.43179118236E+02  0.28487570729E+02  0.11215740321E+04  0.11255020850E+04  0.78426116929E+02 0.  0.
        -13    1    3    3    0    0 -0.34350817788E+02  0.86514050332E+01 -0.17122852157E+02  0.39344854272E+02  0.00000000000E+00 0.  1.
         14    1    3    3    0    0  0.29081643452E+02  0.27542305661E+01 -0.10353886767E+03  0.10758078309E+03  0.00000000000E+00 0. -1.
         13    1    5    5    0    0  0.63729580913E+01  0.45653685420E+02  0.37471647973E+03  0.37754114183E+03  0.00000000000E+00 0. -1.
        -14    1    5    5    0    0  0.36806160144E+02 -0.17166114690E+02  0.74685755237E+03  0.74796094314E+03  0.00000000000E+00 0.  1.
          5    1    4    4  501    0 -0.80293231468E+02 -0.31001690036E+02  0.17595638923E+03  0.19592404425E+03  0.41800000000E+01 0. -1.
         -5    1    4    4    0  501  0.42383287568E+02 -0.88915162928E+01  0.37012760899E+02  0.57121090644E+02  0.41800000000E+01 0. -1.
</event>
<event>
11    1  0.8041700E-009  0.1513539E+03  0.7561462E-02  0.1095503E+00
         22   -1    0    0    0    0  0.00000000000E+00  0.00000000000E+00  0.11373803504E+04  0.11373803504E+04  0.00000000000E+00 0. -1.
         22   -1    0    0    0    0 -0.00000000000E+00 -0.00000000000E+00 -0.19217130292E+03  0.19217130292E+03  0.00000000000E+00 0. -1.
        -24    2    1    2    0    0  0.43934694521E+02  0.16658963547E+02 -0.13444691369E+03  0.16373887980E+03  0.80787806670E+02 0.  0.
         25    2    1    2    0    0 -0.12308250762E+03 -0.35709354630E+02  0.16307147458E+03  0.24220723114E+03  0.12509026862E+03 0.  0.
         24    2    1    2    0    0  0.79147813100E+02  0.19050391083E+02  0.91658448654E+03  0.92360554234E+03  0.79327064403E+02 0.  0.
        -13    1    5    5    0    0  0.58777173929E+02 -0.22997903424E+02  0.40457638523E+03  0.40947003703E+03  0.00000000000E+00 0.  1.
         14    1    5    5    0    0  0.20370639171E+02  0.42048294507E+02  0.51200810131E+03  0.51413550531E+03  0.00000000000E+00 0. -1.
         13    1    3    3    0    0  0.54396718386E+02  0.58662508049E+01 -0.13786447743E+03  0.14832407089E+03  0.00000000000E+00 0. -1.
        -14    1    3    3    0    0 -0.10462023865E+02  0.10792712742E+02  0.34175637347E+01  0.15414808905E+02  0.00000000000E+00 0.  1.
          5    1    4    4  501    0 -0.78195260240E+02  0.40518589443E+02  0.61776207350E+02  0.10765698774E+03  0.41800000000E+01 0. -1.
         -5    1    4    4    0  501 -0.44887247380E+02 -0.76227944073E+02  0.10129526723E+03  0.13455024340E+03  0.41800000000E+01 0. -1.
</event>
<event>
11    1  0.8041700E-009  0.1401040E+03  0.7561462E-02  0.1107442E+00
         22   -1    0    0    0    0  0.00000000000E+00  0.00000000000E+00  0.15269851557E+04  0.15269851557E+04  0.00000000000E+00 0.  1.
         22   -1    0    0    0    0 -0.00000000000E+00 -0.00000000000E+00 -0.34845045004E+03  0.34845045004E+03  0.00000000000E+00 0.  1.
         24    2    1    2    0    0  0.53745391357E+01 -0.64358082475E+02 -0.31044378807E+03  0.32518826940E+03  0.72119460310E+02 0.  0.
         25    2    1    2    0    0 -0.36483394400E+02  0.28960786796E+02  0.12406953066E+03  0.18223749836E+03  0.12508993617E+03 0.  0.
        -24    2    1    2    0    0  0.31108855264E+02  0.35397295679E+02  0.13649089631E+04  0.13680098380E+04  0.79080401589E+02 0.  0.
        -13    1    3    3    0    0  0.32003779662E+02 -0.67609667705E+01 -0.88497039045E+02  0.94348706955E+02  0.00000000000E+00 0.  1.
         14    1    3    3    0    0 -0.26629240527E+02 -0.57597115705E+02 -0.22194674902E+03  0.23083956244E+03  0.00000000000E+00 0. -1.
         13    1    5    5    0    0  0.17844950968E+02  0.60572691857E+02  0.10012316918E+04  0.10032210096E+04  0.00000000000E+00 0. -1.
        -14    1    5    5    0    0  0.13263904296E+02 -0.25175396178E+02  0.36367727123E+03  0.36478882842E+03  0.00000000000E+00 0.  1.
          5    1    4    4  501    0  0.31798114114E+01  0.59304138504E+02  0.11746422117E+03  0.13169057559E+03  0.41800000000E+01 0.  1.
         -5    1    4    4    0  501 -0.39663205811E+02 -0.30343351708E+02  0.66053094921E+01  0.50546922770E+02  0.41800000000E+01 0.  1.
</event>
<event>
11    1  0.8041700E-009  0.1351945E+03  0.7561462E-02  0.1113046E+00
         22   -1    0    0    0    0  0.00000000000E+00  0.00000000000E+00  0.32050526934E+04  0.32050526934E+04  0.00000000000E+00 0.  1.
         22   -1    0    0    0    0 -0.00000000000E+00 -0.00000000000E+00 -0.48193839480E+03  0.48193839480E+03  0.00000000000E+00 0.  1.
         24    2    1    2    0    0 -0.28959561232E+02  0.43212195818E+02 -0.43383678101E+03  0.44404714844E+03  0.79104787654E+02 0.  0.
         25    2    1    2    0    0 -0.13307387570E+02 -0.50974359749E+02  0.66108138755E+02  0.15097507634E+03  0.12509083000E+03 0.  0.
        -24    2    1    2    0    0  0.42266948802E+02  0.77621639312E+01  0.30908429408E+04  0.30919688634E+04  0.71516579655E+02 0.  0.
        -13    1    3    3    0    0 -0.48536970539E+02  0.32488837952E+02 -0.18018056541E+03  0.18941066034E+03  0.00000000000E+00 0.  1.
         14    1    3    3    0    0  0.19577409307E+02  0.10723357866E+02 -0.25365621560E+03  0.25463648810E+03  0.00000000000E+00 0. -1.
         11    1    5    5    0    0  0.32950642313E+02 -0.23369789324E+02  0.92444117358E+03  0.92532338958E+03  0.00000000000E+00 0. -1.
        -12    1    5    5    0    0  0.93163064885E+01  0.31131953255E+02  0.21664017673E+04  0.21666454738E+04  0.00000000000E+00 0.  1.
          5    1    4    4  501    0 -0.18762885279E+02 -0.83297524832E+02  0.78129067723E+02  0.11581082476E+03  0.41800000000E+01 0. -1.
         -5    1    4    4    0  501  0.54554977093E+01  0.32323165083E+02 -0.12020928968E+02  0.35164251585E+02  0.41800000000E+01 0. -1.
</event>
<event>
11    1  0.8041700E-009  0.1331217E+03  0.7561462E-02  0.1115492E+00
         22   -1    0    0    0    0  0.00000000000E+00  0.00000000000E+00  0.11612448775E+04  0.11612448775E+04  0.00000000000E+00 0.  1.
         22   -1    0    0    0    0 -0.00000000000E+00 -0.00000000000E+00 -0.20546293141E+04  0.20546293141E+04  0.00000000000E+00 0.  1.
        -24    2    1    2    0    0 -0.29339027606E+01  0.14894668158E+02 -0.20404167516E+04  0.20419618219E+04  0.77955776286E+02 0.  0.
         25    2    1    2    0    0  0.95043917589E+01 -0.56769450234E+02  0.43459777680E+03  0.45589008216E+03  0.12508970967E+03 0.  0.
         24    2    1    2    0    0 -0.65704889983E+01  0.41874782076E+02  0.71243453824E+03  0.71802228747E+03  0.78716995186E+02 0.  0.
        -11    1    5    5    0    0  0.58950487592E+01  0.81163239280E+01  0.59753295861E+03  0.59761715415E+03  0.00000000000E+00 0.  1.
         12    1    5    5    0    0 -0.12465537758E+02  0.33758458148E+02  0.11490157964E+03  0.12040513332E+03  0.00000000000E+00 0. -1.
         11    1    3    3    0    0  0.67284855247E+01 -0.26647619013E+02 -0.37792143703E+03  0.37891949103E+03  0.00000000000E+00 0. -1.
        -12    1    3    3    0    0 -0.96623882853E+01  0.41542287171E+02 -0.16624953146E+04  0.16630423309E+04  0.00000000000E+00 0.  1.
          5    1    4    4  501    0  0.53941311984E+02 -0.43608154281E+01  0.29826417421E+03  0.30316278114E+03  0.41800000000E+01 0. -1.
         -5    1    4    4    0  501 -0.44436920225E+02 -0.52408634806E+02  0.13633360259E+03  0.15272730102E+03  0.41800000000E+01 0. -1.
</event>
<event>
11    1  0.8041700E-009  0.1941184E+03  0.7561462E-02  0.1058763E+00
         22   -1    0    0    0    0  0.00000000000E+00  0.00000000000E+00  0.46818084514E+02  0.46818084514E+02  0.00000000000E+00 0.  1.
         22   -1    0    0    0    0 -0.00000000000E+00 -0.00000000000E+00 -0.16229486304E+04  0.16229486304E+04  0.00000000000E+00 0. -1.
         24    2    1    2    0    0  0.65596713172E+02  0.16933342449E+03 -0.49760452005E+03  0.53576411176E+03  0.80350405352E+02 0.  0.
         25    2    1    2    0    0 -0.13746263142E+02 -0.13435560006E+03 -0.95817523462E+03  0.97569864836E+03  0.12509070771E+03 0.  0.
        -24    2    1    2    0    0 -0.51850450030E+02 -0.34977824428E+02 -0.12035079122E+03  0.15830395481E+03  0.81632786240E+02 0.  0.
        -13    1    3    3    0    0  0.55295275673E+01  0.20132098470E+02 -0.11701612252E+02  0.23933340620E+02  0.00000000000E+00 0.  1.
         14    1    3    3    0    0  0.60067185605E+02  0.14920132602E+03 -0.48590290780E+03  0.51183077113E+03  0.00000000000E+00 0. -1.
         11    1    5    5    0    0 -0.37571793284E+02  0.21609988052E+02 -0.63081919306E+02  0.76537309710E+02  0.00000000000E+00 0. -1.
        -12    1    5    5    0    0 -0.14278656746E+02 -0.56587812480E+02 -0.57268871915E+02  0.81766645096E+02  0.00000000000E+00 0.  1.
          5    1    4    4  501    0 -0.55758854285E+02 -0.16993836750E+02 -0.35292805587E+03  0.35773387503E+03  0.41800000000E+01 0. -1.
         -5    1    4    4    0  501  0.42012591144E+02 -0.11736176331E+03 -0.60524717874E+03  0.61796477333E+03  0.41800000000E+01 0. -1.
</event>
<event>
11    1  0.8041700E-009  0.1443512E+03  0.7561462E-02  0.1102795E+00
         22   -1    0    0    0    0  0.00000000000E+00  0.00000000000E+00  0.85747935121E+03  0.85747935121E+03  0.00000000000E+00 0. -1.
         22   -1    0    0    0    0 -0.00000000000E+00 -0.00000000000E+00 -0.23696297367E+03  0.23696297367E+03  0.00000000000E+00 0. -1.
        -24    2    1    2    0    0 -0.89509998581E+02  0.52232386033E+02 -0.10346260407E+03  0.16639676721E+03  0.79013364067E+02 0.  0.
         25    2    1    2    0    0  0.29470223777E+02 -0.81461444091E+01 -0.56028508920E+02  0.14041868981E+03  0.12507342194E+03 0.  0.
         24    2    1    2    0    0  0.60039774803E+02 -0.44086241624E+02  0.78000749053E+03  0.78762686786E+03  0.79975161359E+02 0.  0.
        -11    1    5    5    0    0  0.53144967978E+02 -0.24567885343E+02  0.23353540648E+03  0.24076285987E+03  0.00000000000E+00 0.  1.
         12    1    5    5    0    0  0.68948068249E+01 -0.19518356281E+02  0.54647208405E+03  0.54686400799E+03  0.00000000000E+00 0. -1.
         13    1    3    3    0    0 -0.94046570038E+02  0.66559570720E+02 -0.93284936731E+02  0.14824646104E+03  0.00000000000E+00 0. -1.
        -14    1    3    3    0    0  0.45365714569E+01 -0.14327184687E+02 -0.10177667338E+02  0.18150306171E+02  0.00000000000E+00 0.  1.
          5    1    4    4  501    0  0.86787891869E+01 -0.57837974524E+02  0.50760505663E+01  0.58853983452E+02  0.41800000000E+01 0.  1.
         -5    1    4    4    0  501  0.20791434590E+02  0.49691830115E+02 -0.61104559487E+02  0.81564706353E+02  0.41800000000E+01 0.  1.
</event>
<event>
11    1  0.8041700E-009  0.1670723E+03  0.7561462E-02  0.1080608E+00
         22   -1    0    0    0    0  0.00000000000E+00  0.00000000000E+00  0.22580205575E+03  0.22580205575E+03  0.00000000000E+00 0. -1.
         22   -1    0    0    0    0 -0.00000000000E+00 -0.00000000000E+00 -0.89142237668E+03  0.89142237668E+03  0.00000000000E+00 0. -1.
        -24    2    1    2    0    0 -0.25763920373E+02  0.38300239308E+01 -0.70507850682E+03  0.70992494399E+03  0.78608375203E+02 0.  0.
         25    2    1    2    0    0 -0.67232937564E+02 -0.68880607769E+02 -0.11730140042E+03  0.19665201356E+03  0.12509032686E+03 0.  0.
         24    2    1    2    0    0  0.92996857937E+02  0.65050583838E+02  0.15675958631E+03  0.21064747488E+03  0.83179304684E+02 0.  0.
        -13    1    5    5    0    0  0.22539485694E+02  0.45287415237E+01  0.98179072060E+02  0.10083485561E+03  0.00000000000E+00 0.  1.
         14    1    5    5    0    0  0.70457372243E+02  0.60521842315E+02  0.58580514250E+02  0.10981261927E+03  0.00000000000E+00 0. -1.
         11    1    3    3    0    0  0.23978948853E+01  0.16679500435E+00 -0.62421369605E+03  0.62421832403E+03  0.00000000000E+00 0. -1.
        -12    1    3    3    0    0 -0.28161815258E+02  0.36632289264E+01 -0.80864810763E+02  0.85706619958E+02  0.00000000000E+00 0.  1.
          5    1    4    4  501    0  0.29988793070E+02 -0.47366535064E+02 -0.27864769210E+02  0.62744195882E+02  0.41800000000E+01 0.  1.
         -5    1    4    4    0  501 -0.97221730634E+02 -0.21514072706E+02 -0.89436631214E+02  0.13390781768E+03  0.41800000000E+01 0.  1.
</event>
<event>
11    1  0.8041700E-009  0.1593617E+03  0.7561462E-02  0.1087679E+00
         22   -1    0    0    0    0  0.00000000000E+00  0.00000000000E+00  0.15918253903E+03  0.15918253903E+03  0.00000000000E+00 0. -1.
         22   -1    0    0    0    0 -0.00000000000E+00 -0.00000000000E+00 -0.70552963261E+03  0.70552963261E+03  0.00000000000E+00 0.  1.
        -24    2    1    2    0    0  0.13739455570E+02  0.28204669049E+02 -0.45933782168E+03  0.46596719974E+03  0.71762948733E+02 0.  0.
         25    2    1    2    0    0  0.44149190996E+02 -0.10566101264E+03 -0.17539060545E+03  0.24397272700E+03  0.12508967336E+03 0.  0.
         24    2    1    2    0    0 -0.57888646566E+02  0.77456343594E+02  0.88381333549E+02  0.15477224490E+03  0.82417274332E+02 0.  0.
        -11    1    5    5    0    0  0.15047726968E+01 -0.15612797920E+02  0.51520803126E+01  0.16509625414E+02  0.00000000000E+00 0.  1.
         12    1    5    5    0    0 -0.59393419263E+02  0.93069141514E+02  0.83229253236E+02  0.13826261949E+03  0.00000000000E+00 0. -1.
         11    1    3    3    0    0  0.90493588747E+01  0.88488512917E+01 -0.98488711448E+01  0.16037248145E+02  0.00000000000E+00 0. -1.
        -12    1    3    3    0    0  0.46900966955E+01  0.19355817757E+02 -0.44948895054E+03  0.44992995159E+03  0.00000000000E+00 0.  1.
          5    1    4    4  501    0 -0.34251622457E+02 -0.76519917027E+02 -0.10602363135E+03  0.13522926513E+03  0.41800000000E+01 0. -1.
         -5    1    4    4    0  501  0.78400813453E+02 -0.29141095616E+02 -0.69366974106E+02  0.10874346187E+03  0.41800000000E+01 0. -1.
</event>
<event>
11    1  0.8041700E-009  0.1477731E+03  0.7561462E-02  0.1099176E+00
         22   -1    0    0    0    0  0.00000000000E+00  0.00000000000E+00  0.37743713628E+03  0.37743713628E+03  0.00000000000E+00 0. -1.
         22   -1    0    0    0    0 -0.00000000000E+00 -0.00000000000E+00 -0.19086540855E+04  0.19086540855E+04  0.00000000000E+00 0.  1.
        -24    2    1    2    0    0  0.15029031112E+02  0.29902836230E+02 -0.17849028520E+04  0.17870795844E+04  0.81579400368E+02 0.  0.
         25    2    1    2    0    0 -0.88733837302E+02 -0.33823599079E+01 -0.61414659529E+02  0.16523817993E+03  0.12508701556E+03 0.  0.
         24    2    1    2    0    0  0.73704806190E+02 -0.26520476322E+02  0.31510056224E+03  0.33377345749E+03  0.77334484433E+02 0.  0.
        -11    1    5    5    0    0  0.69192304829E+02 -0.28394793986E+02  0.14103489590E+03  0.15963922211E+03  0.00000000000E+00 0.  1.
         12    1    5    5    0    0  0.45125013606E+01  0.18743176644E+01  0.17406566634E+03  0.17413423538E+03  0.00000000000E+00 0. -1.
         13    1    3    3    0    0 -0.45657578324E+01  0.26187675805E+02 -0.17103031879E+03  0.17308382494E+03  0.00000000000E+00 0. -1.
        -14    1    3    3    0    0  0.19594788945E+02  0.37151604252E+01 -0.16138725332E+04  0.16139957594E+04  0.00000000000E+00 0.  1.
          5    1    4    4  501    0  0.19454822063E+01 -0.28701401599E+02  0.24269353199E+02  0.37868578789E+02  0.41800000000E+01 0.  1.
         -5    1    4    4    0  501 -0.90679319508E+02  0.25319041691E+02 -0.85684012728E+02  0.12736960114E+03  0.41800000000E+01 0.  1.
</event>
<event>
11    1  0.8041700E-009  0.1356848E+03  0.7561462E-02  0.1112475E+00
         22   -1    0    0    0    0  0.00000000000E+00  0.00000000000E+00  0.25149080811E+04  0.25149080811E+04  0.00000000000E+00 0.  1.
         22   -1    0    0    0    0 -0.00000000000E+00 -0.00000000000E+00 -0.11636147297E+04  0.11636147297E+04  0.00000000000E+00 0.  1.
         24    2    1    2    0    0  0.54231308648E+02 -0.37541575611E+01 -0.11514771550E+04  0.11557047843E+04  0.82454724400E+02 0.  0.
         25    2    1    2    0    0  0.39577264331E+01 -0.56769068192E+01  0.43574025829E+03  0.45339966302E+03  0.12511511045E+03 0.  0.
        -24    2    1    2    0    0 -0.58189035081E+02  0.94310643803E+01  0.20670302481E+04  0.20694183634E+04  0.80021293917E+02 0.  0.
        -11    1    3    3    0    0  0.50208068274E+02 -0.36924572302E+02 -0.87480482675E+03  0.87702209724E+03  0.00000000000E+00 0.  1.
         12    1    3    3    0    0  0.40232403749E+01  0.33170414741E+02 -0.27667232821E+03  0.27868268708E+03  0.00000000000E+00 0. -1.
         11    1    5    5    0    0 -0.19844544014E+01  0.18714886747E+02  0.11289004968E+03  0.11444801599E+03  0.00000000000E+00 0. -1.
        -12    1    5    5    0    0 -0.56204580680E+02 -0.92838223668E+01  0.19541401984E+04  0.19549703474E+04  0.00000000000E+00 0.  1.
          5    1    4    4  501    0  0.51833386819E+02 -0.32614506257E+02  0.14454526760E+03  0.15703888943E+03  0.41800000000E+01 0. -1.
         -5    1    4    4    0  501 -0.47875660386E+02  0.26937599438E+02  0.29119499069E+03  0.29636077359E+03  0.41800000000E+01 0. -1.
</event>
<event>
11    1  0.8041700E-009  0.2035661E+03  0.7561462E-02  0.1052030E+00
         22   -1    0    0    0    0  0.00000000000E+00  0.00000000000E+00  0.65130138426E+03  0.65130138426E+03  0.00000000000E+00 0. -1.
         22   -1    0    0    0    0 -0.00000000000E+00 -0.00000000000E+00 -0.70550919628E+03  0.70550919628E+03  0.00000000000E+00 0.  1.
        -24    2    1    2    0    0  0.14436605990E+03  0.20091200606E+02 -0.19047362356E+03  0.25346347618E+03  0.81965339593E+02 0.  0.
         25    2    1    2    0    0 -0.16800546508E+03 -0.36141383205E+02 -0.45726935096E+03  0.50425659453E+03  0.12508963956E+03 0.  0.
         24    2    1    2    0    0  0.23639405185E+02  0.16050182599E+02  0.59353516249E+03  0.59909050983E+03  0.76216927383E+02 0.  0.
        -13    1    5    5    0    0  0.32172515786E+02  0.40728185579E+02  0.46794623036E+03  0.47081581365E+03  0.00000000000E+00 0.  1.
         14    1    5    5    0    0 -0.85331106009E+01 -0.24678002980E+02  0.12558893213E+03  0.12827469618E+03  0.00000000000E+00 0. -1.
         13    1    3    3    0    0  0.62084693891E+02  0.87149385878E+01 -0.23468935783E+02  0.66942141562E+02  0.00000000000E+00 0. -1.
        -14    1    3    3    0    0  0.82281366006E+02  0.11376262018E+02 -0.16700468777E+03  0.18652133462E+03  0.00000000000E+00 0.  1.
          5    1    4    4  501    0 -0.14573273391E+03 -0.77657427379E+02 -0.34997513520E+03  0.38699970726E+03  0.41800000000E+01 0.  1.
         -5    1    4    4    0  501 -0.22272731169E+02  0.41516044175E+02 -0.10729421576E+03  0.11725688727E+03  0.41800000000E+01 0.  1.
</event>
<event>
11    1  0.1206555E-008  0.1400331E+03  0.7561462E-02  0.1107521E+00
         22   -1    0    0    0    0  0.00000000000E+00  0.00000000000E+00  0.15345982825E+04  0.15345982825E+04  0.00000000000E+00 0.  1.
         22   -1    0    0    0    0 -0.00000000000E+00 -0.00000000000E+00 -0.53762237401E+03  0.53762237401E+03  0.00000000000E+00 0. -1.
        -24    2    1    2    0    0 -0.19162930389E+01  0.60892492643E+02 -0.40210269920E+03  0.41496864469E+03  0.82467130036E+02 0.  0.
         25    2    1    2    0    0  0.63788843882E+02 -0.72929940397E+02 -0.78156369298E+02  0.17647559448E+03  0.12508966614E+03 0.  0.
         24    2    1    2    0    0 -0.61872550843E+02  0.12037447754E+02  0.14772349770E+04  0.14807764173E+04  0.80638131285E+02 0.  0.
        -11    1    5    5    0    0 -0.69020203187E+02  0.17206675002E+02  0.14565908524E+04  0.14583267019E+04  0.00000000000E+00 0.  1.
         12    1    5    5    0    0  0.71476523446E+01 -0.51692272479E+01  0.20644124595E+02  0.22449715470E+02  0.00000000000E+00 0. -1.
         13    1    3    3    0    0 -0.17028171239E+02  0.77538569628E+02 -0.29234503584E+03  0.30293201939E+03  0.00000000000E+00 0. -1.
        -14    1    3    3    0    0  0.15111878200E+02 -0.16646076985E+02 -0.10975766336E+03  0.11203662530E+03  0.00000000000E+00 0.  1.
          5    1    4    4  501    0  0.63051492877E+02 -0.50343133232E+02 -0.11044621282E+03  0.13684209931E+03  0.41800000000E+01 0.  1.
         -5    1    4    4    0  501  0.73735100436E+00 -0.22586807164E+02  0.32289843522E+02  0.39633495166E+02  0.41800000000E+01 0.  1.
</event>
<event>
11    1  0.8041700E-009  0.1273659E+03  0.7561462E-02  0.1122548E+00
         22   -1    0    0    0    0  0.00000000000E+00  0.00000000000E+00  0.33339427594E+04  0.33339427594E+04  0.00000000000E+00 0.  1.
         22   -1    0    0    0    0 -0.00000000000E+00 -0.00000000000E+00 -0.10347737895E+03  0.10347737895E+03  0.00000000000E+00 0. -1.
         24    2    1    2    0    0  0.33767701599E+02 -0.10239553941E+02 -0.81085946909E+02  0.11480285201E+03  0.73209684522E+02 0.  0.
         25    2    1    2    0    0 -0.80760292488E+01  0.20117858850E+02  0.83564449108E+03  0.84523284767E+03  0.12508757261E+03 0.  0.
        -24    2    1    2    0    0 -0.25691672350E+02 -0.98783049093E+01  0.24759068362E+04  0.24773844386E+04  0.81002173180E+02 0.  0.
        -13    1    3    3    0    0 -0.14065369898E+02 -0.26925419826E+02 -0.26256647148E+02  0.40152514026E+02  0.00000000000E+00 0.  1.
         14    1    3    3    0    0  0.47833071496E+02  0.16685865885E+02 -0.54829299761E+02  0.74650337986E+02  0.00000000000E+00 0. -1.
         13    1    5    5    0    0  0.79858132512E+01  0.27204666472E+02  0.14275188278E+04  0.14278003610E+04  0.00000000000E+00 0. -1.
        -14    1    5    5    0    0 -0.33677485601E+02 -0.37082971381E+02  0.10483880085E+04  0.10495840777E+04  0.00000000000E+00 0.  1.
          5    1    4    4  501    0 -0.39841680670E+02 -0.64390914083E+01  0.73769021341E+03  0.73880521437E+03  0.41800000000E+01 0.  1.
         -5    1    4    4    0  501  0.31765651421E+02  0.26556950259E+02  0.97954277666E+02  0.10642763330E+03  0.41800000000E+01 0.  1.
</event>
<event>
11    1  0.8041700E-009  0.2151320E+03  0.7561462E-02  0.1044310E+00
         22   -1    0    0    0    0  0.00000000000E+00  0.00000000000E+00  0.62947217656E+03  0.62947217656E+03  0.00000000000E+00 0. -1.
         22   -1    0    0    0    0 -0.00000000000E+00 -0.00000000000E+00 -0.43207750428E+03  0.43207750428E+03  0.00000000000E+00 0. -1.
         24    2    1    2    0    0 -0.28163818544E+02  0.40380695115E+02 -0.33021674595E+03  0.34373865684E+03  0.81788530310E+02 0.  0.
         25    2    1    2    0    0  0.50191154996E+02  0.14094357804E+03  0.51875565353E+02  0.20179924981E+03  0.12509044213E+03 0.  0.
        -24    2    1    2    0    0 -0.22027336452E+02 -0.18132427315E+03  0.47573585288E+03  0.51601177419E+03  0.81116298032E+02 0.  0.
        -13    1    3    3    0    0 -0.34998462785E+02 -0.13811873747E+02 -0.93175362379E+02  0.10048536415E+03  0.00000000000E+00 0.  1.
         14    1    3    3    0    0  0.68346442408E+01  0.54192568862E+02 -0.23704138357E+03  0.24325329269E+03  0.00000000000E+00 0. -1.
         13    1    5    5    0    0  0.42499974874E+01 -0.15910278040E+03  0.43182539672E+03  0.46022269659E+03  0.00000000000E+00 0. -1.
        -14    1    5    5    0    0 -0.26277333939E+02 -0.22221492747E+02  0.43910456158E+02  0.55789077595E+02  0.00000000000E+00 0.  1.
          5    1    4    4  501    0  0.94254001802E+01 -0.32206157415E+01  0.50783765551E+02  0.51919878446E+02  0.41800000000E+01 0. -1.
         -5    1    4    4    0  501  0.40765754816E+02  0.14416419378E+03  0.10917998020E+01  0.14987937136E+03  0.41800000000E+01 0. -1.
</event>
<event>
11    1  0.8041700E-009  0.1528008E+03  0.7561462E-02  0.1094051E+00
         22   -1    0    0    0    0  0.00000000000E+00  0.00000000000E+00  0.24556341968E+04  0.24556341968E+04  0.00000000000E+00 0. -1.
         22   -1    0    0    0    0 -0.00000000000E+00 -0.00000000000E+00 -0.24434535012E+03  0.24434535012E+03  0.00000000000E+00 0.  1.
        -24    2    1    2    0    0 -0.52511701264E+02 -0.70460676668E+02 -0.22025424253E+03  0.25170839147E+03  0.84397851009E+02 0.  0.
         25    2    1    2    0    0  0.52972370153E+02  0.63225512790E+02  0.76115374197E+03  0.77576022491E+03  0.12508145416E+03 0.  0.
         24    2    1    2    0    0 -0.46066888930E+00  0.72351638779E+01  0.16703893472E+04  0.16725109305E+04  0.83902810267E+02 0.  0.
        -13    1    5    5    0    0  0.34668184640E+02 -0.19755023445E+02  0.77658314771E+03  0.77760756766E+03  0.00000000000E+00 0.  1.
         14    1    5    5    0    0 -0.35128853529E+02  0.26990187323E+02  0.89380619954E+03  0.89490336288E+03  0.00000000000E+00 0. -1.
         13    1    3    3    0    0 -0.52530462152E+01 -0.17495824362E+02 -0.15246438489E+03  0.15355483394E+03  0.00000000000E+00 0. -1.
        -14    1    3    3    0    0 -0.47258655049E+02 -0.52964852306E+02 -0.67789857638E+02  0.98153557528E+02  0.00000000000E+00 0.  1.
          5    1    4    4  501    0  0.70431329598E+02 -0.11374168223E+02  0.42444715667E+03  0.43042165965E+03  0.41800000000E+01 0.  1.
         -5    1    4    4    0  501 -0.17458959444E+02  0.74599681013E+02  0.33670658530E+03  0.34533856526E+03  0.41800000000E+01 0.  1.
</event>
<event>
11    1  0.8041700E-009  0.1839708E+03  0.7561462E-02  0.1066475E+00
         22   -1    0    0    0    0  0.00000000000E+00  0.00000000000E+00  0.19058033662E+04  0.19058033662E+04  0.00000000000E+00 0. -1.
         22   -1    0    0    0    0 -0.00000000000E+00 -0.00000000000E+00 -0.25888274420E+03  0.25888274420E+03  0.00000000000E+00 0.  1.
        -24    2    1    2    0    0 -0.11252306393E+03 -0.70924370659E+02 -0.21393382249E+03  0.26478652597E+03  0.81562967431E+02 0.  0.
         25    2    1    2    0    0  0.15399200716E+03  0.11484536668E+03  0.74573714264E+03  0.78017609307E+03  0.12509138167E+03 0.  0.
         24    2    1    2    0    0 -0.41468943230E+02 -0.43920996022E+02  0.11151173018E+04  0.11197234913E+04  0.81519157824E+02 0.  0.
        -13    1    5    5    0    0  0.73177245626E+01 -0.13793571135E+01  0.88585718143E+01  0.11572640728E+02  0.00000000000E+00 0.  1.
         14    1    5    5    0    0 -0.48786667792E+02 -0.42541638909E+02  0.11062587300E+04  0.11081508506E+04  0.00000000000E+00 0. -1.
         13    1    3    3    0    0 -0.16809636571E+02 -0.17630523989E+02  0.84056335783E-01  0.24359932743E+02  0.00000000000E+00 0. -1.
        -14    1    3    3    0    0 -0.95713427359E+02 -0.53293846671E+02 -0.21401787883E+03  0.24042659322E+03  0.00000000000E+00 0.  1.
          5    1    4    4  501    0  0.64704018609E+02  0.52270313900E+02  0.54835032168E+03  0.55463893068E+03  0.41800000000E+01 0.  1.
         -5    1    4    4    0  501  0.89287988550E+02  0.62575052781E+02  0.19738682096E+03  0.22553716239E+03  0.41800000000E+01 0.  1.
</event>
<event>
11    1  0.8041700E-009  0.1315578E+03  0.7561462E-02  0.1117370E+00
         22   -1    0    0    0    0  0.00000000000E+00  0.00000000000E+00  0.57274384524E+03  0.57274384524E+03  0.00000000000E+00 0.  1.
         22   -1    0    0    0    0 -0.00000000000E+00 -0.00000000000E+00 -0.15010281930E+03  0.15010281930E+03  0.00000000000E+00 0. -1.
         24    2    1    2    0    0  0.26333437577E+02 -0.12828383158E+02 -0.11188355481E+03  0.14125470391E+03  0.81098361204E+02 0.  0.
         25    2    1    2    0    0 -0.27813538734E+02 -0.30809170087E+02  0.25669590140E+03  0.28855435254E+03  0.12509208878E+03 0.  0.
        -24    2    1    2    0    0  0.14801011576E+01  0.43637553245E+02  0.27782867936E+03  0.29303760809E+03  0.82315478080E+02 0.  0.
        -11    1    3    3    0    0 -0.19954860140E+02  0.14047360659E+02 -0.10412316441E+02  0.26531888707E+02  0.00000000000E+00 0.  1.
         12    1    3    3    0    0  0.46288297717E+02 -0.26875743817E+02 -0.10147123837E+03  0.11472281520E+03  0.00000000000E+00 0. -1.
         11    1    5    5    0    0  0.13351467443E+02 -0.13161658378E+02  0.15376247778E+02  0.24247060231E+02  0.00000000000E+00 0. -1.
        -12    1    5    5    0    0 -0.11871366285E+02  0.56799211624E+02  0.26245243158E+03  0.26879054786E+03  0.00000000000E+00 0.  1.
          5    1    4    4  501    0  0.47574349148E+02 -0.11110658388E+02  0.63740003795E+02  0.80417820851E+02  0.41800000000E+01 0.  1.
         -5    1    4    4    0  501 -0.75387887882E+02 -0.19698511699E+02  0.19295589760E+03  0.20813653169E+03  0.41800000000E+01 0.  1.
</event>
<event>
11    1  0.8041700E-009  0.1620082E+03  0.7561462E-02  0.1085204E+00
         22   -1    0    0    0    0  0.00000000000E+00  0.00000000000E+00  0.66586608400E+03  0.66586608400E+03  0.00000000000E+00 0.  1.
         22   -1    0    0    0    0 -0.00000000000E+00 -0.00000000000E+00 -0.29081322883E+03  0.29081322883E+03  0.00000000000E+00 0. -1.
         24    2    1    2    0    0 -0.64582626697E+02 -0.69298969563E+02 -0.19217169432E+03  0.22876881793E+03  0.80199433332E+02 0.  0.
         25    2    1    2    0    0  0.10428557603E+03  0.13793785504E+03  0.80093877551E+02  0.22795864868E+03  0.12509109906E+03 0.  0.
        -24    2    1    2    0    0 -0.39702949337E+02 -0.68638885476E+02  0.48713067193E+03  0.49995184622E+03  0.79799349742E+02 0.  0.
        -13    1    3    3    0    0  0.12257494913E+02  0.83505899030E+01 -0.21049837845E+02  0.25750227311E+02  0.00000000000E+00 0.  1.
         14    1    3    3    0    0 -0.76840121610E+02 -0.77649559466E+02 -0.17112185647E+03  0.20301859062E+03  0.00000000000E+00 0. -1.
         11    1    5    5    0    0 -0.19189010704E+02 -0.13778137554E+02  0.26050687945E+02  0.35166653930E+02  0.00000000000E+00 0. -1.
        -12    1    5    5    0    0 -0.20513938633E+02 -0.54860747922E+02  0.46107998399E+03  0.46478519229E+03  0.00000000000E+00 0.  1.
          5    1    4    4  501    0  0.10438981210E+03  0.15134344950E+03  0.43802954118E+02  0.18904561292E+03  0.41800000000E+01 0. -1.
         -5    1    4    4    0  501 -0.10423606374E+00 -0.13405594461E+02  0.36290923433E+02  0.38913035754E+02  0.41800000000E+01 0. -1.
</event>
<event>
11    1  0.8041700E-009  0.1499259E+03  0.7561462E-02  0.1096955E+00
         22   -1    0    0    0    0  0.00000000000E+00  0.00000000000E+00  0.12818703293E+04  0.12818703293E+04  0.00000000000E+00 0.  1.
         22   -1    0    0    0    0 -0.00000000000E+00 -0.00000000000E+00 -0.37061872641E+03  0.37061872641E+03  0.00000000000E+00 0.  1.
        -24    2    1    2    0    0 -0.72963163307E+02 -0.68958876440E+01 -0.30727158454E+03  0.32608704137E+03  0.80905842901E+02 0.  0.
         25    2    1    2    0    0 -0.66458602165E+01  0.40213829567E+02  0.34192408776E+02  0.13593361738E+03  0.12508999948E+03 0.  0.
         24    2    1    2    0    0  0.79609023524E+02 -0.33317941923E+02  0.11843307786E+04  0.11904683969E+04  0.84427063062E+02 0.  0.
        -13    1    5    5    0    0  0.18288954664E+02 -0.19626434618E+02  0.84151794380E+03  0.84194544511E+03  0.00000000000E+00 0.  1.
         14    1    5    5    0    0  0.61320068859E+02 -0.13691507305E+02  0.34281283482E+03  0.34852295180E+03  0.00000000000E+00 0. -1.
         11    1    3    3    0    0 -0.48220554391E+02 -0.87909365721E+00 -0.57620230891E+02  0.75140439707E+02  0.00000000000E+00 0. -1.
        -12    1    3    3    0    0 -0.24742608916E+02 -0.60167939868E+01 -0.24965135365E+03  0.25094660166E+03  0.00000000000E+00 0.  1.
          5    1    4    4  501    0  0.60615331250E+00  0.31395751131E+02  0.81315023229E+02  0.87267783366E+02  0.41800000000E+01 0.  1.
         -5    1    4    4    0  501 -0.72520135290E+01  0.88180784353E+01 -0.47122614453E+02  0.48665834016E+02  0.41800000000E+01 0.  1.
</event>
<event>
11    1  0.8041700E-009  0.1315255E+03  0.7561462E-02  0.1117409E+00
         22   -1    0    0    0    0  0.00000000000E+00  0.00000000000E+00  0.25419105702E+03  0.25419105702E+03  0.00000000000E+00 0. -1.
         22   -1    0    0    0    0 -0.00000000000E+00 -0.00000000000E+00 -0.79806257304E+03  0.79806257304E+03  0.00000000000E+00 0. -1.
        -24    2    1    2    0    0  0.24267637049E+02 -0.29466996386E+02 -0.63271774878E+03  0.63918224564E+03  0.82249446459E+02 0.  0.
         25    2    1    2    0    0 -0.48424980033E+02  0.44827786551E+02 -0.12183140298E+03  0.18666551840E+03  0.12508643360E+03 0.  0.
         24    2    1    2    0    0  0.24157342984E+02 -0.15360790165E+02  0.21067763575E+03  0.22640586601E+03  0.77814001746E+02 0.  0.
        -11    1    5    5    0    0  0.16549710896E+01  0.11265834821E+02 -0.14085990013E+01  0.11473539762E+02  0.00000000000E+00 0.  1.
         12    1    5    5    0    0  0.22502371894E+02 -0.26626624986E+02  0.21208623475E+03  0.21493232625E+03  0.00000000000E+00 0. -1.
         11    1    3    3    0    0  0.96522083474E+01 -0.13324072444E+02 -0.59782831549E+03  0.59805467211E+03  0.00000000000E+00 0. -1.
        -12    1    3    3    0    0  0.14615428702E+02 -0.16142923941E+02 -0.34889433292E+02  0.41127573536E+02  0.00000000000E+00 0.  1.
          5    1    4    4  501    0 -0.96282157874E+01  0.73267118221E+02 -0.11658620130E+03  0.13809629932E+03  0.41800000000E+01 0. -1.
         -5    1    4    4    0  501 -0.38796764246E+02 -0.28439331670E+02 -0.52452016809E+01  0.48569219084E+02  0.41800000000E+01 0. -1.
</event>
<event>
11    1  0.8041700E-009  0.1393252E+03  0.7561462E-02  0.1108314E+00
         22   -1    0    0    0    0  0.00000000000E+00  0.00000000000E+00  0.49707584246E+03  0.49707584246E+03  0.00000000000E+00 0.  1.
         22   -1    0    0    0    0 -0.00000000000E+00 -0.00000000000E+00 -0.96094102128E+03  0.96094102128E+03  0.00000000000E+00 0. -1.
        -24    2    1    2    0    0 -0.95036515713E+01 -0.61010709303E+01 -0.92815588130E+03  0.93151505789E+03  0.78226725801E+02 0.  0.
         25    2    1    2    0    0  0.11410040474E+02 -0.56948005757E+02  0.19987010979E+03  0.24283454059E+03  0.12508912397E+03 0.  0.
         24    2    1    2    0    0 -0.19063889023E+01  0.63049076687E+02  0.26442059269E+03  0.28366726525E+03  0.81055827350E+02 0.  0.
        -11    1    5    5    0    0  0.81340185706E+01 -0.18084741658E+02  0.36669605359E+02  0.41687889082E+02  0.00000000000E+00 0.  1.
         12    1    5    5    0    0 -0.10040407473E+02  0.81133818345E+02  0.22775098733E+03  0.24197937617E+03  0.00000000000E+00 0. -1.
         11    1    3    3    0    0 -0.14196403372E+02 -0.31908512941E+02 -0.79684140042E+03  0.79760636187E+03  0.00000000000E+00 0. -1.
        -12    1    3    3    0    0  0.46927518010E+01  0.25807442011E+02 -0.13131448087E+03  0.13390869602E+03  0.00000000000E+00 0.  1.
          5    1    4    4  501    0 -0.34088416095E+02 -0.43616192835E+02  0.23723685459E+02  0.60371168955E+02  0.41800000000E+01 0.  1.
         -5    1    4    4    0  501  0.45498456569E+02 -0.13331812922E+02  0.17614642433E+03  0.18246337164E+03  0.41800000000E+01 0.  1.
</event>
<event>
11    1  0.8041700E-009  0.1265769E+03  0.7561462E-02  0.1123548E+00
         22   -1    0    0    0    0  0.00000000000E+00  0.00000000000E+00  0.12129160817E+03  0.12129160817E+03  0.00000000000E+00 0.  1.
         22   -1    0    0    0    0 -0.00000000000E+00 -0.00000000000E+00 -0.10107068585E+04  0.10107068585E+04  0.00000000000E+00 0. -1.
         24    2    1    2    0    0 -0.21992197134E+02  0.26073318653E+02 -0.79670724055E+03  0.80176062580E+03  0.83151664146E+02 0.  0.
         25    2    1    2    0    0  0.36477916256E+02 -0.14266436252E+02 -0.16094596892E+03  0.20757701148E+03  0.12510172343E+03 0.  0.
        -24    2    1    2    0    0 -0.14485719122E+02 -0.11806882402E+02  0.68237959134E+02  0.12266082941E+03  0.10019990756E+03 0.  0.
        -11    1    3    3    0    0 -0.32086932397E+02  0.31065577999E+02 -0.19911605701E+03  0.20406333704E+03  0.00000000000E+00 0.  1.
         12    1    3    3    0    0  0.10094735263E+02 -0.49922593460E+01 -0.59759118354E+03  0.59769728875E+03  0.00000000000E+00 0. -1.
         11    1    5    5    0    0  0.40603383015E+02 -0.13562167017E+02  0.13268003875E+02  0.44817485575E+02  0.00000000000E+00 0. -1.
        -12    1    5    5    0    0 -0.55089102136E+02  0.17552846154E+01  0.54969955259E+02  0.77843343835E+02  0.00000000000E+00 0.  1.
          5    1    4    4  501    0  0.53560886188E+02 -0.30403801256E+02 -0.20392748358E+02  0.65011508563E+02  0.41800000000E+01 0. -1.
         -5    1    4    4    0  501 -0.17082969932E+02  0.16137365004E+02 -0.14055322057E+03  0.14256550292E+03  0.41800000000E+01 0. -1.
</event>
<event>
11    1  0.8041700E-009  0.1346590E+03  0.7561462E-02  0.1113674E+00
         22   -1    0    0    0    0  0.00000000000E+00  0.00000000000E+00  0.33948362743E+03  0.33948362743E+03  0.00000000000E+00 0. -1.
         22   -1    0    0    0    0 -0.00000000000E+00 -0.00000000000E+00 -0.23254599568E+03  0.23254599568E+03  0.00000000000E+00 0. -1.
         24    2    1    2    0    0  0.28621254438E+02 -0.36364559334E+02 -0.85097883083E+02  0.12560827072E+03  0.79963933041E+02 0.  0.
         25    2    1    2    0    0 -0.55071907345E+02  0.75090100592E+02 -0.67962512264E+02  0.17011042842E+03  0.12508883482E+03 0.  0.
        -24    2    1    2    0    0  0.26450652907E+02 -0.38725541257E+02  0.25999802709E+03  0.27631092397E+03  0.80928660104E+02 0.  0.
        -13    1    3    3    0    0  0.40483747173E+02  0.78709660200E+01 -0.19537848839E+02  0.45635659615E+02  0.00000000000E+00 0.  1.
         14    1    3    3    0    0 -0.11862492735E+02 -0.44235525354E+02 -0.65560034244E+02  0.79972611107E+02  0.00000000000E+00 0. -1.
         13    1    5    5    0    0  0.69727766629E+01 -0.38480061334E+02  0.25238479625E+03  0.25539659378E+03  0.00000000000E+00 0. -1.
        -14    1    5    5    0    0  0.19477876245E+02 -0.24547992366E+00  0.76132308420E+01  0.20914330189E+02  0.00000000000E+00 0.  1.
          5    1    4    4  501    0  0.21073111366E+02  0.14601776748E+02  0.24609606673E+02  0.35782580223E+02  0.41800000000E+01 0. -1.
         -5    1    4    4    0  501 -0.76145018711E+02  0.60488323843E+02 -0.92572118937E+02  0.13432784819E+03  0.41800000000E+01 0. -1.
</event>
<event>
11    1  0.8041700E-009  0.1383344E+03  0.7561462E-02  0.1109433E+00
         22   -1    0    0    0    0  0.00000000000E+00  0.00000000000E+00  0.12690163210E+04  0.12690163210E+04  0.00000000000E+00 0.  1.
         22   -1    0    0    0    0 -0.00000000000E+00 -0.00000000000E+00 -0.45913424290E+03  0.45913424290E+03  0.00000000000E+00 0.  1.
         24    2    1    2    0    0 -0.10441176523E+02 -0.21633012809E+02 -0.43172262092E+03  0.43849590503E+03  0.72919352052E+02 0.  0.
         25    2    1    2    0    0 -0.49561051347E+02  0.18640970994E+02  0.18921533439E+03  0.23292402039E+03  0.12508945957E+03 0.  0.
        -24    2    1    2    0    0  0.60002227870E+02  0.29920418145E+01  0.10523893646E+04  0.10567306385E+04  0.74478506268E+02 0.  0.
        -11    1    3    3    0    0 -0.24018448269E+02  0.15231953914E+02 -0.29118292109E+03  0.29256861044E+03  0.00000000000E+00 0.  1.
         12    1    3    3    0    0  0.13577271745E+02 -0.36864966723E+02 -0.14053969982E+03  0.14592729459E+03  0.00000000000E+00 0. -1.
         11    1    5    5    0    0  0.59056776285E+00 -0.20680050165E+02  0.95930189649E+02  0.98135694480E+02  0.00000000000E+00 0. -1.
        -12    1    5    5    0    0  0.59411660107E+02  0.23672091979E+02  0.95645917496E+03  0.95859494400E+03  0.00000000000E+00 0.  1.
          5    1    4    4  501    0  0.81801918505E+01  0.30056249026E+02 -0.32689896151E+01  0.31598296431E+02  0.41800000000E+01 0. -1.
         -5    1    4    4    0  501 -0.57741243197E+02 -0.11415278032E+02  0.19248432400E+03  0.20132572395E+03  0.41800000000E+01 0. -1.
</event>
<event>
11    1  0.8041700E-009  0.2319619E+03  0.7561462E-02  0.1033973E+00
         22   -1    0    0    0    0  0.00000000000E+00  0.00000000000E+00  0.22364960879E+03  0.22364960879E+03  0.00000000000E+00 0.  1.
         22   -1    0    0    0    0 -0.00000000000E+00 -0.00000000000E+00 -0.45515829956E+03  0.45515829956E+03  0.00000000000E+00 0. -1.
         24    2    1    2    0    0  0.27147175382E+02 -0.14622996249E+02 -0.13751053330E+03  0.16203966807E+03  0.79980660839E+02 0.  0.
         25    2    1    2    0    0  0.15960601168E+03 -0.64241520378E+02 -0.18318934042E+03  0.28072563681E+03  0.12508995489E+03 0.  0.
        -24    2    1    2    0    0 -0.18675318706E+03  0.78864516627E+02  0.89191182954E+02  0.23604260347E+03  0.81637483279E+02 0.  0.
        -11    1    3    3    0    0  0.40282171745E+02  0.20168515483E+02 -0.97563000642E+02  0.10746144179E+03  0.00000000000E+00 0.  1.
         12    1    3    3    0    0 -0.13134996363E+02 -0.34791511732E+02 -0.39947532657E+02  0.54578226276E+02  0.00000000000E+00 0. -1.
         13    1    5    5    0    0  0.43511302029E+01  0.15331118870E+02  0.13546045483E+02  0.20915804743E+02  0.00000000000E+00 0. -1.
        -14    1    5    5    0    0 -0.19110431726E+03  0.63533397757E+02  0.75645137471E+02  0.21512679873E+03  0.00000000000E+00 0.  1.
          5    1    4    4  501    0  0.13669814250E+03 -0.84672420558E+02 -0.19006438768E+03  0.24899346343E+03  0.41800000000E+01 0.  1.
         -5    1    4    4    0  501  0.22907869178E+02  0.20430900180E+02  0.68750472620E+01  0.31732173378E+02  0.41800000000E+01 0.  1.
</event>
<event>
11    1  0.8041700E-009  0.2048436E+03  0.7561462E-02  0.1051150E+00
         22   -1    0    0    0    0  0.00000000000E+00  0.00000000000E+00  0.24854921569E+04  0.24854921569E+04  0.00000000000E+00 0.  1.
         22   -1    0    0    0    0 -0.00000000000E+00 -0.00000000000E+00 -0.15907780730E+03  0.15907780730E+03  0.00000000000E+00 0.  1.
        -24    2    1    2    0    0 -0.20399516385E+02 -0.44773177571E+02 -0.55612920805E+02  0.10910576694E+03  0.79940563674E+02 0.  0.
         25    2    1    2    0    0 -0.95415874733E+02  0.15723146563E+03  0.95840589559E+02  0.24219916030E+03  0.12509632971E+03 0.  0.
         24    2    1    2    0    0  0.11581539112E+03 -0.11245828806E+03  0.22861866809E+04  0.22932650370E+04  0.79717743585E+02 0.  0.
        -11    1    5    5    0    0  0.11394913837E+03 -0.65862629597E+02  0.18196296174E+04  0.18243832483E+04  0.00000000000E+00 0.  1.
         12    1    5    5    0    0  0.18662527463E+01 -0.46595658466E+02  0.46655706345E+03  0.46888178866E+03  0.00000000000E+00 0. -1.
         13    1    3    3    0    0 -0.13642567282E+02  0.92079077666E+01  0.13403127139E+02  0.21226140125E+02  0.00000000000E+00 0. -1.
        -14    1    3    3    0    0 -0.67569491028E+01 -0.53981085338E+02 -0.69016047944E+02  0.87879626816E+02  0.00000000000E+00 0.  1.
          5    1    4    4  501    0  0.28709556766E+00 -0.13215372822E+02  0.34658917655E+02  0.37328829016E+02  0.41800000000E+01 0. -1.
         -5    1    4    4    0  501 -0.95702970301E+02  0.17044683846E+03  0.61181671903E+02  0.20487033129E+03  0.41800000000E+01 0. -1.
</event>
<event>
11    1  0.8041700E-009  0.1540118E+03  0.7561462E-02  0.1092849E+00
         22   -1    0    0    0    0  0.00000000000E+00  0.00000000000E+00  0.15315123946E+04  0.15315123946E+04  0.00000000000E+00 0.  1.
         22   -1    0    0    0    0 -0.00000000000E+00 -0.00000000000E+00 -0.61471913563E+02  0.61471913563E+02  0.00000000000E+00 0. -1.
        -24    2    1    2    0    0 -0.21983860102E+02 -0.60439547923E+02  0.80782888266E+01  0.10303763667E+03  0.80095360423E+02 0.  0.
         25    2    1    2    0    0 -0.26903818206E+00  0.12840424680E+03  0.86323456319E+03  0.88165132057E+03  0.12508963585E+03 0.  0.
         24    2    1    2    0    0  0.22252898284E+02 -0.67964698877E+02  0.59872762898E+03  0.60829535089E+03  0.80212645085E+02 0.  0.
        -11    1    5    5    0    0  0.24013259179E+02 -0.72384584374E+02  0.30039212417E+03  0.30992191426E+03  0.00000000000E+00 0.  1.
         12    1    5    5    0    0 -0.17603608941E+01  0.44198854971E+01  0.29833550481E+03  0.29837343663E+03  0.00000000000E+00 0. -1.
         13    1    3    3    0    0 -0.19780484416E+02 -0.73740175636E+02 -0.13561010010E+02  0.77542130865E+02  0.00000000000E+00 0. -1.
        -14    1    3    3    0    0 -0.22033756859E+01  0.13300627712E+02  0.21639298837E+02  0.25495505802E+02  0.00000000000E+00 0.  1.
          5    1    4    4  501    0  0.27295385871E+02  0.13417059020E+03  0.80781442168E+03  0.81934632338E+03  0.41800000000E+01 0. -1.
         -5    1    4    4    0  501 -0.27564424053E+02 -0.57663434010E+01  0.55420141512E+02  0.62304997190E+02  0.41800000000E+01 0. -1.
</event>
<event>
11    1  0.8041700E-009  0.1539232E+03  0.7561462E-02  0.1092936E+00
         22   -1    0    0    0    0  0.00000000000E+00  0.00000000000E+00  0.26051432416E+04  0.26051432416E+04  0.00000000000E+00 0.  1.
         22   -1    0    0    0    0 -0.00000000000E+00 -0.00000000000E+00 -0.16266883098E+03  0.16266883098E+03  0.00000000000E+00 0. -1.
        -24    2    1    2    0    0 -0.88313149950E+02 -0.67970039371E+01 -0.11758611513E+03  0.16803309875E+03  0.81013678402E+02 0.  0.
         25    2    1    2    0    0  0.10541893098E+03  0.29240086322E+01  0.33175704605E+03  0.36990657622E+03  0.12508571738E+03 0.  0.
         24    2    1    2    0    0 -0.17105781035E+02  0.38729953049E+01  0.22283034798E+04  0.22298723977E+04  0.81773492794E+02 0.  0.
        -11    1    5    5    0    0 -0.26909203445E+02  0.74876467037E+01  0.21897502138E+04  0.21899283479E+04  0.00000000000E+00 0.  1.
         12    1    5    5    0    0  0.98034224105E+01 -0.36146513988E+01  0.38553265924E+02  0.39944049733E+02  0.00000000000E+00 0. -1.
         11    1    3    3    0    0 -0.18835560567E+02  0.30455209915E+02 -0.61910667237E+02  0.71520828229E+02  0.00000000000E+00 0. -1.
        -12    1    3    3    0    0 -0.69477589383E+02 -0.37252213852E+02 -0.55675447895E+02  0.96512270524E+02  0.00000000000E+00 0.  1.
          5    1    4    4  501    0  0.85903571540E+01  0.53270713041E+02  0.12018022867E+03  0.13180410793E+03  0.41800000000E+01 0.  1.
         -5    1    4    4    0  501  0.96828573830E+02 -0.50346704408E+02  0.21157681738E+03  0.23810246829E+03  0.41800000000E+01 0.  1.
</event>
<event>
11    1  0.8041700E-009  0.2020029E+03  0.7561462E-02  0.1053116E+00
         22   -1    0    0    0    0  0.00000000000E+00  0.00000000000E+00  0.44538208125E+03  0.44538208125E+03  0.00000000000E+00 0. -1.
         22   -1    0    0    0    0 -0.00000000000E+00 -0.00000000000E+00 -0.45088146368E+03  0.45088146368E+03  0.00000000000E+00 0.  1.
         24    2    1    2    0    0  0.45582864606E+00 -0.71198282771E+01 -0.28855573964E+03  0.29941423303E+03  0.79583718978E+02 0.  0.
         25    2    1    2    0    0  0.13650449400E+03 -0.73958583966E+02 -0.62017792995E+02  0.20879932637E+03  0.12509037941E+03 0.  0.
        -24    2    1    2    0    0 -0.13696032264E+03  0.81078412243E+02  0.34507415021E+03  0.38804998552E+03  0.78579788834E+02 0.  0.
        -11    1    3    3    0    0  0.15685050812E+02  0.29663829149E+02 -0.19302378776E+03  0.19591872350E+03  0.00000000000E+00 0.  1.
         12    1    3    3    0    0 -0.15229222166E+02 -0.36783657427E+02 -0.95531951886E+02  0.10349550953E+03  0.00000000000E+00 0. -1.
         11    1    5    5    0    0 -0.87515450489E+02  0.73216484402E+02  0.29891374644E+03  0.31995161427E+03  0.00000000000E+00 0. -1.
        -12    1    5    5    0    0 -0.49444872153E+02  0.78619278410E+01  0.46160403770E+02  0.68098371257E+02  0.00000000000E+00 0.  1.
          5    1    4    4  501    0  0.10648897494E+03 -0.10252057115E+03 -0.74146590724E+02  0.16542538683E+03  0.41800000000E+01 0.  1.
         -5    1    4    4    0  501  0.30015519056E+02  0.28561987186E+02  0.12128797730E+02  0.43373939533E+02  0.41800000000E+01 0.  1.
</event>
<event>
11    1  0.8041700E-009  0.1582149E+03  0.7561462E-02  0.1088768E+00
         22   -1    0    0    0    0  0.00000000000E+00  0.00000000000E+00  0.45465496818E+03  0.45465496818E+03  0.00000000000E+00 0. -1.
         22   -1    0    0    0    0 -0.00000000000E+00 -0.00000000000E+00 -0.62257240170E+03  0.62257240170E+03  0.00000000000E+00 0.  1.
        -24    2    1    2    0    0  0.95060109241E+02 -0.23302733136E+02 -0.58524751308E+03  0.59787457091E+03  0.73211400937E+02 0.  0.
         25    2    1    2    0    0 -0.49660681370E+02  0.42197119024E+02  0.22167362891E+03  0.26274290675E+03  0.12509139526E+03 0.  0.
         24    2    1    2    0    0 -0.45399427871E+02 -0.18894385888E+02  0.19565645066E+03  0.21660989222E+03  0.78868833212E+02 0.  0.
        -13    1    5    5    0    0 -0.14255496404E+01  0.23876532202E+02  0.22230769573E+02  0.32654679566E+02  0.00000000000E+00 0.  1.
         14    1    5    5    0    0 -0.43973878230E+02 -0.42770918090E+02  0.17342568109E+03  0.18395521265E+03  0.00000000000E+00 0. -1.
         11    1    3    3    0    0  0.62767851550E+02  0.18783040801E+02 -0.39382809815E+03  0.39924075030E+03  0.00000000000E+00 0. -1.
        -12    1    3    3    0    0  0.32292257691E+02 -0.42085773937E+02 -0.19141941494E+03  0.19863382061E+03  0.00000000000E+00 0.  1.
          5    1    4    4  501    0 -0.73131594912E+02 -0.10127986625E+02  0.75568411172E+02  0.10573014449E+03  0.41800000000E+01 0. -1.
         -5    1    4    4    0  501  0.23470913541E+02  0.52325105648E+02  0.14610521774E+03  0.15701276226E+03  0.41800000000E+01 0. -1.
</event>
<event>
11    1  0.8041700E-009  0.1376449E+03  0.7561462E-02  0.1110217E+00
         22   -1    0    0    0    0  0.00000000000E+00  0.00000000000E+00  0.89051569330E+02  0.89051569330E+02  0.00000000000E+00 0.  1.
         22   -1    0    0    0    0 -0.00000000000E+00 -0.00000000000E+00 -0.13177947711E+04  0.13177947711E+04  0.00000000000E+00 0. -1.
         24    2    1    2    0    0 -0.47387272379E+02 -0.15175463404E+02 -0.11258884284E+04  0.11296404549E+04  0.77375421744E+02 0.  0.
         25    2    1    2    0    0  0.85755722106E+02  0.38531246904E+02 -0.97781720936E+02  0.18451813295E+03  0.12508787142E+03 0.  0.
        -24    2    1    2    0    0 -0.38368449727E+02 -0.23355783500E+02 -0.50730523870E+01  0.92687752522E+02  0.80917569475E+02 0.  0.
        -11    1    3    3    0    0  0.20482984176E+02 -0.97361729268E+01 -0.36871822822E+03  0.36941504778E+03  0.00000000000E+00 0.  1.
         12    1    3    3    0    0 -0.67870256555E+02 -0.54392904768E+01 -0.75717020020E+03  0.76022540715E+03  0.00000000000E+00 0. -1.
         13    1    5    5    0    0 -0.51298448656E+02  0.12510540943E+02  0.55949891550E+01  0.53097536411E+02  0.00000000000E+00 0. -1.
        -14    1    5    5    0    0  0.12929998930E+02 -0.35866324444E+02 -0.10668041542E+02  0.39590216112E+02  0.00000000000E+00 0.  1.
          5    1    4    4  501    0  0.87997595044E+02  0.59160257167E+02 -0.11554795638E+03  0.15688312652E+03  0.41800000000E+01 0.  1.
         -5    1    4    4    0  501 -0.22418729384E+01 -0.20629010263E+02  0.17766235446E+02  0.27635006434E+02  0.41800000000E+01 0.  1.
</event>
<event>
11    1  0.8041700E-009  0.1667113E+03  0.7561462E-02  0.1080930E+00
         22   -1    0    0    0    0  0.00000000000E+00  0.00000000000E+00  0.92702062597E+03  0.92702062597E+03  0.00000000000E+00 0. -1.
         22   -1    0    0    0    0 -0.00000000000E+00 -0.00000000000E+00 -0.43933123438E+03  0.43933123438E+03  0.00000000000E+00 0. -1.
         24    2    1    2    0    0 -0.43307521699E+02 -0.42591527988E+02 -0.31932064377E+03  0.33491956474E+03  0.80720887103E+02 0.  0.
         25    2    1    2    0    0  0.96786395458E+02  0.13549090012E+03 -0.45648955047E+01  0.20831069330E+03  0.12508843397E+03 0.  0.
        -24    2    1    2    0    0 -0.53478873758E+02 -0.92899372135E+02  0.81157493087E+03  0.82312160231E+03  0.85936141903E+02 0.  0.
        -13    1    3    3    0    0  0.14247002042E+02 -0.31680544121E+02 -0.18718732697E+03  0.19038311196E+03  0.00000000000E+00 0.  1.
         14    1    3    3    0    0 -0.57554523741E+02 -0.10910983868E+02 -0.13213331680E+03  0.14453645277E+03  0.00000000000E+00 0. -1.
         13    1    5    5    0    0 -0.76833800443E+02 -0.69851767508E+02  0.65085268080E+03  0.65908414821E+03  0.00000000000E+00 0. -1.
        -14    1    5    5    0    0  0.23354926685E+02 -0.23047604627E+02  0.16072225007E+03  0.16403745410E+03  0.00000000000E+00 0.  1.
          5    1    4    4  501    0  0.62504615135E+02  0.14275103727E+03 -0.37172333065E+02  0.16026209876E+03  0.41800000000E+01 0. -1.
         -5    1    4    4    0  501  0.34281780322E+02 -0.72601371425E+01  0.32607437560E+02  0.48048594544E+02  0.41800000000E+01 0. -1.
</event>
<event>
11    1  0.8041700E-009  0.2196757E+03  0.7561462E-02  0.1041421E+00
         22   -1    0    0    0    0  0.00000000000E+00  0.00000000000E+00  0.16805229338E+04  0.16805229338E+04  0.00000000000E+00 0. -1.
         22   -1    0    0    0    0 -0.00000000000E+00 -0.00000000000E+00 -0.51183355489E+03  0.51183355489E+03  0.00000000000E+00 0. -1.
         24    2    1    2    0    0  0.13670454466E+03 -0.11014252143E+03 -0.41835486021E+03  0.46073151458E+03  0.80207430481E+02 0.  0.
         25    2    1    2    0    0 -0.18432678156E+03  0.16055713070E+03  0.19805117872E+03  0.33856399540E+03  0.12508539073E+03 0.  0.
        -24    2    1    2    0    0  0.47622236903E+02 -0.50414609266E+02  0.13889930604E+04  0.13930609787E+04  0.80670058201E+02 0.  0.
        -13    1    3    3    0    0  0.13518441162E+02 -0.52026214456E+02 -0.84353422923E+02  0.10002487291E+03  0.00000000000E+00 0.  1.
         14    1    3    3    0    0  0.12318610350E+03 -0.58116306976E+02 -0.33400143729E+03  0.36070664167E+03  0.00000000000E+00 0. -1.
         11    1    5    5    0    0  0.61775534052E+02 -0.48703658407E+02  0.79187495960E+03  0.79577271541E+03  0.00000000000E+00 0. -1.
        -12    1    5    5    0    0 -0.14153297149E+02 -0.17109508596E+01  0.59711810076E+03  0.59728826326E+03  0.00000000000E+00 0.  1.
          5    1    4    4  501    0 -0.28839716095E+02  0.91400284000E+02  0.32974270841E+02  0.10144218096E+03  0.41800000000E+01 0.  1.
         -5    1    4    4    0  501 -0.15548706547E+03  0.69156846699E+02  0.16507690788E+03  0.23712181445E+03  0.41800000000E+01 0.  1.
</event>
<event>
11    1  0.8041700E-009  0.1535637E+03  0.7561462E-02  0.1093292E+00
         22   -1    0    0    0    0  0.00000000000E+00  0.00000000000E+00  0.11633799485E+03  0.11633799485E+03  0.00000000000E+00 0.  1.
         22   -1    0    0    0    0 -0.00000000000E+00 -0.00000000000E+00 -0.58895547793E+03  0.58895547793E+03  0.00000000000E+00 0.  1.
         24    2    1    2    0    0  0.59719300251E+02 -0.58137491226E+01 -0.40808079984E+03  0.42070138933E+03  0.82822251157E+02 0.  0.
         25    2    1    2    0    0 -0.86316018201E+02 -0.70802595689E+02 -0.45050933452E+02  0.17361008935E+03  0.12508962373E+03 0.  0.
        -24    2    1    2    0    0  0.26596717950E+02  0.76616344811E+02 -0.19485749785E+02  0.11098199410E+03  0.73211057027E+02 0.  0.
        -13    1    3    3    0    0  0.25008432133E+02  0.40468711871E+01 -0.35842499486E+03  0.35931918371E+03  0.00000000000E+00 0.  1.
         14    1    3    3    0    0  0.34710868118E+02 -0.98606203097E+01 -0.49655804979E+02  0.61382205617E+02  0.00000000000E+00 0. -1.
         13    1    5    5    0    0 -0.95243990478E+01  0.72794860171E+01  0.20059306457E+02  0.23368373273E+02  0.00000000000E+00 0. -1.
        -14    1    5    5    0    0  0.36121116997E+02  0.69336858794E+02 -0.39545056242E+02  0.87613620823E+02  0.00000000000E+00 0.  1.
          5    1    4    4  501    0 -0.95866588620E+02 -0.73238526592E+02 -0.74788668832E+02  0.14200388015E+03  0.41800000000E+01 0.  1.
         -5    1    4    4    0  501  0.95505704194E+01  0.24359309035E+01  0.29737735380E+02  0.31606209204E+02  0.41800000000E+01 0.  1.
</event>
<event>
11    1  0.8041700E-009  0.1492113E+03  0.7561462E-02  0.1097687E+00
         22   -1    0    0    0    0  0.00000000000E+00  0.00000000000E+00  0.42877301622E+03  0.42877301622E+03  0.00000000000E+00 0. -1.
         22   -1    0    0    0    0 -0.00000000000E+00 -0.00000000000E+00 -0.52535741495E+03  0.52535741495E+03  0.00000000000E+00 0. -1.
         24    2    1    2    0    0  0.33556151015E+02  0.61238703328E+00 -0.41147232517E+03  0.42015512104E+03  0.78067029295E+02 0.  0.
         25    2    1    2    0    0 -0.11215857440E+03  0.98797728988E+00 -0.30535949617E+02  0.17076460615E+03  0.12509030572E+03 0.  0.
        -24    2    1    2    0    0  0.78602423385E+02 -0.16003643232E+01  0.34542387606E+03  0.36321070398E+03  0.80146485909E+02 0.  0.
        -11    1    3    3    0    0  0.18220301968E+02  0.30898704235E+01 -0.16194372666E+02  0.24572024929E+02  0.00000000000E+00 0.  1.
         12    1    3    3    0    0  0.15335849047E+02 -0.24774833902E+01 -0.39527795250E+03  0.39558309611E+03  0.00000000000E+00 0. -1.
         11    1    5    5    0    0  0.76097059247E+02  0.51401533974E+01  0.34746352275E+03  0.35573597407E+03  0.00000000000E+00 0. -1.
        -12    1    5    5    0    0  0.25053641383E+01 -0.67405177206E+01 -0.20396466911E+01  0.74747299103E+01  0.00000000000E+00 0.  1.
          5    1    4    4  501    0 -0.84229505834E+02 -0.41209945225E+02 -0.60628490307E+02  0.11174146713E+03  0.41800000000E+01 0. -1.
         -5    1    4    4    0  501 -0.27929068566E+02  0.42197922515E+02  0.30092540690E+02  0.59023139028E+02  0.41800000000E+01 0. -1.
</event>
<event>
11    1  0.8041700E-009  0.1280690E+03  0.7561462E-02  0.1121665E+00
         22   -1    0    0    0    0  0.00000000000E+00  0.00000000000E+00  0.45601555640E+03  0.45601555640E+03  0.00000000000E+00 0. -1.
         22   -1    0    0    0    0 -0.00000000000E+00 -0.00000000000E+00 -0.64501786311E+03  0.64501786311E+03  0.00000000000E+00 0. -1.
         24    2    1    2    0    0  0.13426193821E+02 -0.23099339403E+02 -0.58039749071E+03  0.58675370562E+03  0.81882975475E+02 0.  0.
         25    2    1    2    0    0 -0.39869215240E+02  0.29322380425E+02  0.23366328050E+02  0.13654289771E+03  0.12509444956E+03 0.  0.
        -24    2    1    2    0    0  0.26443021418E+02 -0.62230410225E+01  0.36802885594E+03  0.37773681619E+03  0.80634383963E+02 0.  0.
        -13    1    3    3    0    0  0.29559288527E+01  0.28915559559E+02 -0.12818119249E+03  0.13143540318E+03  0.00000000000E+00 0.  1.
         14    1    3    3    0    0  0.10470264969E+02 -0.52014898962E+02 -0.45221629822E+03  0.45531830244E+03  0.00000000000E+00 0. -1.
         11    1    5    5    0    0 -0.37293574056E+01 -0.17752091288E+02  0.31584479112E+03  0.31636525872E+03  0.00000000000E+00 0. -1.
        -12    1    5    5    0    0  0.30172378824E+02  0.11529050266E+02  0.52184064822E+02  0.61371557462E+02  0.00000000000E+00 0.  1.
          5    1    4    4  501    0 -0.33929774204E+01  0.61924100616E+02 -0.25577961727E+02  0.67214664017E+02  0.41800000000E+01 0. -1.
         -5    1    4    4    0  501 -0.36476237819E+02 -0.32601720190E+02  0.48944289777E+02  0.69328233690E+02  0.41800000000E+01 0. -1.
</event>
<event>
11    1  0.8041700E-009  0.1569350E+03  0.7561462E-02  0.1089996E+00
         22   -1    0    0    0    0  0.00000000000E+00  0.00000000000E+00  0.72318868054E+03  0.72318868054E+03  0.00000000000E+00 0.  1.
         22   -1    0    0    0    0 -0.00000000000E+00 -0.00000000000E+00 -0.20999197408E+04  0.20999197408E+04  0.00000000000E+00 0. -1.
        -24    2    1    2    0    0 -0.12057286949E+02  0.86135351593E+00 -0.19599971766E+04  0.19618048622E+04  0.83326254862E+02 0.  0.
         25    2    1    2    0    0  0.10525883456E+03  0.13436848608E+02 -0.82962599166E+02  0.18382108850E+03  0.12508968209E+03 0.  0.
         24    2    1    2    0    0 -0.93201547611E+02 -0.14298202124E+02  0.66622871559E+03  0.67748247061E+03  0.78935603175E+02 0.  0.
        -13    1    5    5    0    0 -0.10476595361E+03 -0.19279626992E+02  0.63389693477E+03  0.64278529305E+03  0.00000000000E+00 0.  1.
         14    1    5    5    0    0  0.11564405994E+02  0.49814248683E+01  0.32331780821E+02  0.34697177562E+02  0.00000000000E+00 0. -1.
         11    1    3    3    0    0  0.30447498619E+02  0.10928608095E+02 -0.12785343609E+04  0.12789435471E+04  0.00000000000E+00 0. -1.
        -12    1    3    3    0    0 -0.42504785568E+02 -0.10067254579E+02 -0.68146281572E+03  0.68286131507E+03  0.00000000000E+00 0.  1.
          5    1    4    4  501    0  0.89536177722E+02  0.25843983597E+02 -0.11359165879E+03  0.14698699247E+03  0.41800000000E+01 0. -1.
         -5    1    4    4    0  501  0.15722656839E+02 -0.12407134989E+02  0.30629059628E+02  0.36834096031E+02  0.41800000000E+01 0. -1.
</event>
<event>
11    1  0.8041700E-009  0.1433755E+03  0.7561462E-02  0.1103847E+00
         22   -1    0    0    0    0  0.00000000000E+00  0.00000000000E+00  0.18513563531E+04  0.18513563531E+04  0.00000000000E+00 0. -1.
         22   -1    0    0    0    0 -0.00000000000E+00 -0.00000000000E+00 -0.16063997384E+04  0.16063997384E+04  0.00000000000E+00 0. -1.
         24    2    1    2    0    0 -0.19733446003E+02  0.31951469691E+02 -0.15955441090E+04  0.15979599555E+04  0.79402205585E+02 0.  0.
         25    2    1    2    0    0 -0.53193066585E+02 -0.52325650970E+01  0.64731554038E+03  0.66145537327E+03  0.12509564316E+03 0.  0.
        -24    2    1    2    0    0  0.72926512588E+02 -0.26718904594E+02  0.11931851833E+04  0.11983407628E+04  0.79356953845E+02 0.  0.
        -13    1    3    3    0    0 -0.44149776506E+02  0.39357110128E+02 -0.89553112069E+03  0.89748212963E+03  0.00000000000E+00 0.  1.
         14    1    3    3    0    0  0.24416330503E+02 -0.74056404362E+01 -0.70001298830E+03  0.70047782584E+03  0.00000000000E+00 0. -1.
         13    1    5    5    0    0  0.84790711070E+02 -0.29751316385E+02  0.11484423909E+04  0.11519524863E+04  0.00000000000E+00 0. -1.
        -14    1    5    5    0    0 -0.11864198482E+02  0.30324117903E+01  0.44742792444E+02  0.46388276564E+02  0.00000000000E+00 0.  1.
          5    1    4    4  501    0 -0.32700267472E+02 -0.19065653543E+02  0.46444743335E+02  0.60061578577E+02  0.41800000000E+01 0. -1.
         -5    1    4    4    0  501 -0.20492799114E+02  0.13833088446E+02  0.60087079705E+03  0.60139379470E+03  0.41800000000E+01 0. -1.
</event>
<event>
11    1  0.8041700E-009  0.1363507E+03  0.7561462E-02  0.1111703E+00
         22   -1    0    0    0    0  0.00000000000E+00  0.00000000000E+00  0.26842586148E+03  0.26842586148E+03  0.00000000000E+00 0. -1.
         22   -1    0    0    0    0 -0.00000000000E+00 -0.00000000000E+00 -0.34769674394E+03  0.34769674394E+03  0.00000000000E+00 0.  1.
         24    2    1    2    0    0 -0.43505330828E+02  0.86247503551E+00 -0.15959564073E+03  0.18422644281E+03  0.81087335747E+02 0.  0.
         25    2    1    2    0    0  0.39209976764E+02  0.53408743500E+02 -0.13520862508E+03  0.19575464593E+03  0.12509433619E+03 0.  0.
        -24    2    1    2    0    0  0.42953540647E+01 -0.54271218536E+02  0.21553338335E+03  0.23614151667E+03  0.79651499234E+02 0.  0.
        -13    1    3    3    0    0  0.62776687166E+01 -0.31353462395E+02 -0.45080359411E+02  0.55269227725E+02  0.00000000000E+00 0.  1.
         14    1    3    3    0    0 -0.49782999545E+02  0.32215937430E+02 -0.11451528132E+03  0.12895721509E+03  0.00000000000E+00 0. -1.
         13    1    5    5    0    0  0.40643425674E+02 -0.36218820499E+02  0.10279383772E+03  0.11631966335E+03  0.00000000000E+00 0. -1.
        -14    1    5    5    0    0 -0.36348071609E+02 -0.18052398036E+02  0.11273954563E+03  0.11982185332E+03  0.00000000000E+00 0.  1.
          5    1    4    4  501    0 -0.33787519336E+02  0.30734910809E+02 -0.69528490307E+01  0.46390146744E+02  0.41800000000E+01 0. -1.
         -5    1    4    4    0  501  0.72997496100E+02  0.22673832691E+02 -0.12825577605E+03  0.14936449918E+03  0.41800000000E+01 0. -1.
</event>
<event>
11    1  0.8041700E-009  0.1836831E+03  0.7561462E-02  0.1066702E+00
         22   -1    0    0    0    0  0.00000000000E+00  0.00000000000E+00  0.44128566437E+03  0.44128566437E+03  0.00000000000E+00 0.  1.
         22   -1    0    0    0    0 -0.00000000000E+00 -0.00000000000E+00 -0.10134712736E+04  0.10134712736E+04  0.00000000000E+00 0.  1.
         24    2    1    2    0    0 -0.96750059652E+02 -0.97207820436E+02 -0.88424640457E+03  0.89862955330E+03  0.82664597398E+02 0.  0.
         25    2    1    2    0    0  0.74012013724E+02  0.84727225755E+02 -0.57040446618E+02  0.17764940976E+03  0.12509683960E+03 0.  0.
        -24    2    1    2    0    0  0.22738045928E+02  0.12480594681E+02  0.36910124195E+03  0.37847797493E+03  0.79605695289E+02 0.  0.
        -11    1    3    3    0    0 -0.99717191838E+02 -0.58686512489E+02 -0.54220979217E+03  0.55441778815E+03  0.00000000000E+00 0.  1.
         12    1    3    3    0    0  0.29671321862E+01 -0.38521307946E+02 -0.34203661240E+03  0.34421176514E+03  0.00000000000E+00 0. -1.
         11    1    5    5    0    0  0.62778580610E+01  0.45378080583E+02  0.17338368894E+03  0.17933344721E+03  0.00000000000E+00 0. -1.
        -12    1    5    5    0    0  0.16460187867E+02 -0.32897485902E+02  0.19571755301E+03  0.19914452772E+03  0.00000000000E+00 0.  1.
          5    1    4    4  501    0  0.35779430872E+02  0.10808208373E+03 -0.12964119980E+02  0.11466230987E+03  0.41800000000E+01 0. -1.
         -5    1    4    4    0  501  0.38232582852E+02 -0.23354857980E+02 -0.44076326638E+02  0.62987099892E+02  0.41800000000E+01 0. -1.
</event>
<event>
11    1  0.8041700E-009  0.1315744E+03  0.7561462E-02  0.1117350E+00
         22   -1    0    0    0    0  0.00000000000E+00  0.00000000000E+00  0.62634724855E+03  0.62634724855E+03  0.00000000000E+00 0. -1.
         22   -1    0    0    0    0 -0.00000000000E+00 -0.00000000000E+00 -0.39116696123E+03  0.39116696123E+03  0.00000000000E+00 0.  1.
        -24    2    1    2    0    0 -0.16698028810E+02 -0.35179491400E+02 -0.29898925502E+03  0.31303275964E+03  0.84133900477E+02 0.  0.
         25    2    1    2    0    0  0.46283068480E+02  0.38728602550E+02 -0.22953587419E+02  0.14079216656E+03  0.12511410754E+03 0.  0.
         24    2    1    2    0    0 -0.29585039670E+02 -0.35491111499E+01  0.55712312976E+03  0.56368928359E+03  0.80445981583E+02 0.  0.
        -11    1    5    5    0    0  0.23369401947E+02 -0.18846927164E+02  0.16469161927E+03  0.16740569007E+03  0.00000000000E+00 0.  1.
         12    1    5    5    0    0 -0.52954441617E+02  0.15297816014E+02  0.39243151049E+03  0.39628359351E+03  0.00000000000E+00 0. -1.
         11    1    3    3    0    0  0.33426296022E+02 -0.11641685491E+02 -0.14903300810E+03  0.15317860037E+03  0.00000000000E+00 0. -1.
        -12    1    3    3    0    0 -0.50124324833E+02 -0.23537805909E+02 -0.14995624691E+03  0.15985415927E+03  0.00000000000E+00 0.  1.
          5    1    4    4  501    0 -0.41418730033E+01 -0.70644984830E+01 -0.61656262714E+02  0.62338025174E+02  0.41800000000E+01 0.  1.
         -5    1    4    4    0  501  0.50424941483E+02  0.45793101033E+02  0.38702675294E+02  0.78454141387E+02  0.41800000000E+01 0.  1.
</event>
<event>
11    1  0.9669674E-009  0.1668626E+03  0.7561462E-02  0.1080795E+00
         22   -1    0    0    0    0  0.00000000000E+00  0.00000000000E+00  0.11131019431E+04  0.11131019431E+04  0.00000000000E+00 0. -1.
         22   -1    0    0    0    0 -0.00000000000E+00 -0.00000000000E+00 -0.13113331906E+04  0.13113331906E+04  0.00000000000E+00 0. -1.
        -24    2    1    2    0    0  0.50747456026E+02  0.10547348991E+03 -0.11163138677E+04  0.11253327004E+04  0.80728396056E+02 0.  0.
         25    2    1    2    0    0 -0.99865242425E+02 -0.14078444714E+02 -0.15185280383E+03  0.22108413549E+03  0.12509057393E+03 0.  0.
         24    2    1    2    0    0  0.49117786399E+02 -0.91395045196E+02  0.10699354240E+04  0.10780182979E+04  0.81215932395E+02 0.  0.
        -11    1    5    5    0    0  0.24671798211E+02 -0.15701694887E+02  0.85274484705E+02  0.90149756466E+02  0.00000000000E+00 0.  1.
         12    1    5    5    0    0  0.24445988188E+02 -0.75693350309E+02  0.98466093933E+03  0.98786854138E+03  0.00000000000E+00 0. -1.
         13    1    3    3    0    0  0.48615151694E+02  0.11541471578E+03 -0.88743712838E+03  0.89623024185E+03  0.00000000000E+00 0. -1.
        -14    1    3    3    0    0  0.21323043326E+01 -0.99412258682E+01 -0.22887673933E+03  0.22910245852E+03  0.00000000000E+00 0.  1.
          5    1    4    4  501    0 -0.65208791675E+02 -0.50097027210E+02 -0.27192140836E+02  0.86710919556E+02  0.41800000000E+01 0. -1.
         -5    1    4    4    0  501 -0.34656450750E+02  0.36018582496E+02 -0.12466066299E+03  0.13437321593E+03  0.41800000000E+01 0. -1.
</event>
<event>
11    1  0.8041700E-009  0.1710590E+03  0.7561462E-02  0.1077114E+00
         22   -1    0    0    0    0  0.00000000000E+00  0.00000000000E+00  0.45740802409E+03  0.45740802409E+03  0.00000000000E+00 0.  1.
         22   -1    0    0    0    0 -0.00000000000E+00 -0.00000000000E+00 -0.16209616763E+04  0.16209616763E+04  0.00000000000E+00 0.  1.
        -24    2    1    2    0    0 -0.55694257615E+02  0.10680992616E+03 -0.15370555980E+04  0.15438633171E+04  0.80397884701E+02 0.  0.
         25    2    1    2    0    0  0.44560858859E+02 -0.28444945616E+02 -0.88364143325E+01  0.13609085713E+03  0.12509138301E+03 0.  0.
         24    2    1    2    0    0  0.11133398756E+02 -0.78364980545E+02  0.38233836012E+03  0.39841552617E+03  0.79292415309E+02 0.  0.
        -11    1    5    5    0    0 -0.22779651053E+02 -0.93638116576E+01  0.18493944938E+03  0.18657222035E+03  0.00000000000E+00 0.  1.
         12    1    5    5    0    0  0.33913049809E+02 -0.69001168887E+02  0.19739891074E+03  0.21184330581E+03  0.00000000000E+00 0. -1.
         11    1    3    3    0    0 -0.70748386627E+01  0.45155418872E+01 -0.12205852629E+02  0.14813044894E+02  0.00000000000E+00 0. -1.
        -12    1    3    3    0    0 -0.48619418952E+02  0.10229438427E+03 -0.15248497454E+04  0.15290502722E+04  0.00000000000E+00 0.  1.
          5    1    4    4  501    0 -0.21654678705E+02 -0.30473583044E+02  0.39066123067E+02  0.54232819813E+02  0.41800000000E+01 0.  1.
         -5    1    4    4    0  501  0.66215537564E+02  0.20286374275E+01 -0.47902537400E+02  0.81858037321E+02  0.41800000000E+01 0.  1.
</event>
<event>
11    1  0.8041700E-009  0.1339975E+03  0.7561462E-02  0.1114453E+00
         22   -1    0    0    0    0  0.00000000000E+00  0.00000000000E+00  0.23796916755E+03  0.23796916755E+03  0.00000000000E+00 0. -1.
         22   -1    0    0    0    0 -0.00000000000E+00 -0.00000000000E+00 -0.38759827761E+03  0.38759827761E+03  0.00000000000E+00 0. -1.
        -24    2    1    2    0    0 -0.15007499194E+01 -0.18970115740E+02 -0.28926369579E+03  0.30086620068E+03  0.80528674805E+02 0.  0.
         25    2    1    2    0    0 -0.43169964701E+02 -0.19422980109E+01 -0.24099516874E+02  0.13452092470E+03  0.12509066350E+03 0.  0.
         24    2    1    2    0    0  0.44670714620E+02  0.20912413751E+02  0.16373410260E+03  0.19018031978E+03  0.83227975361E+02 0.  0.
        -11    1    5    5    0    0  0.21931518802E+02 -0.74081905381E+01  0.71042986119E+00  0.23159825444E+02  0.00000000000E+00 0.  1.
         12    1    5    5    0    0  0.22739195818E+02  0.28320604289E+02  0.16302367274E+03  0.16702049434E+03  0.00000000000E+00 0. -1.
         13    1    3    3    0    0 -0.13605511384E+02  0.23063629934E+02 -0.19638982676E+03  0.19820697520E+03  0.00000000000E+00 0. -1.
        -14    1    3    3    0    0  0.12104761465E+02 -0.42033745674E+02 -0.92873869037E+02  0.10265922548E+03  0.00000000000E+00 0.  1.
          5    1    4    4  501    0 -0.50366209257E+02  0.47010603371E+02 -0.43077330137E+02  0.81362648900E+02  0.41800000000E+01 0. -1.
         -5    1    4    4    0  501  0.71962445559E+01 -0.48952901382E+02  0.18977813264E+02  0.53158275797E+02  0.41800000000E+01 0. -1.
</event>
<event>
11    1  0.8041700E-009  0.1396758E+03  0.7561462E-02  0.1107921E+00
         22   -1    0    0    0    0  0.00000000000E+00  0.00000000000E+00  0.10263131985E+03  0.10263131985E+03  0.00000000000E+00 0. -1.
         22   -1    0    0    0    0 -0.00000000000E+00 -0.00000000000E+00 -0.47069192618E+03  0.47069192618E+03  0.00000000000E+00 0. -1.
        -24    2    1    2    0    0 -0.76908046280E+00 -0.37651566521E+02 -0.23965813383E+03  0.25620246555E+03  0.82373844712E+02 0.  0.
         25    2    1    2    0    0  0.30658169163E+02 -0.23151814350E+02 -0.16182539018E+03  0.20811171860E+03  0.12508837144E+03 0.  0.
         24    2    1    2    0    0 -0.29889088700E+02  0.60803380871E+02  0.33422917685E+02  0.10900906189E+03  0.78584193053E+02 0.  0.
        -11    1    5    5    0    0 -0.14650585126E+02  0.11109931520E+02 -0.24856871593E+02  0.30918187016E+02  0.00000000000E+00 0.  1.
         12    1    5    5    0    0 -0.15238503574E+02  0.49693449351E+02  0.58279789279E+02  0.78090874870E+02  0.00000000000E+00 0. -1.
         13    1    3    3    0    0  0.17628680508E+02 -0.32231791479E+02 -0.23303286375E+03  0.23591094579E+03  0.00000000000E+00 0. -1.
        -14    1    3    3    0    0 -0.18397760971E+02 -0.54197750415E+01 -0.66252700891E+01  0.20291519756E+02  0.00000000000E+00 0.  1.
          5    1    4    4  501    0 -0.35058084002E+02 -0.43429790285E+02 -0.42328322785E+02  0.70173892922E+02  0.41800000000E+01 0. -1.
         -5    1    4    4    0  501  0.65716253165E+02  0.20277975935E+02 -0.11949706739E+03  0.13793782568E+03  0.41800000000E+01 0. -1.
</event>
<event>
11    1  0.8041700E-009  0.1937805E+03  0.7561462E-02  0.1059011E+00
         22   -1    0    0    0    0  0.00000000000E+00  0.00000000000E+00  0.71477593382E+03  0.71477593382E+03  0.00000000000E+00 0. -1.
         22   -1    0    0    0    0 -0.00000000000E+00 -0.00000000000E+00 -0.51766438923E+03  0.51766438923E+03  0.00000000000E+00 0.  1.
         24    2    1    2    0    0  0.14491446392E+03  0.27965040650E+02 -0.38017374812E+03  0.41561780558E+03  0.80148837792E+02 0.  0.
         25    2    1    2    0    0 -0.14982367488E+03 -0.13091106958E+02 -0.35302609261E+02  0.19879723400E+03  0.12512216187E+03 0.  0.
        -24    2    1    2    0    0  0.49092109622E+01 -0.14873933692E+02  0.61258790198E+03  0.61802528347E+03  0.80286855083E+02 0.  0.
        -13    1    3    3    0    0  0.15472318711E+03  0.21654639164E+02 -0.35102599575E+03  0.38422316136E+03  0.00000000000E+00 0.  1.
         14    1    3    3    0    0 -0.98087231933E+01  0.63104014858E+01 -0.29147752370E+02  0.31394644222E+02  0.00000000000E+00 0. -1.
         13    1    5    5    0    0 -0.89904853872E+01 -0.16699296540E+02  0.59602174590E+03  0.59632341637E+03  0.00000000000E+00 0. -1.
        -14    1    5    5    0    0  0.13899696349E+02  0.18253628483E+01  0.16566156086E+02  0.21701867100E+02  0.00000000000E+00 0.  1.
          5    1    4    4  501    0 -0.11625272234E+03 -0.29676703330E+02 -0.76979799220E+02  0.14261403879E+03  0.41800000000E+01 0. -1.
         -5    1    4    4    0  501 -0.33570952540E+02  0.16585596372E+02  0.41677189959E+02  0.56183195213E+02  0.41800000000E+01 0. -1.
</event>
<event>
11    1  0.8041700E-009  0.1375178E+03  0.7561462E-02  0.1110362E+00
         22   -1    0    0    0    0  0.00000000000E+00  0.00000000000E+00  0.95563115572E+03  0.95563115572E+03  0.00000000000E+00 0. -1.
         22   -1    0    0    0    0 -0.00000000000E+00 -0.00000000000E+00 -0.24643864003E+03  0.24643864003E+03  0.00000000000E+00 0. -1.
         24    2    1    2    0    0 -0.49823572124E+02  0.21403672865E+02 -0.14399046829E+03  0.17342419765E+03  0.80013697711E+02 0.  0.
         25    2    1    2    0    0  0.53813174268E+02 -0.47312268676E+02 -0.24989838484E+02  0.14631846511E+03  0.12510112994E+03 0.  0.
        -24    2    1    2    0    0 -0.39896021439E+01  0.25908595811E+02  0.87817282247E+03  0.88232713299E+03  0.81403262975E+02 0.  0.
        -11    1    3    3    0    0 -0.23938972196E+01 -0.28007490051E+02 -0.39232664962E+02  0.48263363360E+02  0.00000000000E+00 0.  1.
         12    1    3    3    0    0 -0.47429674904E+02  0.49411162916E+02 -0.10475780333E+03  0.12516083429E+03  0.00000000000E+00 0. -1.
         13    1    5    5    0    0 -0.40450832490E+01 -0.17224985486E+02  0.64224992273E+03  0.64249360003E+03  0.00000000000E+00 0. -1.
        -14    1    5    5    0    0  0.55481105122E-01  0.43133581297E+02  0.23592289973E+03  0.23983353296E+03  0.00000000000E+00 0.  1.
          5    1    4    4  501    0  0.67602873056E+01  0.18473978664E+02  0.38482234557E+02  0.43420549843E+02  0.41800000000E+01 0. -1.
         -5    1    4    4    0  501  0.47052886962E+02 -0.65786247340E+02 -0.63472073041E+02  0.10289791527E+03  0.41800000000E+01 0. -1.
</event>
<event>
11    1  0.8041700E-009  0.1538372E+03  0.7561462E-02  0.1093021E+00
         22   -1    0    0    0    0  0.00000000000E+00  0.00000000000E+00  0.13078350763E+04  0.13078350763E+04  0.00000000000E+00 0.  1.
         22   -1    0    0    0    0 -0.00000000000E+00 -0.00000000000E+00 -0.74008624967E+03  0.74008624967E+03  0.00000000000E+00 0. -1.
        -24    2    1    2    0    0  0.81836820062E+02  0.39885575797E+02 -0.69266687283E+03  0.70447951440E+03  0.90641410052E+02 0.  0.
         25    2    1    2    0    0 -0.59342580605E+02 -0.12036080652E+02  0.80935175521E+02  0.16083183669E+03  0.12509983192E+03 0.  0.
         24    2    1    2    0    0 -0.22494239457E+02 -0.27849495145E+02  0.11794805239E+04  0.11826099748E+04  0.78169438599E+02 0.  0.
        -13    1    5    5    0    0 -0.29420679468E+02  0.13374152024E+02  0.83148598517E+03  0.83211380703E+03  0.00000000000E+00 0.  1.
         14    1    5    5    0    0  0.69264400110E+01 -0.41223647168E+02  0.34799453873E+03  0.35049616780E+03  0.00000000000E+00 0. -1.
         13    1    3    3    0    0  0.58820513467E+02 -0.19816405322E+01 -0.56684547395E+03  0.56989259606E+03  0.00000000000E+00 0. -1.
        -14    1    3    3    0    0  0.23016306595E+02  0.41867216329E+02 -0.12582139889E+03  0.13458691835E+03  0.00000000000E+00 0.  1.
          5    1    4    4  501    0  0.31940035406E+02  0.63813666654E+01  0.55030201722E+02  0.64083408179E+02  0.41800000000E+01 0. -1.
         -5    1    4    4    0  501 -0.91282616011E+02 -0.18417447317E+02  0.25904973800E+02  0.96748428509E+02  0.41800000000E+01 0. -1.
</event>
<event>
11    1  0.8041700E-009  0.1294720E+03  0.7561462E-02  0.1119919E+00
         22   -1    0    0    0    0  0.00000000000E+00  0.00000000000E+00  0.71419521412E+03  0.71419521412E+03  0.00000000000E+00 0. -1.
         22   -1    0    0    0    0 -0.00000000000E+00 -0.00000000000E+00 -0.58806849023E+03  0.58806849023E+03  0.00000000000E+00 0.  1.
        -24    2    1    2    0    0  0.29523334565E+02  0.12313102034E+02 -0.37962184667E+03  0.38911872116E+03  0.79230000132E+02 0.  0.
         25    2    1    2    0    0 -0.20582612143E+02 -0.44432984661E+02 -0.17820022720E+03  0.22316024841E+03  0.12508893416E+03 0.  0.
         24    2    1    2    0    0 -0.89407224220E+01  0.32119882627E+02  0.68394879775E+03  0.68998473478E+03  0.84742863439E+02 0.  0.
        -13    1    5    5    0    0 -0.32690651349E+02  0.17515512786E+02  0.12612937610E+03  0.13146897501E+03  0.00000000000E+00 0.  1.
         14    1    5    5    0    0  0.23749928927E+02  0.14604369842E+02  0.55781942165E+03  0.55851575977E+03  0.00000000000E+00 0. -1.
         11    1    3    3    0    0  0.38506240987E+02  0.26420674009E+02 -0.11715124950E+03  0.12611581133E+03  0.00000000000E+00 0. -1.
        -12    1    3    3    0    0 -0.89829064222E+01 -0.14107571975E+02 -0.26247059717E+03  0.26300290982E+03  0.00000000000E+00 0.  1.
          5    1    4    4  501    0  0.10873568001E+02 -0.74010611313E+02 -0.15890716843E+03  0.17568370911E+03  0.41800000000E+01 0.  1.
         -5    1    4    4    0  501 -0.31456180144E+02  0.29577626652E+02 -0.19293058770E+02  0.47476539304E+02  0.41800000000E+01 0.  1.
</event>
<event>
11    1  0.8041700E-009  0.1415313E+03  0.7561462E-02  0.1105860E+00
         22   -1    0    0    0    0  0.00000000000E+00  0.00000000000E+00  0.24200090744E+03  0.24200090744E+03  0.00000000000E+00 0.  1.
         22   -1    0    0    0    0 -0.00000000000E+00 -0.00000000000E+00 -0.12360514479E+04  0.12360514479E+04  0.00000000000E+00 0. -1.
        -24    2    1    2    0    0  0.97974821430E+01 -0.93719920316E+01 -0.10515863864E+04  0.10547674619E+04  0.80725743747E+02 0.  0.
         25    2    1    2    0    0  0.57136719426E+02  0.84552792062E+01 -0.14199509865E+03  0.19784336433E+03  0.12507314786E+03 0.  0.
         24    2    1    2    0    0 -0.66934201569E+02  0.91671282541E+00  0.19953094462E+03  0.22544152910E+03  0.80810008525E+02 0.  0.
        -11    1    5    5    0    0 -0.68273627600E+02 -0.14842811018E+02  0.85954063713E+02  0.11076867036E+03  0.00000000000E+00 0.  1.
         12    1    5    5    0    0  0.13394260314E+01  0.15759523843E+02  0.11357688091E+03  0.11467285874E+03  0.00000000000E+00 0. -1.
         13    1    3    3    0    0 -0.27849300991E+02 -0.26806874557E+02 -0.61525700342E+03  0.61647009039E+03  0.00000000000E+00 0. -1.
        -14    1    3    3    0    0  0.37646783134E+02  0.17434882525E+02 -0.43632938298E+03  0.43829737149E+03  0.00000000000E+00 0.  1.
          5    1    4    4  501    0  0.83091837764E+02  0.19971280303E+02 -0.14563867481E+03  0.16891181587E+03  0.41800000000E+01 0. -1.
         -5    1    4    4    0  501 -0.25955118338E+02 -0.11516001097E+02  0.36435761585E+01  0.28931548462E+02  0.41800000000E+01 0. -1.
</event>
<event>
11    1  0.8041700E-009  0.4990546E+03  0.7561462E-02  0.9395636E-01
         22   -1    0    0    0    0  0.00000000000E+00  0.00000000000E+00  0.31837192973E+03  0.31837192973E+03  0.00000000000E+00 0.  1.
         22   -1    0    0    0    0 -0.00000000000E+00 -0.00000000000E+00 -0.14885273739E+04  0.14885273739E+04  0.00000000000E+00 0. -1.
         24    2    1    2    0    0 -0.27940166467E+03 -0.98980912752E+01 -0.12660584088E+04  0.12987133951E+04  0.74761793435E+02 0.  0.
         25    2    1    2    0    0  0.29710524808E+02  0.10711477512E+03 -0.71847568991E+02  0.18211604893E+03  0.12509153359E+03 0.  0.
        -24    2    1    2    0    0  0.24969113986E+03 -0.97216683840E+02  0.16775053361E+03  0.32606985958E+03  0.79903459587E+02 0.  0.
        -13    1    3    3    0    0 -0.16866567408E+02 -0.15323260957E+02 -0.17616684560E+03  0.17763457128E+03  0.00000000000E+00 0.  1.
         14    1    3    3    0    0 -0.26253509726E+03  0.54251696817E+01 -0.10898915632E+04  0.11210788239E+04  0.00000000000E+00 0. -1.
         11    1    5    5    0    0  0.22336389443E+03 -0.10930295135E+03  0.13737786484E+03  0.28409724085E+03  0.00000000000E+00 0. -1.
        -12    1    5    5    0    0  0.26327245435E+02  0.12086267513E+02  0.30372668777E+02  0.41972618732E+02  0.00000000000E+00 0.  1.
          5    1    4    4  501    0  0.19684534808E+02  0.11391569198E+03 -0.68663182321E+01  0.11588306398E+03  0.41800000000E+01 0.  1.
         -5    1    4    4    0  501  0.10025990000E+02 -0.68009168661E+01 -0.64981250759E+02  0.66232984954E+02  0.41800000000E+01 0.  1.
</event>
<event>
11    1  0.8041700E-009  0.1256817E+03  0.7561462E-02  0.1124692E+00
         22   -1    0    0    0    0  0.00000000000E+00  0.00000000000E+00  0.17638586248E+04  0.17638586248E+04  0.00000000000E+00 0. -1.
         22   -1    0    0    0    0 -0.00000000000E+00 -0.00000000000E+00 -0.75231572976E+02  0.75231572976E+02  0.00000000000E+00 0. -1.
        -24    2    1    2    0    0  0.11133716380E+02  0.45930285021E+01 -0.41308511667E+02  0.90074751554E+02  0.79132876734E+02 0.  0.
         25    2    1    2    0    0 -0.10836999685E+02 -0.12088206364E+02  0.47223179055E+03  0.48878841489E+03  0.12509070801E+03 0.  0.
         24    2    1    2    0    0 -0.29671669541E+00  0.74951778624E+01  0.12577037729E+04  0.12602270313E+04  0.79354422036E+02 0.  0.
        -11    1    5    5    0    0  0.21068702150E+01  0.14406050511E+02  0.41122733237E+02  0.43623988611E+02  0.00000000000E+00 0.  1.
         12    1    5    5    0    0 -0.24035869104E+01 -0.69108726482E+01  0.12165810397E+04  0.12166030427E+04  0.00000000000E+00 0. -1.
         13    1    3    3    0    0  0.18095028495E+02  0.38870056265E+02 -0.33052845133E+02  0.54136881159E+02  0.00000000000E+00 0. -1.
        -14    1    3    3    0    0 -0.69613121147E+01 -0.34277027763E+02 -0.82556665341E+01  0.35937870395E+02  0.00000000000E+00 0.  1.
          5    1    4    4  501    0 -0.29547152094E+02  0.32724236378E+02  0.39491457900E+03  0.39739011934E+03  0.41800000000E+01 0.  1.
         -5    1    4    4    0  501  0.18710152409E+02 -0.44812442742E+02  0.77317211555E+02  0.91398295554E+02  0.41800000000E+01 0.  1.
</event>
<event>
11    1  0.8041700E-009  0.1346269E+03  0.7561462E-02  0.1113711E+00
         22   -1    0    0    0    0  0.00000000000E+00  0.00000000000E+00  0.68860776368E+03  0.68860776368E+03  0.00000000000E+00 0.  1.
         22   -1    0    0    0    0 -0.00000000000E+00 -0.00000000000E+00 -0.11464194557E+04  0.11464194557E+04  0.00000000000E+00 0. -1.
         24    2    1    2    0    0  0.69322015909E+01  0.63210227209E+02 -0.96710410008E+03  0.97254114816E+03  0.80637188894E+02 0.  0.
         25    2    1    2    0    0 -0.49186434504E+02 -0.87713830603E+02 -0.13499847368E+03  0.20972726486E+03  0.12509163166E+03 0.  0.
        -24    2    1    2    0    0  0.42254232913E+02  0.24503603394E+02  0.64429088178E+03  0.65275880631E+03  0.92722554380E+02 0.  0.
        -11    1    3    3    0    0 -0.27168760844E+02  0.10282403116E+02 -0.13664485586E+03  0.13969855409E+03  0.00000000000E+00 0.  1.
         12    1    3    3    0    0  0.34100962435E+02  0.52927824092E+02 -0.83045924421E+03  0.83284259407E+03  0.00000000000E+00 0. -1.
         13    1    5    5    0    0  0.16014997835E+02  0.88442467096E+01  0.17807046864E+02  0.25530212955E+02  0.00000000000E+00 0. -1.
        -14    1    5    5    0    0  0.26239235078E+02  0.15659356685E+02  0.62648383492E+03  0.62722859336E+03  0.00000000000E+00 0.  1.
          5    1    4    4  501    0 -0.29732114864E+02 -0.11301475766E+03 -0.67679032259E+02  0.13510831917E+03  0.41800000000E+01 0.  1.
         -5    1    4    4    0  501 -0.19454319641E+02  0.25300927053E+02 -0.67319441418E+02  0.74618945686E+02  0.41800000000E+01 0.  1.
</event>
<event>
11    1  0.8041700E-009  0.1342819E+03  0.7561462E-02  0.1114117E+00
         22   -1    0    0    0    0  0.00000000000E+00  0.00000000000E+00  0.81439984510E+03  0.81439984510E+03  0.00000000000E+00 0.  1.
         22   -1    0    0    0    0 -0.00000000000E+00 -0.00000000000E+00 -0.20120909512E+03  0.20120909512E+03  0.00000000000E+00 0.  1.
        -24    2    1    2    0    0 -0.38807583809E+02 -0.34125095046E+02 -0.12256928093E+03  0.15408156661E+03  0.77764708373E+02 0.  0.
         25    2    1    2    0    0  0.85298283473E+02  0.37443711036E+02  0.42619677023E+02  0.16168332233E+03  0.12508889315E+03 0.  0.
         24    2    1    2    0    0 -0.46490699664E+02 -0.33186159900E+01  0.69314035389E+03  0.69984405128E+03  0.84650738599E+02 0.  0.
        -11    1    5    5    0    0 -0.37795097658E+02 -0.38578878312E+02  0.52814545980E+03  0.53089963832E+03  0.00000000000E+00 0.  1.
         12    1    5    5    0    0 -0.86956020060E+01  0.35260262322E+02  0.16499489410E+03  0.16894441296E+03  0.00000000000E+00 0. -1.
         11    1    3    3    0    0 -0.11936712111E+02 -0.19127106081E+02  0.47966481185E+01  0.23050794265E+02  0.00000000000E+00 0. -1.
        -12    1    3    3    0    0 -0.26870871698E+02 -0.14997988965E+02 -0.12736592905E+03  0.13103077235E+03  0.00000000000E+00 0.  1.
          5    1    4    4  501    0 -0.17186939656E+02  0.35304246924E+02 -0.17037594215E+02  0.43006194464E+02  0.41800000000E+01 0. -1.
         -5    1    4    4    0  501  0.10248522313E+03  0.21394641123E+01  0.59657271239E+02  0.11867712786E+03  0.41800000000E+01 0. -1.
</event>
<event>
11    1  0.8041700E-009  0.1373853E+03  0.7561462E-02  0.1110514E+00
         22   -1    0    0    0    0  0.00000000000E+00  0.00000000000E+00  0.14009495132E+03  0.14009495132E+03  0.00000000000E+00 0. -1.
         22   -1    0    0    0    0 -0.00000000000E+00 -0.00000000000E+00 -0.48552483583E+03  0.48552483583E+03  0.00000000000E+00 0. -1.
         24    2    1    2    0    0 -0.10010097174E+02 -0.25137062931E+01 -0.36284778374E+03  0.37205333698E+03  0.81600555294E+02 0.  0.
         25    2    1    2    0    0  0.11201012387E+02  0.58545897136E+02 -0.32482010451E+02  0.14232112168E+03  0.12508851236E+03 0.  0.
        -24    2    1    2    0    0 -0.11909152140E+01 -0.56032190843E+02  0.49899909686E+02  0.11124532848E+03  0.82124889242E+02 0.  0.
        -13    1    3    3    0    0  0.16557341832E+02 -0.34715677458E+02 -0.21551838511E+03  0.21892349840E+03  0.00000000000E+00 0.  1.
         14    1    3    3    0    0 -0.26567439006E+02  0.32201971165E+02 -0.14732939863E+03  0.15312983858E+03  0.00000000000E+00 0. -1.
         11    1    5    5    0    0 -0.13188386982E+00 -0.76522495110E+02  0.48674055123E+02  0.90691087176E+02  0.00000000000E+00 0. -1.
        -12    1    5    5    0    0 -0.10590313442E+01  0.20490304266E+02  0.12258545632E+01  0.20554241307E+02  0.00000000000E+00 0.  1.
          5    1    4    4  501    0  0.34865717271E+02  0.21962080556E+02 -0.72187049881E+02  0.83224958959E+02  0.41800000000E+01 0. -1.
         -5    1    4    4    0  501 -0.23664704883E+02  0.36583816581E+02  0.39705039430E+02  0.59096162726E+02  0.41800000000E+01 0. -1.
</event>
<event>
11    1  0.8041700E-009  0.1267232E+03  0.7561462E-02  0.1123362E+00
         22   -1    0    0    0    0  0.00000000000E+00  0.00000000000E+00  0.39377850026E+03  0.39377850026E+03  0.00000000000E+00 0.  1.
         22   -1    0    0    0    0 -0.00000000000E+00 -0.00000000000E+00 -0.63835774825E+02  0.63835774825E+02  0.00000000000E+00 0.  1.
        -24    2    1    2    0    0  0.22615017458E+01  0.69300561115E+01  0.26600941298E+02  0.82409749166E+02  0.77657044831E+02 0.  0.
         25    2    1    2    0    0 -0.20323601165E+02 -0.13320209182E+02  0.12161643288E+03  0.17614933713E+03  0.12509018941E+03 0.  0.
         24    2    1    2    0    0  0.18062099419E+02  0.63901530705E+01  0.18172535126E+03  0.19905518880E+03  0.78941696244E+02 0.  0.
        -11    1    5    5    0    0 -0.20383793709E+02  0.97127299632E+01  0.14158511727E+03  0.14337427106E+03  0.00000000000E+00 0.  1.
         12    1    5    5    0    0  0.38445893128E+02 -0.33225768927E+01  0.40140233986E+02  0.55680917737E+02  0.00000000000E+00 0. -1.
         11    1    3    3    0    0 -0.10313793839E+02  0.33719170960E+02  0.36934346304E+02  0.51063712855E+02  0.00000000000E+00 0. -1.
        -12    1    3    3    0    0  0.12575295585E+02 -0.26789114849E+02 -0.10333405006E+02  0.31346036311E+02  0.00000000000E+00 0.  1.
          5    1    4    4  501    0 -0.69148933868E+01  0.12600179035E+02  0.14039818092E+03  0.14119384501E+03  0.41800000000E+01 0.  1.
         -5    1    4    4    0  501 -0.13408707778E+02 -0.25920388217E+02 -0.18781748040E+02  0.34955492115E+02  0.41800000000E+01 0.  1.
</event>
<event>
11    1  0.8041700E-009  0.1488414E+03  0.7561462E-02  0.1098069E+00
         22   -1    0    0    0    0  0.00000000000E+00  0.00000000000E+00  0.40838010427E+03  0.40838010427E+03  0.00000000000E+00 0.  1.
         22   -1    0    0    0    0 -0.00000000000E+00 -0.00000000000E+00 -0.87959790111E+03  0.87959790111E+03  0.00000000000E+00 0.  1.
        -24    2    1    2    0    0  0.76945207379E+02 -0.30247845903E+02 -0.82758668883E+03  0.83575649009E+03  0.82180813322E+02 0.  0.
         25    2    1    2    0    0 -0.29082942536E+02  0.70249037102E+01  0.63278320085E+02  0.14334252124E+03  0.12509102999E+03 0.  0.
         24    2    1    2    0    0 -0.47862264843E+02  0.23222942193E+02  0.29309057191E+03  0.30887899405E+03  0.81694847951E+02 0.  0.
        -13    1    5    5    0    0 -0.57572425900E+01  0.18559008212E+02  0.24079648561E+03  0.24157924189E+03  0.00000000000E+00 0.  1.
         14    1    5    5    0    0 -0.42105022253E+02  0.46639339812E+01  0.52294086299E+02  0.67299752161E+02  0.00000000000E+00 0. -1.
         13    1    3    3    0    0  0.25062890038E+02  0.25112866041E+02 -0.39283178622E+03  0.39443075027E+03  0.00000000000E+00 0. -1.
        -14    1    3    3    0    0  0.51882317341E+02 -0.55360711944E+02 -0.43475490262E+03  0.44132573982E+03  0.00000000000E+00 0.  1.
          5    1    4    4  501    0  0.78691866668E+01 -0.44006759830E+02 -0.10622421587E+02  0.46139215965E+02  0.41800000000E+01 0.  1.
         -5    1    4    4    0  501 -0.36952129203E+02  0.51031663540E+02  0.73900741672E+02  0.97203305273E+02  0.41800000000E+01 0.  1.
</event>
<event>
11    1  0.8041700E-009  0.1572890E+03  0.7561462E-02  0.1089655E+00
         22   -1    0    0    0    0  0.00000000000E+00  0.00000000000E+00  0.15268362382E+04  0.15268362382E+04  0.00000000000E+00 0.  1.
         22   -1    0    0    0    0 -0.00000000000E+00 -0.00000000000E+00 -0.10232086210E+03  0.10232086210E+03  0.00000000000E+00 0. -1.
        -24    2    1    2    0    0  0.89323458018E+02 -0.30131788550E+02 -0.39322643192E+02  0.13014205152E+03  0.80647867123E+02 0.  0.
         25    2    1    2    0    0 -0.84526424313E+02  0.79547892735E+02  0.45775081180E+03  0.48852530594E+03  0.12509430519E+03 0.  0.
         24    2    1    2    0    0 -0.47970337044E+01 -0.49416104185E+02  0.10060872075E+04  0.10104897429E+04  0.80081760878E+02 0.  0.
        -13    1    5    5    0    0 -0.11978841419E+02 -0.70604332348E+02  0.73468365648E+03  0.73816565856E+03  0.00000000000E+00 0.  1.
         14    1    5    5    0    0  0.71818077147E+01  0.21188228163E+02  0.27140355105E+03  0.27232408431E+03  0.00000000000E+00 0. -1.
         11    1    3    3    0    0  0.91068357888E+02 -0.46725470962E+02 -0.19439154081E+02  0.10418539320E+03  0.00000000000E+00 0. -1.
        -12    1    3    3    0    0 -0.17448998708E+01  0.16593682413E+02 -0.19883489111E+02  0.25956658314E+02  0.00000000000E+00 0.  1.
          5    1    4    4  501    0 -0.11438332775E+03  0.77359709251E+02  0.40246419322E+03  0.42551494628E+03  0.41800000000E+01 0.  1.
         -5    1    4    4    0  501  0.29856903441E+02  0.21881834833E+01  0.55286618583E+02  0.63010359659E+02  0.41800000000E+01 0.  1.
</event>
<event>
11    1  0.8488068E-009  0.1680947E+03  0.7561462E-02  0.1079702E+00
         22   -1    0    0    0    0  0.00000000000E+00  0.00000000000E+00  0.46446584638E+03  0.46446584638E+03  0.00000000000E+00 0. -1.
         22   -1    0    0    0    0 -0.00000000000E+00 -0.00000000000E+00 -0.77616054139E+03  0.77616054139E+03  0.00000000000E+00 0. -1.
        -24    2    1    2    0    0  0.14920648053E+02 -0.11527349676E+02 -0.60684623696E+03  0.61246883823E+03  0.80623923024E+02 0.  0.
         25    2    1    2    0    0 -0.12574353650E+03  0.20537844130E+02 -0.10347436227E+03  0.20636588136E+03  0.12508674322E+03 0.  0.
         24    2    1    2    0    0  0.11082288844E+03 -0.90104944536E+01  0.39862590421E+03  0.42179166819E+03  0.81502749841E+02 0.  0.
        -11    1    5    5    0    0 -0.11731385186E+01  0.19136177621E+02  0.95693112515E+02  0.97594781268E+02  0.00000000000E+00 0.  1.
         12    1    5    5    0    0  0.11199602696E+03 -0.28146672074E+02  0.30293279170E+03  0.32419688692E+03  0.00000000000E+00 0. -1.
         11    1    3    3    0    0 -0.10315875805E+02 -0.10578130750E+02 -0.55077061274E+03  0.55096876681E+03  0.00000000000E+00 0. -1.
        -12    1    3    3    0    0  0.25236523858E+02 -0.94921892630E+00 -0.56075624215E+02  0.61500071415E+02  0.00000000000E+00 0.  1.
          5    1    4    4  501    0 -0.90993914701E+00 -0.31341754960E+02 -0.53552903640E+02  0.62197423432E+02  0.41800000000E+01 0. -1.
         -5    1    4    4    0  501 -0.12483359735E+03  0.51879599090E+02 -0.49921458627E+02  0.14416845792E+03  0.41800000000E+01 0. -1.
</event>
<event>
11    1  0.8041700E-009  0.1305842E+03  0.7561462E-02  0.1118553E+00
         22   -1    0    0    0    0  0.00000000000E+00  0.00000000000E+00  0.42647483770E+03  0.42647483770E+03  0.00000000000E+00 0.  1.
         22   -1    0    0    0    0 -0.00000000000E+00 -0.00000000000E+00 -0.41561907177E+03  0.41561907177E+03  0.00000000000E+00 0. -1.
        -24    2    1    2    0    0  0.15135433268E+02 -0.32565836819E+02 -0.24602078267E+03  0.26147395957E+03  0.80949311057E+02 0.  0.
         25    2    1    2    0    0 -0.24522983322E+02  0.35994440810E+02 -0.12985668837E+03  0.18549210530E+03  0.12509030792E+03 0.  0.
         24    2    1    2    0    0  0.93875500541E+01 -0.34286039918E+01  0.38673323697E+03  0.39512784460E+03  0.80396116718E+02 0.  0.
        -11    1    5    5    0    0  0.32197276912E+02 -0.96370243194E+01  0.34890960560E+03  0.35052453517E+03  0.00000000000E+00 0.  1.
         12    1    5    5    0    0 -0.22809726858E+02  0.62084203276E+01  0.37823631372E+02  0.44603309433E+02  0.00000000000E+00 0. -1.
         13    1    3    3    0    0  0.33467285460E+02 -0.42923235468E+02 -0.22584990171E+03  0.23231582262E+03  0.00000000000E+00 0. -1.
        -14    1    3    3    0    0 -0.18331852192E+02  0.10357398649E+02 -0.20170880960E+02  0.29158136948E+02  0.00000000000E+00 0.  1.
          5    1    4    4  501    0 -0.14601317957E+02 -0.43419099030E+02 -0.76334966355E+02  0.89123039306E+02  0.41800000000E+01 0.  1.
         -5    1    4    4    0  501 -0.99216653651E+01  0.79413539840E+02 -0.53521722011E+02  0.96369065994E+02  0.41800000000E+01 0.  1.
</event>
<event>
11    1  0.8041700E-009  0.1462614E+03  0.7561462E-02  0.1100761E+00
         22   -1    0    0    0    0  0.00000000000E+00  0.00000000000E+00  0.68566007069E+03  0.68566007069E+03  0.00000000000E+00 0. -1.
         22   -1    0    0    0    0 -0.00000000000E+00 -0.00000000000E+00 -0.12748144680E+04  0.12748144680E+04  0.00000000000E+00 0. -1.
        -24    2    1    2    0    0 -0.75558772950E+01  0.75510365680E+02 -0.11863208858E+04  0.11913755425E+04  0.79117208268E+02 0.  0.
         25    2    1    2    0    0 -0.46446083455E+02 -0.77719341006E+02 -0.96130160562E+01  0.15471385884E+03  0.12508570424E+03 0.  0.
         24    2    1    2    0    0  0.54001960750E+02  0.22089753260E+01  0.60677950456E+03  0.61438513732E+03  0.79791218030E+02 0.  0.
        -13    1    5    5    0    0  0.34203686064E+02 -0.10204359549E+02  0.86417363845E+02  0.93498566129E+02  0.00000000000E+00 0.  1.
         14    1    5    5    0    0  0.19798274686E+02  0.12413334875E+02  0.52036214071E+03  0.52088657119E+03  0.00000000000E+00 0. -1.
         11    1    3    3    0    0  0.27025207252E+02  0.69438115481E+02 -0.80021644690E+03  0.80367802981E+03  0.00000000000E+00 0. -1.
        -12    1    3    3    0    0 -0.34581084547E+02  0.60722501992E+01 -0.38610443889E+03  0.38769751271E+03  0.00000000000E+00 0.  1.
          5    1    4    4  501    0  0.99492087565E+00  0.15844183773E+02  0.36518533234E+02  0.40038777410E+02  0.41800000000E+01 0.  1.
         -5    1    4    4    0  501 -0.47441004331E+02 -0.93563524779E+02 -0.46131549290E+02  0.11467508143E+03  0.41800000000E+01 0.  1.
</event>
<event>
11    1  0.8041700E-009  0.2734426E+03  0.7561462E-02  0.1012103E+00
         22   -1    0    0    0    0  0.00000000000E+00  0.00000000000E+00  0.41779340040E+03  0.41779340040E+03  0.00000000000E+00 0. -1.
         22   -1    0    0    0    0 -0.00000000000E+00 -0.00000000000E+00 -0.39187003734E+03  0.39187003734E+03  0.00000000000E+00 0.  1.
        -24    2    1    2    0    0 -0.76281811247E+02  0.23605357371E+03 -0.17116553844E+03  0.31195745063E+03  0.80495994077E+02 0.  0.
         25    2    1    2    0    0  0.10764065887E+03 -0.21034511007E+03 -0.14769331354E+02  0.26776683997E+03  0.12509744468E+03 0.  0.
         24    2    1    2    0    0 -0.31358847618E+02 -0.25708463639E+02  0.21185823285E+03  0.22993914714E+03  0.79647963787E+02 0.  0.
        -13    1    5    5    0    0 -0.13241788972E+02  0.23154463417E+02  0.27312884806E+02  0.38176796982E+02  0.00000000000E+00 0.  1.
         14    1    5    5    0    0 -0.18117058647E+02 -0.48862927056E+02  0.18454534804E+03  0.19176235016E+03  0.00000000000E+00 0. -1.
         11    1    3    3    0    0 -0.32227145457E+02  0.44135068941E+02 -0.75058462780E+02  0.92845387875E+02  0.00000000000E+00 0. -1.
        -12    1    3    3    0    0 -0.44054665791E+02  0.19191850477E+03 -0.96107075662E+02  0.21911206275E+03  0.00000000000E+00 0.  1.
          5    1    4    4  501    0  0.89186089118E+02 -0.56759588570E+02  0.23459370159E+02  0.10836800190E+03  0.41800000000E+01 0.  1.
         -5    1    4    4    0  501  0.18454569747E+02 -0.15358552150E+03 -0.38228701513E+02  0.15939883807E+03  0.41800000000E+01 0.  1.
</event>
<event>
11    1  0.8041700E-009  0.1378415E+03  0.7561462E-02  0.1109993E+00
         22   -1    0    0    0    0  0.00000000000E+00  0.00000000000E+00  0.17000888399E+04  0.17000888399E+04  0.00000000000E+00 0.  1.
         22   -1    0    0    0    0 -0.00000000000E+00 -0.00000000000E+00 -0.13825254320E+04  0.13825254320E+04  0.00000000000E+00 0. -1.
        -24    2    1    2    0    0  0.16227757882E+02 -0.60583006543E+02 -0.11655666551E+04  0.11700166314E+04  0.80371944496E+02 0.  0.
         25    2    1    2    0    0 -0.26324281525E+02  0.97035995127E+01 -0.19411986248E+03  0.23262025375E+03  0.12507011556E+03 0.  0.
         24    2    1    2    0    0  0.10096523643E+02  0.50879407030E+02  0.16772499255E+04  0.16799773867E+04  0.80411773988E+02 0.  0.
        -13    1    5    5    0    0 -0.59390833362E+01  0.46480753780E+01  0.12359103430E+04  0.12359333530E+04  0.00000000000E+00 0.  1.
         14    1    5    5    0    0  0.16035606979E+02  0.46231331652E+02  0.44133958253E+03  0.44404403366E+03  0.00000000000E+00 0. -1.
         13    1    3    3    0    0  0.77591753506E+01 -0.67371663161E+02 -0.11426387911E+04  0.11446495327E+04  0.00000000000E+00 0. -1.
        -14    1    3    3    0    0  0.84685825311E+01  0.67886566186E+01 -0.22927864064E+02  0.25367098756E+02  0.00000000000E+00 0.  1.
          5    1    4    4  501    0 -0.63333058439E+01 -0.34430629183E+02 -0.17789390370E+03  0.18135405251E+03  0.41800000000E+01 0. -1.
         -5    1    4    4    0  501 -0.19990975681E+02  0.44134228696E+02 -0.16225958778E+02  0.51266201239E+02  0.41800000000E+01 0. -1.
</event>
<event>
11    1  0.8041700E-009  0.1343551E+03  0.7561462E-02  0.1114031E+00
         22   -1    0    0    0    0  0.00000000000E+00  0.00000000000E+00  0.21360897821E+03  0.21360897821E+03  0.00000000000E+00 0.  1.
         22   -1    0    0    0    0 -0.00000000000E+00 -0.00000000000E+00 -0.11034170699E+04  0.11034170699E+04  0.00000000000E+00 0.  1.
         24    2    1    2    0    0  0.47751246495E+02 -0.13494745537E+02 -0.98411597165E+03  0.98822496624E+03  0.75113570956E+02 0.  0.
         25    2    1    2    0    0 -0.41598486702E+02 -0.11999613978E+02 -0.66902551939E+02  0.14832088022E+03  0.12509479294E+03 0.  0.
        -24    2    1    2    0    0 -0.61527597929E+01  0.25494359515E+02  0.16121043194E+03  0.18048020162E+03  0.76788547242E+02 0.  0.
        -11    1    3    3    0    0  0.38664083844E+02 -0.40485427169E+02 -0.47027092877E+03  0.47359130866E+03  0.00000000000E+00 0.  1.
         12    1    3    3    0    0  0.90871626512E+01  0.26990681632E+02 -0.51384504288E+03  0.51463365758E+03  0.00000000000E+00 0. -1.
         11    1    5    5    0    0 -0.33884692075E+02  0.24514453076E+01  0.33249312698E+02  0.47536288623E+02  0.00000000000E+00 0. -1.
        -12    1    5    5    0    0  0.27731932282E+02  0.23042914208E+02  0.12796111925E+03  0.13294391299E+03  0.00000000000E+00 0.  1.
          5    1    4    4  501    0 -0.54373337409E+02 -0.44351663870E+02 -0.83839972617E+02  0.10940815014E+03  0.41800000000E+01 0.  1.
         -5    1    4    4    0  501  0.12774850707E+02  0.32352049892E+02  0.16937420678E+02  0.38912730076E+02  0.41800000000E+01 0.  1.
</event>
<event>
11    1  0.8041700E-009  0.2147005E+03  0.7561462E-02  0.1044589E+00
         22   -1    0    0    0    0  0.00000000000E+00  0.00000000000E+00  0.54961544943E+03  0.54961544943E+03  0.00000000000E+00 0. -1.
         22   -1    0    0    0    0 -0.00000000000E+00 -0.00000000000E+00 -0.65487168830E+03  0.65487168830E+03  0.00000000000E+00 0.  1.
         24    2    1    2    0    0 -0.11797904059E+02  0.25448342011E+02 -0.32625462392E+03  0.33696124389E+03  0.79460629252E+02 0.  0.
         25    2    1    2    0    0 -0.12053145755E+03 -0.13852429215E+03 -0.26453461417E+03  0.34546081812E+03  0.12509117869E+03 0.  0.
        -24    2    1    2    0    0  0.13232936161E+03  0.11307595013E+03  0.48553299922E+03  0.52206507572E+03  0.80699563259E+02 0.  0.
        -13    1    3    3    0    0 -0.30561949489E+01  0.12156031655E+02 -0.31938726976E+03  0.31963312956E+03  0.00000000000E+00 0.  1.
         14    1    3    3    0    0 -0.87417091097E+01  0.13292310356E+02 -0.68673541651E+01  0.17328114323E+02  0.00000000000E+00 0. -1.
         11    1    5    5    0    0  0.10925383007E+03  0.11803463368E+03  0.45993731354E+03  0.48724830068E+03  0.00000000000E+00 0. -1.
        -12    1    5    5    0    0  0.23075531542E+02 -0.49586835434E+01  0.25595685680E+02  0.34816775035E+02  0.00000000000E+00 0.  1.
          5    1    4    4  501    0 -0.11096195111E+03 -0.10901077001E+03 -0.11711703332E+03  0.19475567891E+03  0.41800000000E+01 0. -1.
         -5    1    4    4    0  501 -0.95695064427E+01 -0.29513522140E+02 -0.14741758085E+03  0.15070513921E+03  0.41800000000E+01 0. -1.
</event>
<event>
11    1  0.8041700E-009  0.1963190E+03  0.7561462E-02  0.1057158E+00
         22   -1    0    0    0    0  0.00000000000E+00  0.00000000000E+00  0.20676716132E+03  0.20676716132E+03  0.00000000000E+00 0.  1.
         22   -1    0    0    0    0 -0.00000000000E+00 -0.00000000000E+00 -0.22013598208E+04  0.22013598208E+04  0.00000000000E+00 0. -1.
         24    2    1    2    0    0  0.81378105358E+02 -0.18088958539E+02 -0.16928365101E+04  0.16974768406E+04  0.93715356011E+02 0.  0.
         25    2    1    2    0    0 -0.13639212352E+03  0.15479927275E+03 -0.43371923863E+03  0.49631233056E+03  0.12509166760E+03 0.  0.
        -24    2    1    2    0    0  0.55014018160E+02 -0.13671031421E+03  0.13196308926E+03  0.21433781098E+03  0.82523863719E+02 0.  0.
        -11    1    3    3    0    0  0.24335129842E+02  0.19092131819E+02 -0.15088669398E+03  0.15402435672E+03  0.00000000000E+00 0.  1.
         12    1    3    3    0    0  0.57042975516E+02 -0.37181090358E+02 -0.15419498161E+04  0.15434524839E+04  0.00000000000E+00 0. -1.
         11    1    5    5    0    0  0.64788173113E+02 -0.50836478172E+02  0.60396077389E+02  0.10212512449E+03  0.00000000000E+00 0. -1.
        -12    1    5    5    0    0 -0.97741549535E+01 -0.85873836040E+02  0.71567011867E+02  0.11221268649E+03  0.00000000000E+00 0.  1.
          5    1    4    4  501    0 -0.23077983108E+02  0.45005868727E+02 -0.21883860996E+02  0.55267506695E+02  0.41800000000E+01 0. -1.
         -5    1    4    4    0  501 -0.11331414041E+03  0.10979340402E+03 -0.41183537764E+03  0.44104482387E+03  0.41800000000E+01 0. -1.
</event>
<event>
11    1  0.8041700E-009  0.1496689E+03  0.7561462E-02  0.1097218E+00
         22   -1    0    0    0    0  0.00000000000E+00  0.00000000000E+00  0.70502603032E+03  0.70502603032E+03  0.00000000000E+00 0. -1.
         22   -1    0    0    0    0 -0.00000000000E+00 -0.00000000000E+00 -0.87395517581E+03  0.87395517581E+03  0.00000000000E+00 0. -1.
        -24    2    1    2    0    0  0.11617318177E+02  0.50623619227E+02 -0.84137273036E+03  0.84694123808E+03  0.81875982103E+02 0.  0.
         25    2    1    2    0    0 -0.87890772768E+02 -0.15839678980E+02  0.24809766187E+03  0.29184895445E+03  0.12509068320E+03 0.  0.
         24    2    1    2    0    0  0.76273454591E+02 -0.34783940247E+02  0.42434592300E+03  0.44019101361E+03  0.81676824837E+02 0.  0.
        -13    1    5    5    0    0  0.11304809594E+02 -0.25087298772E+02  0.31223162423E+02  0.41617990717E+02  0.00000000000E+00 0.  1.
         14    1    5    5    0    0  0.64968644997E+02 -0.96966414758E+01  0.39312276058E+03  0.39857302289E+03  0.00000000000E+00 0. -1.
         11    1    3    3    0    0  0.44029869514E+01  0.39537150888E+02 -0.82470005464E+03  0.82565898088E+03  0.00000000000E+00 0. -1.
        -12    1    3    3    0    0  0.72143312258E+01  0.11086468339E+02 -0.16672675728E+02  0.21282257192E+02  0.00000000000E+00 0.  1.
          5    1    4    4  501    0 -0.21893245796E+02 -0.16172633404E+02  0.21705487176E+03  0.21879478522E+03  0.41800000000E+01 0.  1.
         -5    1    4    4    0  501 -0.65997526972E+02  0.33295442441E+00  0.31042790106E+02  0.73054169235E+02  0.41800000000E+01 0.  1.
</event>
<event>
11    1  0.8041700E-009  0.1298345E+03  0.7561462E-02  0.1119472E+00
         22   -1    0    0    0    0  0.00000000000E+00  0.00000000000E+00  0.89510980048E+03  0.89510980048E+03  0.00000000000E+00 0. -1.
         22   -1    0    0    0    0 -0.00000000000E+00 -0.00000000000E+00 -0.10070058286E+04  0.10070058286E+04  0.00000000000E+00 0.  1.
        -24    2    1    2    0    0  0.25295431019E+02  0.18166647757E+02 -0.94853081273E+03  0.95238047779E+03  0.79674248442E+02 0.  0.
         25    2    1    2    0    0 -0.32209122425E+02 -0.51234996521E+02  0.35061588386E+02  0.14331499062E+03  0.12508964433E+03 0.  0.
         24    2    1    2    0    0  0.69136914060E+01  0.33068348765E+02  0.80157319624E+03  0.80642016064E+03  0.81563298942E+02 0.  0.
        -13    1    5    5    0    0  0.12750384688E+02 -0.95198922951E+01  0.32900635572E+02  0.36546579594E+02  0.00000000000E+00 0.  1.
         14    1    5    5    0    0 -0.58366932825E+01  0.42588241060E+02  0.76867256067E+03  0.76987358105E+03  0.00000000000E+00 0. -1.
         11    1    3    3    0    0  0.10303237881E+00 -0.30383468695E+02 -0.38767972749E+03  0.38886853420E+03  0.00000000000E+00 0. -1.
        -12    1    3    3    0    0  0.25192398640E+02  0.48550116452E+02 -0.56085108524E+03  0.56351194359E+03  0.00000000000E+00 0.  1.
          5    1    4    4  501    0 -0.34747516559E+02 -0.19135036458E+02  0.79107242987E+02  0.88594400615E+02  0.41800000000E+01 0. -1.
         -5    1    4    4    0  501  0.25383941341E+01 -0.32099960064E+02 -0.44045654601E+02  0.54720590002E+02  0.41800000000E+01 0. -1.
</event>
<event>
11    1  0.8041700E-009  0.1613674E+03  0.7561462E-02  0.1085798E+00
         22   -1    0    0    0    0  0.00000000000E+00  0.00000000000E+00  0.16654414034E+04  0.16654414034E+04  0.00000000000E+00 0.  1.
         22   -1    0    0    0    0 -0.00000000000E+00 -0.00000000000E+00 -0.20055173412E+03  0.20055173412E+03  0.00000000000E+00 0.  1.
        -24    2    1    2    0    0 -0.18644228344E+02 -0.48941844461E+02 -0.16216432581E+03  0.18814708830E+03  0.79744259242E+02 0.  0.
         25    2    1    2    0    0  0.34786909091E+02  0.14290185838E+03  0.39882644125E+03  0.44310529884E+03  0.12509478585E+03 0.  0.
         24    2    1    2    0    0 -0.16142680747E+02 -0.93960013917E+02  0.12282275538E+04  0.12347407503E+04  0.83383009696E+02 0.  0.
        -13    1    5    5    0    0 -0.12671916138E+02 -0.77619187874E+02  0.11946615117E+04  0.11972474444E+04  0.00000000000E+00 0.  1.
         14    1    5    5    0    0 -0.34707646089E+01 -0.16340826043E+02  0.33566042118E+02  0.37493305886E+02  0.00000000000E+00 0. -1.
         13    1    3    3    0    0  0.77298943622E+01 -0.48203739525E+02 -0.39848322255E+02  0.63017779694E+02  0.00000000000E+00 0. -1.
        -14    1    3    3    0    0 -0.26374122706E+02 -0.73810493582E+00 -0.12231600355E+03  0.12512930861E+03  0.00000000000E+00 0.  1.
          5    1    4    4  501    0  0.68810910558E+02  0.63341216359E+02  0.28551082135E+03  0.30046788949E+03  0.41800000000E+01 0.  1.
         -5    1    4    4    0  501 -0.34024001467E+02  0.79560642019E+02  0.11331561990E+03  0.14263740935E+03  0.41800000000E+01 0.  1.
</event>
<event>
11    1  0.8041700E-009  0.1940187E+03  0.7561462E-02  0.1058836E+00
         22   -1    0    0    0    0  0.00000000000E+00  0.00000000000E+00  0.22884489360E+03  0.22884489360E+03  0.00000000000E+00 0.  1.
         22   -1    0    0    0    0 -0.00000000000E+00 -0.00000000000E+00 -0.31830965172E+03  0.31830965172E+03  0.00000000000E+00 0.  1.
         24    2    1    2    0    0 -0.63989173561E+02  0.12597929440E+02 -0.58660969856E+02  0.11840601407E+03  0.79533342853E+02 0.  0.
         25    2    1    2    0    0  0.68127587743E+02  0.13734861565E+03 -0.12526487594E+03  0.23419056677E+03  0.12509165434E+03 0.  0.
        -24    2    1    2    0    0 -0.41384141819E+01 -0.14994654509E+03  0.94461087680E+02  0.19455796449E+03  0.80179870316E+02 0.  0.
        -11    1    3    3    0    0 -0.77668068618E+02  0.19408465668E+02 -0.63709729919E+02  0.10231298602E+03  0.00000000000E+00 0.  1.
         12    1    3    3    0    0  0.13678895057E+02 -0.68105362288E+01  0.50487600632E+01  0.16093028052E+02  0.00000000000E+00 0. -1.
         13    1    5    5    0    0  0.30238063726E+02 -0.24433679187E+02  0.31271116411E+02  0.49892162692E+02  0.00000000000E+00 0. -1.
        -14    1    5    5    0    0 -0.34376477908E+02 -0.12551286590E+03  0.63189971269E+02  0.14466580180E+03  0.00000000000E+00 0.  1.
          5    1    4    4  501    0 -0.24183453611E+02  0.29551543883E+02  0.82533766139E+01  0.39290250699E+02  0.41800000000E+01 0. -1.
         -5    1    4    4    0  501  0.92311041354E+02  0.10779707177E+03 -0.13351825256E+03  0.19490031607E+03  0.41800000000E+01 0. -1.
</event>
<event>
11    1  0.8041700E-009  0.1892098E+03  0.7561462E-02  0.1062427E+00
         22   -1    0    0    0    0  0.00000000000E+00  0.00000000000E+00  0.33649741943E+04  0.33649741943E+04  0.00000000000E+00 0. -1.
         22   -1    0    0    0    0 -0.00000000000E+00 -0.00000000000E+00 -0.13269175787E+03  0.13269175787E+03  0.00000000000E+00 0.  1.
         24    2    1    2    0    0  0.41348828930E+02 -0.43808513995E+02 -0.10219152275E+03  0.14314356250E+03  0.80112799297E+02 0.  0.
         25    2    1    2    0    0  0.16494614711E+02  0.16345927027E+03  0.16451778405E+04  0.16580859287E+04  0.12509122497E+03 0.  0.
        -24    2    1    2    0    0 -0.57843443640E+02 -0.11965075628E+03  0.16892961186E+04  0.16964364609E+04  0.80703917056E+02 0.  0.
        -13    1    3    3    0    0  0.25073864075E+02 -0.58457564078E+02 -0.10319507125E+03  0.12122379382E+03  0.00000000000E+00 0.  1.
         14    1    3    3    0    0  0.16274964854E+02  0.14649050083E+02  0.10035485037E+01  0.21919768679E+02  0.00000000000E+00 0. -1.
         11    1    5    5    0    0 -0.15291801457E+02 -0.11059089772E+03  0.12640576867E+04  0.12689783375E+04  0.00000000000E+00 0. -1.
        -12    1    5    5    0    0 -0.42551642183E+02 -0.90598585553E+01  0.42523843191E+03  0.42745812341E+03  0.00000000000E+00 0.  1.
          5    1    4    4  501    0 -0.46370742676E+02  0.86461220246E+02  0.10571335249E+04  0.10616847697E+04  0.41800000000E+01 0. -1.
         -5    1    4    4    0  501  0.62865357387E+02  0.76998050025E+02  0.58804431563E+03  0.59640115896E+03  0.41800000000E+01 0. -1.
</event>
<event>
11    1  0.8041700E-009  0.1468036E+03  0.7561462E-02  0.1100190E+00
         22   -1    0    0    0    0  0.00000000000E+00  0.00000000000E+00  0.17337879224E+04  0.17337879224E+04  0.00000000000E+00 0. -1.
         22   -1    0    0    0    0 -0.00000000000E+00 -0.00000000000E+00 -0.11151195339E+03  0.11151195339E+03  0.00000000000E+00 0.  1.
         24    2    1    2    0    0  0.67092330562E+02 -0.22051013870E+02 -0.49437276580E+02  0.11794744604E+03  0.80497997974E+02 0.  0.
         25    2    1    2    0    0 -0.12298718868E+03  0.66983674413E+02  0.31193785932E+03  0.36409550578E+03  0.12509055933E+03 0.  0.
        -24    2    1    2    0    0  0.55894858123E+02 -0.44932660542E+02  0.13597753863E+04  0.13632569240E+04  0.65857121801E+02 0.  0.
        -13    1    3    3    0    0 -0.11658118442E+02  0.58469387973E+01 -0.29207526770E+02  0.31987154280E+02  0.00000000000E+00 0.  1.
         14    1    3    3    0    0  0.78750449004E+02 -0.27897952668E+02 -0.20229749810E+02  0.85960291755E+02  0.00000000000E+00 0. -1.
         13    1    5    5    0    0  0.34961438437E+02 -0.49251704686E+02  0.12477303690E+04  0.12491913809E+04  0.00000000000E+00 0. -1.
        -14    1    5    5    0    0  0.20933419686E+02  0.43190441435E+01  0.11204501734E+03  0.11406554305E+03  0.00000000000E+00 0.  1.
          5    1    4    4  501    0 -0.33186313516E+02  0.33112243478E+02  0.11191620606E+02  0.48378475014E+02  0.41800000000E+01 0. -1.
         -5    1    4    4    0  501 -0.89800875169E+02  0.33871430935E+02  0.30074623872E+03  0.31571703077E+03  0.41800000000E+01 0. -1.
</event>
<event>
11    1  0.8041700E-009  0.3081820E+03  0.7561462E-02  0.9967867E-01
         22   -1    0    0    0    0  0.00000000000E+00  0.00000000000E+00  0.20211717489E+04  0.20211717489E+04  0.00000000000E+00 0. -1.
         22   -1    0    0    0    0 -0.00000000000E+00 -0.00000000000E+00 -0.10630268256E+04  0.10630268256E+04  0.00000000000E+00 0. -1.
        -24    2    1    2    0    0  0.87912101766E+01 -0.96778527454E+02 -0.97475205190E+03  0.98288736270E+03  0.80514820485E+02 0.  0.
         25    2    1    2    0    0  0.21944963758E+03  0.24879732497E+03  0.36970049878E+03  0.51223111158E+03  0.12507597904E+03 0.  0.
         24    2    1    2    0    0 -0.22824084776E+03 -0.15201879751E+03  0.15631964764E+04  0.15890801002E+04  0.79929605340E+02 0.  0.
        -13    1    5    5    0    0 -0.22915203189E+02 -0.34666250656E+02  0.12935913119E+03  0.13586993889E+03  0.00000000000E+00 0.  1.
         14    1    5    5    0    0 -0.20532564457E+03 -0.11735254686E+03  0.14338373452E+04  0.14532101613E+04  0.00000000000E+00 0. -1.
         11    1    3    3    0    0  0.23364594618E+02 -0.33169690288E+02 -0.66997580034E+03  0.67120317765E+03  0.00000000000E+00 0. -1.
        -12    1    3    3    0    0 -0.14573384442E+02 -0.63608837166E+02 -0.30477625156E+03  0.31168418505E+03  0.00000000000E+00 0.  1.
          5    1    4    4  501    0  0.16547078729E+03  0.21307709278E+03  0.35469605597E+03  0.44565591372E+03  0.41800000000E+01 0.  1.
         -5    1    4    4    0  501  0.53978850292E+02  0.35720232190E+02  0.15004442805E+02  0.66575197863E+02  0.41800000000E+01 0.  1.
</event>
<event>
11    1  0.8041700E-009  0.1581377E+03  0.7561462E-02  0.1088842E+00
         22   -1    0    0    0    0  0.00000000000E+00  0.00000000000E+00  0.39289705869E+03  0.39289705869E+03  0.00000000000E+00 0. -1.
         22   -1    0    0    0    0 -0.00000000000E+00 -0.00000000000E+00 -0.16316679735E+04  0.16316679735E+04  0.00000000000E+00 0.  1.
         24    2    1    2    0    0 -0.39291225911E+02  0.88996638584E+02 -0.13561662145E+04  0.13615541582E+04  0.71963339083E+02 0.  0.
         25    2    1    2    0    0  0.80408317003E+02 -0.63641602155E+02 -0.24231183116E+03  0.29133856565E+03  0.12508950934E+03 0.  0.
        -24    2    1    2    0    0 -0.41117091092E+02 -0.25355036429E+02  0.35970713085E+03  0.37167230836E+03  0.80109873061E+02 0.  0.
        -13    1    3    3    0    0 -0.27798014900E+02  0.87444250933E+02 -0.13269738744E+04  0.13301424322E+04  0.00000000000E+00 0.  1.
         14    1    3    3    0    0 -0.11493211011E+02  0.15523876506E+01 -0.29192340103E+02  0.31411725955E+02  0.00000000000E+00 0. -1.
         13    1    5    5    0    0 -0.43281413928E+02  0.54142656663E+01  0.87970759259E+02  0.98190883227E+02  0.00000000000E+00 0. -1.
        -14    1    5    5    0    0  0.21643228362E+01 -0.30769302095E+02  0.27173637159E+03  0.27348142513E+03  0.00000000000E+00 0.  1.
          5    1    4    4  501    0  0.10400589763E+03 -0.13162337721E+02 -0.14263060888E+03  0.17706336963E+03  0.41800000000E+01 0. -1.
         -5    1    4    4    0  501 -0.23597580627E+02 -0.50479264434E+02 -0.99681222281E+02  0.11427519602E+03  0.41800000000E+01 0. -1.
</event>
<event>
11    1  0.8041700E-009  0.1602042E+03  0.7561462E-02  0.1086885E+00
         22   -1    0    0    0    0  0.00000000000E+00  0.00000000000E+00  0.32032218143E+03  0.32032218143E+03  0.00000000000E+00 0.  1.
         22   -1    0    0    0    0 -0.00000000000E+00 -0.00000000000E+00 -0.10986365552E+04  0.10986365552E+04  0.00000000000E+00 0. -1.
        -24    2    1    2    0    0 -0.63815938899E+02  0.14662342969E+02 -0.93744323806E+03  0.94320720856E+03  0.80947855684E+02 0.  0.
         25    2    1    2    0    0  0.85336296682E+02 -0.10936253066E+03 -0.81551556040E+02  0.20381397300E+03  0.12508809957E+03 0.  0.
         24    2    1    2    0    0 -0.21520357783E+02  0.94700187695E+02  0.24068042037E+03  0.27193755503E+03  0.81189394230E+02 0.  0.
        -13    1    5    5    0    0 -0.33878116321E+02  0.49987782866E+02  0.20414481801E+03  0.21288873132E+03  0.00000000000E+00 0.  1.
         14    1    5    5    0    0  0.12357758538E+02  0.44712404830E+02  0.36535602362E+02  0.59048823711E+02  0.00000000000E+00 0. -1.
         11    1    3    3    0    0 -0.59568091084E+02  0.37836647905E+02 -0.83988071784E+03  0.84284019221E+03  0.00000000000E+00 0. -1.
        -12    1    3    3    0    0 -0.42478478145E+01 -0.23174304936E+02 -0.97562520223E+02  0.10036701636E+03  0.00000000000E+00 0.  1.
          5    1    4    4  501    0  0.11123037537E+03 -0.11255103368E+03 -0.79958431297E+02  0.17734360638E+03  0.41800000000E+01 0.  1.
         -5    1    4    4    0  501 -0.25894078692E+02  0.31885030125E+01 -0.15931247430E+01  0.26470366624E+02  0.41800000000E+01 0.  1.
</event>
<event>
11    1  0.8041700E-009  0.1314716E+03  0.7561462E-02  0.1117474E+00
         22   -1    0    0    0    0  0.00000000000E+00  0.00000000000E+00  0.49808358447E+03  0.49808358447E+03  0.00000000000E+00 0. -1.
         22   -1    0    0    0    0 -0.00000000000E+00 -0.00000000000E+00 -0.79617796958E+03  0.79617796958E+03  0.00000000000E+00 0. -1.
         24    2    1    2    0    0  0.95057339745E+01  0.35365522433E+02 -0.34455319398E+03  0.35598247112E+03  0.81642740670E+02 0.  0.
         25    2    1    2    0    0  0.10179872674E+02 -0.70414047814E+02 -0.42992887023E+03  0.45337537484E+03  0.12509448073E+03 0.  0.
        -24    2    1    2    0    0 -0.19685606648E+02  0.35048525381E+02  0.47638767910E+03  0.48490370809E+03  0.81058393016E+02 0.  0.
        -13    1    3    3    0    0 -0.12621462785E+02 -0.23350327302E+02 -0.92127015202E+02  0.95874532792E+02  0.00000000000E+00 0.  1.
         14    1    3    3    0    0  0.22127196759E+02  0.58715849735E+02 -0.25242617878E+03  0.26010793833E+03  0.00000000000E+00 0. -1.
         11    1    5    5    0    0  0.17444465829E+02 -0.15721940154E+02  0.20404581896E+03  0.20539275797E+03  0.00000000000E+00 0. -1.
        -12    1    5    5    0    0 -0.37130072477E+02  0.50770465534E+02  0.27234186014E+03  0.27951095012E+03  0.00000000000E+00 0.  1.
          5    1    4    4  501    0  0.23395795650E+02 -0.73036539169E+01 -0.74093411297E+01  0.25943734322E+02  0.41800000000E+01 0. -1.
         -5    1    4    4    0  501 -0.13215922976E+02 -0.63110393897E+02 -0.42251952910E+03  0.42743164051E+03  0.41800000000E+01 0. -1.
</event>
<event>
11    1  0.8041700E-009  0.1543615E+03  0.7561462E-02  0.1092504E+00
         22   -1    0    0    0    0  0.00000000000E+00  0.00000000000E+00  0.31963702221E+03  0.31963702221E+03  0.00000000000E+00 0.  1.
         22   -1    0    0    0    0 -0.00000000000E+00 -0.00000000000E+00 -0.94366999826E+03  0.94366999826E+03  0.00000000000E+00 0. -1.
        -24    2    1    2    0    0  0.15326956953E+02  0.88163324204E+02 -0.81145172578E+03  0.82031015737E+03  0.80294231825E+02 0.  0.
         25    2    1    2    0    0 -0.63992542230E+02 -0.92924132806E+02 -0.59367227960E+02  0.17861001111E+03  0.12508848227E+03 0.  0.
         24    2    1    2    0    0  0.48665585277E+02  0.47608086025E+01  0.24678597769E+03  0.26438685198E+03  0.81277821254E+02 0.  0.
        -11    1    5    5    0    0  0.62205811781E+02  0.24085951303E+02  0.21281675673E+03  0.22302615993E+03  0.00000000000E+00 0.  1.
         12    1    5    5    0    0 -0.13540226504E+02 -0.19325142700E+02  0.33969220962E+02  0.41360692051E+02  0.00000000000E+00 0. -1.
         13    1    3    3    0    0  0.11984112901E+02  0.51166398562E+02 -0.71536552948E+03  0.71729314794E+03  0.00000000000E+00 0. -1.
        -14    1    3    3    0    0  0.33428440521E+01  0.36996925642E+02 -0.96086196300E+02  0.10301700943E+03  0.00000000000E+00 0.  1.
          5    1    4    4  501    0  0.19124963673E+02 -0.76563159177E+02 -0.49435606113E+02  0.93214983401E+02  0.41800000000E+01 0.  1.
         -5    1    4    4    0  501 -0.83117505903E+02 -0.16360973629E+02 -0.99316218469E+01  0.85395027713E+02  0.41800000000E+01 0.  1.
</event>
<event>
11    1  0.8041700E-009  0.1874370E+03  0.7561462E-02  0.1063781E+00
         22   -1    0    0    0    0  0.00000000000E+00  0.00000000000E+00  0.15051159860E+04  0.15051159860E+04  0.00000000000E+00 0.  1.
         22   -1    0    0    0    0 -0.00000000000E+00 -0.00000000000E+00 -0.15766191917E+03  0.15766191917E+03  0.00000000000E+00 0.  1.
         24    2    1    2    0    0 -0.65492671056E+02  0.16004728788E+03 -0.47422469784E+02  0.19734450885E+03  0.82410801542E+02 0.  0.
         25    2    1    2    0    0  0.65483536843E+02 -0.38644320259E+02  0.14146280423E+03  0.20356905198E+03  0.12508859603E+03 0.  0.
        -24    2    1    2    0    0  0.91342124328E-02 -0.12140296762E+03  0.12534137324E+04  0.12618643443E+04  0.80727680341E+02 0.  0.
        -13    1    3    3    0    0 -0.74256416594E+02  0.88241627018E+02 -0.48216358172E+02  0.12500166935E+03  0.00000000000E+00 0.  1.
         14    1    3    3    0    0  0.87637455378E+01  0.71805660864E+02  0.79388838831E+00  0.72342839499E+02  0.00000000000E+00 0. -1.
         11    1    5    5    0    0 -0.12018652594E+02 -0.51079421794E+02  0.22752137120E+03  0.23349417486E+03  0.00000000000E+00 0. -1.
        -12    1    5    5    0    0  0.12027786807E+02 -0.70323545829E+02  0.10258923612E+04  0.10283701695E+04  0.00000000000E+00 0.  1.
          5    1    4    4  501    0  0.29533776910E+02  0.34605562858E+02  0.69856886248E+01  0.46217542177E+02  0.41800000000E+01 0. -1.
         -5    1    4    4    0  501  0.35949759933E+02 -0.73249883117E+02  0.13447711560E+03  0.15735150980E+03  0.41800000000E+01 0. -1.
</event>
<event>
11    1  0.8041700E-009  0.1359967E+03  0.7561462E-02  0.1112113E+00
         22   -1    0    0    0    0  0.00000000000E+00  0.00000000000E+00  0.95983244286E+03  0.95983244286E+03  0.00000000000E+00 0. -1.
         22   -1    0    0    0    0 -0.00000000000E+00 -0.00000000000E+00 -0.16111139415E+03  0.16111139415E+03  0.00000000000E+00 0.  1.
         24    2    1    2    0    0  0.38212802294E+02  0.38261522062E+02 -0.12805596509E+03  0.16105089662E+03  0.81332027994E+02 0.  0.
         25    2    1    2    0    0  0.54127846202E+00 -0.53990212575E+02  0.33211878094E+03  0.35897847921E+03  0.12508967922E+03 0.  0.
        -24    2    1    2    0    0 -0.38754080756E+02  0.15728690513E+02  0.59465823286E+03  0.60091446118E+03  0.75700100861E+02 0.  0.
        -11    1    3    3    0    0  0.39034549200E+02  0.62346229033E+02 -0.95377391014E+02  0.12044747827E+03  0.00000000000E+00 0.  1.
         12    1    3    3    0    0 -0.82174690614E+00 -0.24084706971E+02 -0.32678574076E+02  0.40603418347E+02  0.00000000000E+00 0. -1.
         13    1    5    5    0    0 -0.24563618455E+02 -0.21395022473E+02  0.44093830847E+03  0.44213992153E+03  0.00000000000E+00 0. -1.
        -14    1    5    5    0    0 -0.14190462301E+02  0.37123712986E+02  0.15371992439E+03  0.15877453965E+03  0.00000000000E+00 0.  1.
          5    1    4    4  501    0  0.47069415370E+02  0.37715021332E+01  0.21591669286E+03  0.22105936928E+03  0.41800000000E+01 0. -1.
         -5    1    4    4    0  501 -0.46528136908E+02 -0.57761714708E+02  0.11620208808E+03  0.13791910993E+03  0.41800000000E+01 0. -1.
</event>
<event>
11    1  0.8041700E-009  0.1619551E+03  0.7561462E-02  0.1085253E+00
         22   -1    0    0    0    0  0.00000000000E+00  0.00000000000E+00  0.38494214450E+03  0.38494214450E+03  0.00000000000E+00 0.  1.
         22   -1    0    0    0    0 -0.00000000000E+00 -0.00000000000E+00 -0.42299727763E+03  0.42299727763E+03  0.00000000000E+00 0. -1.
         24    2    1    2    0    0  0.39238166630E+02  0.63175007023E+02 -0.30113279915E+03  0.32019685980E+03  0.79462891168E+02 0.  0.
         25    2    1    2    0    0  0.68494138447E+02 -0.61541145551E+02 -0.36153683034E+02  0.15947805088E+03  0.12508956918E+03 0.  0.
        -24    2    1    2    0    0 -0.10773230508E+03 -0.16338614720E+01  0.29923134905E+03  0.32826451144E+03  0.81297417901E+02 0.  0.
        -13    1    3    3    0    0 -0.22396441586E+02  0.18072831963E+02 -0.49816410678E+02  0.57531753178E+02  0.00000000000E+00 0.  1.
         14    1    3    3    0    0  0.61634608217E+02  0.45102175060E+02 -0.25131638847E+03  0.26266510663E+03  0.00000000000E+00 0. -1.
         11    1    5    5    0    0 -0.71265766690E+01  0.12232773155E+02  0.13095115643E+03  0.13171421413E+03  0.00000000000E+00 0. -1.
        -12    1    5    5    0    0 -0.10060572841E+03 -0.13866634627E+02  0.16828019262E+03  0.19655029731E+03  0.00000000000E+00 0.  1.
          5    1    4    4  501    0  0.29182336822E+02  0.23171842559E+02 -0.52561295039E+02  0.64565510965E+02  0.41800000000E+01 0.  1.
         -5    1    4    4    0  501  0.39311801625E+02 -0.84712988110E+02  0.16407612005E+02  0.94912539916E+02  0.41800000000E+01 0.  1.
</event>
<event>
11    1  0.8041700E-009  0.1382876E+03  0.7561462E-02  0.1109486E+00
         22   -1    0    0    0    0  0.00000000000E+00  0.00000000000E+00  0.32501225538E+03  0.32501225538E+03  0.00000000000E+00 0. -1.
         22   -1    0    0    0    0 -0.00000000000E+00 -0.00000000000E+00 -0.27652331527E+03  0.27652331527E+03  0.00000000000E+00 0. -1.
        -24    2    1    2    0    0 -0.54045742683E+02 -0.24527763612E+02 -0.20462622725E+03  0.22783442225E+03  0.80709835816E+02 0.  0.
         25    2    1    2    0    0  0.56614779863E+02  0.99914609635E+01  0.37909938876E+02  0.14279305764E+03  0.12509049225E+03 0.  0.
         24    2    1    2    0    0 -0.25690371806E+01  0.14536302648E+02  0.21520522848E+03  0.23090809076E+03  0.82385386869E+02 0.  0.
        -11    1    5    5    0    0 -0.34002823284E+02  0.31116365867E+02  0.95534870374E+02  0.10607229456E+03  0.00000000000E+00 0.  1.
         12    1    5    5    0    0  0.31433786103E+02 -0.16580063218E+02  0.11967035810E+03  0.12483579620E+03  0.00000000000E+00 0. -1.
         11    1    3    3    0    0 -0.45782343732E+02  0.16975106445E+02 -0.15554562968E+03  0.16302950699E+03  0.00000000000E+00 0. -1.
        -12    1    3    3    0    0 -0.82633989502E+01 -0.41502870057E+02 -0.49080597561E+02  0.64804915262E+02  0.00000000000E+00 0.  1.
          5    1    4    4  501    0  0.26656063755E+02 -0.57225271831E+02  0.10395356506E+02  0.64115624522E+02  0.41800000000E+01 0.  1.
         -5    1    4    4    0  501  0.29958716108E+02  0.67216732794E+02  0.27514582370E+02  0.78677433114E+02  0.41800000000E+01 0.  1.
</event>
<event>
11    1  0.8041700E-009  0.1322600E+03  0.7561462E-02  0.1116523E+00
         22   -1    0    0    0    0  0.00000000000E+00  0.00000000000E+00  0.10379221608E+03  0.10379221608E+03  0.00000000000E+00 0.  1.
         22   -1    0    0    0    0 -0.00000000000E+00 -0.00000000000E+00 -0.11760213424E+04  0.11760213424E+04  0.00000000000E+00 0. -1.
        -24    2    1    2    0    0 -0.16764508865E+02  0.38379604846E+02 -0.10081742073E+04  0.10124069862E+04  0.82453808400E+02 0.  0.
         25    2    1    2    0    0  0.23279916545E+01 -0.65762601084E+02 -0.98633325916E+02  0.17235623525E+03  0.12509196457E+03 0.  0.
         24    2    1    2    0    0  0.14436517211E+02  0.27382996238E+02  0.34578406851E+02  0.95050337128E+02  0.82949736924E+02 0.  0.
        -11    1    5    5    0    0 -0.33420772012E+02  0.22390454992E+02  0.12630539255E+02  0.42164096083E+02  0.00000000000E+00 0.  1.
         12    1    5    5    0    0  0.47857289223E+02  0.49925412453E+01  0.21947867596E+02  0.52886241045E+02  0.00000000000E+00 0. -1.
         13    1    3    3    0    0 -0.37211259884E+02  0.30520816092E+02 -0.29528068256E+03  0.29917700374E+03  0.00000000000E+00 0. -1.
        -14    1    3    3    0    0  0.20446751019E+02  0.78587887545E+01 -0.71289352474E+03  0.71322998241E+03  0.00000000000E+00 0.  1.
          5    1    4    4  501    0  0.27916259573E+02  0.24476246310E+02 -0.60313226017E+02  0.70947599075E+02  0.41800000000E+01 0. -1.
         -5    1    4    4    0  501 -0.25588267919E+02 -0.90238847394E+02 -0.38320099900E+02  0.10140863617E+03  0.41800000000E+01 0. -1.
</event>
<event>
11    1  0.8041700E-009  0.1398122E+03  0.7561462E-02  0.1107768E+00
         22   -1    0    0    0    0  0.00000000000E+00  0.00000000000E+00  0.15229144454E+03  0.15229144454E+03  0.00000000000E+00 0.  1.
         22   -1    0    0    0    0 -0.00000000000E+00 -0.00000000000E+00 -0.75083199645E+03  0.75083199645E+03  0.00000000000E+00 0. -1.
         24    2    1    2    0    0 -0.38983697470E+01 -0.10891690260E+02 -0.58621970876E+03  0.59151065104E+03  0.78086344204E+02 0.  0.
         25    2    1    2    0    0  0.65614444191E+02  0.14165877608E+02 -0.10305979936E+03  0.17542793378E+03  0.12509080834E+03 0.  0.
        -24    2    1    2    0    0 -0.61716074444E+02 -0.32741873483E+01  0.90738956212E+02  0.13618485616E+03  0.80580163352E+02 0.  0.
        -13    1    3    3    0    0  0.74208973526E+01  0.32883467651E+02 -0.24503740745E+03  0.24734535211E+03  0.00000000000E+00 0.  1.
         14    1    3    3    0    0 -0.11319267100E+02 -0.43775157910E+02 -0.34118230132E+03  0.34416529893E+03  0.00000000000E+00 0. -1.
         13    1    5    5    0    0 -0.25788286338E+02  0.25171419143E+02  0.17370620519E+01  0.36078434535E+02  0.00000000000E+00 0. -1.
        -14    1    5    5    0    0 -0.35927788106E+02 -0.28445606492E+02  0.89001894160E+02  0.10010642163E+03  0.00000000000E+00 0.  1.
          5    1    4    4  501    0 -0.34222620735E+02 -0.10521535886E+02 -0.43553734982E+02  0.56535747260E+02  0.41800000000E+01 0. -1.
         -5    1    4    4    0  501  0.99837064926E+02  0.24687413494E+02 -0.59506064380E+02  0.11889218652E+03  0.41800000000E+01 0. -1.
</event>
<event>
11    1  0.8041700E-009  0.1756697E+03  0.7561462E-02  0.1073200E+00
         22   -1    0    0    0    0  0.00000000000E+00  0.00000000000E+00  0.29140589824E+03  0.29140589824E+03  0.00000000000E+00 0.  1.
         22   -1    0    0    0    0 -0.00000000000E+00 -0.00000000000E+00 -0.79077209089E+03  0.79077209089E+03  0.00000000000E+00 0.  1.
         24    2    1    2    0    0  0.67175806798E+02 -0.30076324303E+02 -0.62730982571E+03  0.63711353385E+03  0.83539591099E+02 0.  0.
         25    2    1    2    0    0 -0.14667196175E+03 -0.59118482026E+02 -0.58715945325E+02  0.21000557457E+03  0.12508844805E+03 0.  0.
        -24    2    1    2    0    0  0.79496154952E+02  0.89194806329E+02  0.18665957838E+03  0.23505888071E+03  0.78329605344E+02 0.  0.
        -13    1    3    3    0    0  0.39121592590E+02 -0.56063574896E+02 -0.30644642063E+03  0.31397934989E+03  0.00000000000E+00 0.  1.
         14    1    3    3    0    0  0.28054214207E+02  0.25987250592E+02 -0.32086340508E+03  0.32313418396E+03  0.00000000000E+00 0. -1.
         11    1    5    5    0    0  0.15314700070E+02  0.72672785613E+02  0.11954612271E+03  0.14073787430E+03  0.00000000000E+00 0. -1.
        -12    1    5    5    0    0  0.64181454882E+02  0.16522020716E+02  0.67113455668E+02  0.94321006414E+02  0.00000000000E+00 0.  1.
          5    1    4    4  501    0 -0.45265134070E+01  0.24341183862E+02  0.15152514519E+02  0.29326671336E+02  0.41800000000E+01 0.  1.
         -5    1    4    4    0  501 -0.14214544834E+03 -0.83459665888E+02 -0.73868459843E+02  0.18067890324E+03  0.41800000000E+01 0.  1.
</event>
<event>
11    1  0.9939077E-009  0.1437559E+03  0.7561462E-02  0.1103435E+00
         22   -1    0    0    0    0  0.00000000000E+00  0.00000000000E+00  0.39931742377E+03  0.39931742377E+03  0.00000000000E+00 0. -1.
         22   -1    0    0    0    0 -0.00000000000E+00 -0.00000000000E+00 -0.90215475002E+03  0.90215475002E+03  0.00000000000E+00 0.  1.
         24    2    1    2    0    0  0.43777986560E+02 -0.40222430367E+02 -0.58417469984E+03  0.59661047002E+03  0.10559174679E+03 0.  0.
         25    2    1    2    0    0 -0.89388401982E+02  0.70761315980E+02 -0.28191780471E+03  0.32881966170E+03  0.12508905251E+03 0.  0.
        -24    2    1    2    0    0  0.45610415422E+02 -0.30538885613E+02  0.36325517830E+03  0.37604204208E+03  0.80251849328E+02 0.  0.
        -11    1    3    3    0    0  0.32558785486E+01  0.19270654730E+02 -0.37286476091E+03  0.37337660452E+03  0.00000000000E+00 0.  1.
         12    1    3    3    0    0  0.40522108012E+02 -0.59493085097E+02 -0.21130993893E+03  0.22323386549E+03  0.00000000000E+00 0. -1.
         11    1    5    5    0    0  0.49461274418E+02 -0.53993840698E+02  0.28503936213E+03  0.29429439421E+03  0.00000000000E+00 0. -1.
        -12    1    5    5    0    0 -0.38508589963E+01  0.23454955085E+02  0.78215816168E+02  0.81747647868E+02  0.00000000000E+00 0.  1.
          5    1    4    4  501    0 -0.10906100551E+03  0.87861418778E+02 -0.21232497550E+03  0.25438808827E+03  0.41800000000E+01 0.  1.
         -5    1    4    4    0  501  0.19672603527E+02 -0.17100102798E+02 -0.69592829209E+02  0.74431573426E+02  0.41800000000E+01 0.  1.
</event>
<event>
11    1  0.8041700E-009  0.1803610E+03  0.7561462E-02  0.1069351E+00
         22   -1    0    0    0    0  0.00000000000E+00  0.00000000000E+00  0.25101371621E+04  0.25101371621E+04  0.00000000000E+00 0.  1.
         22   -1    0    0    0    0 -0.00000000000E+00 -0.00000000000E+00 -0.21261621369E+04  0.21261621369E+04  0.00000000000E+00 0. -1.
         24    2    1    2    0    0 -0.24770287617E+02 -0.12738313211E+03 -0.20957353820E+04  0.21013685943E+04  0.82481200744E+02 0.  0.
         25    2    1    2    0    0  0.10857676010E+03  0.14220462469E+03  0.43299135739E+03  0.48490618340E+03  0.12506567476E+03 0.  0.
        -24    2    1    2    0    0 -0.83806472487E+02 -0.14821492578E+02  0.20467190498E+04  0.20500245212E+04  0.79362884991E+02 0.  0.
        -13    1    3    3    0    0 -0.30769870589E+00 -0.10324039109E+03 -0.10487806136E+04  0.10538498225E+04  0.00000000000E+00 0.  1.
         14    1    3    3    0    0 -0.24462588911E+02 -0.24142741014E+02 -0.10469547684E+04  0.10475187718E+04  0.00000000000E+00 0. -1.
         11    1    5    5    0    0 -0.24624561569E+02  0.16508206691E+02  0.20967967119E+03  0.21176509257E+03  0.00000000000E+00 0. -1.
        -12    1    5    5    0    0 -0.59181910918E+02 -0.31329699269E+02  0.18370393786E+04  0.18382594287E+04  0.00000000000E+00 0.  1.
          5    1    4    4  501    0  0.11693333511E+03  0.14738560331E+03  0.31866816231E+03  0.37008484297E+03  0.41800000000E+01 0. -1.
         -5    1    4    4    0  501 -0.83565750023E+01 -0.51809786209E+01  0.11432319508E+03  0.11482134043E+03  0.41800000000E+01 0. -1.
</event>
<event>
11    1  0.8041700E-009  0.1882199E+03  0.7561462E-02  0.1063181E+00
         22   -1    0    0    0    0  0.00000000000E+00  0.00000000000E+00  0.67176810250E+03  0.67176810250E+03  0.00000000000E+00 0.  1.
         22   -1    0    0    0    0 -0.00000000000E+00 -0.00000000000E+00 -0.45227474235E+03  0.45227474235E+03  0.00000000000E+00 0.  1.
         24    2    1    2    0    0 -0.10436201938E+03 -0.95093719431E+02 -0.39601591420E+03  0.42851255785E+03  0.82826091126E+02 0.  0.
         25    2    1    2    0    0  0.81926459362E+02  0.10683339757E+03  0.20051202931E+03  0.27198877041E+03  0.12508995864E+03 0.  0.
        -24    2    1    2    0    0  0.22435560018E+02 -0.11739678137E+02  0.41499724504E+03  0.42354151659E+03  0.80768363207E+02 0.  0.
        -11    1    3    3    0    0 -0.11814209093E+03 -0.91148137486E+02 -0.35601445946E+03  0.38602050718E+03  0.00000000000E+00 0.  1.
         12    1    3    3    0    0  0.13780071555E+02 -0.39455819450E+01 -0.40001454743E+02  0.42492050674E+02  0.00000000000E+00 0. -1.
         11    1    5    5    0    0  0.52076497741E+02  0.12629190513E+01  0.26936445817E+03  0.27435518567E+03  0.00000000000E+00 0. -1.
        -12    1    5    5    0    0 -0.29640937723E+02 -0.13002597188E+02  0.14563278687E+03  0.14918633092E+03  0.00000000000E+00 0.  1.
          5    1    4    4  501    0  0.57732372784E+02  0.13338573060E+03  0.17602838907E+03  0.22831611015E+03  0.41800000000E+01 0.  1.
         -5    1    4    4    0  501  0.24194086578E+02 -0.26552333034E+02  0.24483640243E+02  0.43672660263E+02  0.41800000000E+01 0.  1.
</event>
<event>
11    1  0.8041700E-009  0.1621713E+03  0.7561462E-02  0.1085053E+00
         22   -1    0    0    0    0  0.00000000000E+00  0.00000000000E+00  0.64210302807E+03  0.64210302807E+03  0.00000000000E+00 0.  1.
         22   -1    0    0    0    0 -0.00000000000E+00 -0.00000000000E+00 -0.47651266318E+03  0.47651266318E+03  0.00000000000E+00 0.  1.
         24    2    1    2    0    0  0.85199232957E+02 -0.56237783627E+02 -0.43380142368E+03  0.45272176251E+03  0.79697687908E+02 0.  0.
         25    2    1    2    0    0 -0.13418706924E+03  0.83309934329E+02  0.43954720156E+03  0.48352486061E+03  0.12509130154E+03 0.  0.
        -24    2    1    2    0    0  0.48987836285E+02 -0.27072150702E+02  0.15984458701E+03  0.18236906813E+03  0.67642261683E+02 0.  0.
        -11    1    3    3    0    0  0.13763168399E+02 -0.52425955385E+02 -0.24245664137E+03  0.24844139862E+03  0.00000000000E+00 0.  1.
         12    1    3    3    0    0  0.71436064558E+02 -0.38118282421E+01 -0.19134478231E+03  0.20428036389E+03  0.00000000000E+00 0. -1.
         11    1    5    5    0    0 -0.16925860618E+02 -0.41984613712E+01  0.41060817340E+02  0.44610565522E+02  0.00000000000E+00 0. -1.
        -12    1    5    5    0    0  0.65913696903E+02 -0.22873689331E+02  0.11878376967E+03  0.13775850261E+03  0.00000000000E+00 0.  1.
          5    1    4    4  501    0 -0.12403854200E+03  0.69525032173E+02  0.44325085223E+03  0.46551915149E+03  0.41800000000E+01 0.  1.
         -5    1    4    4    0  501 -0.10148527247E+02  0.13784902156E+02 -0.37036506729E+01  0.18005709123E+02  0.41800000000E+01 0.  1.
</event>
<event>
11    1  0.8041700E-009  0.1752902E+03  0.7561462E-02  0.1073518E+00
         22   -1    0    0    0    0  0.00000000000E+00  0.00000000000E+00  0.28144086243E+03  0.28144086243E+03  0.00000000000E+00 0.  1.
         22   -1    0    0    0    0 -0.00000000000E+00 -0.00000000000E+00 -0.69025840800E+03  0.69025840800E+03  0.00000000000E+00 0.  1.
         24    2    1    2    0    0 -0.73187464134E+01  0.22877609195E+02 -0.55837834339E+03  0.56512303780E+03  0.83670331887E+02 0.  0.
         25    2    1    2    0    0 -0.63557239081E+02  0.83199294649E+02 -0.36542983429E+02  0.16716743510E+03  0.12509163221E+03 0.  0.
        -24    2    1    2    0    0  0.70875985495E+02 -0.10607690384E+03  0.18610378125E+03  0.23940879753E+03  0.80038991073E+02 0.  0.
        -11    1    3    3    0    0 -0.10978749368E+02 -0.28403621395E+02 -0.30922042461E+03  0.31071622043E+03  0.00000000000E+00 0.  1.
         12    1    3    3    0    0  0.36600029546E+01  0.51281230590E+02 -0.24915791878E+03  0.25440681737E+03  0.00000000000E+00 0. -1.
         11    1    5    5    0    0  0.17733215087E+02 -0.70530145198E+02  0.47760122300E+02  0.87005733036E+02  0.00000000000E+00 0. -1.
        -12    1    5    5    0    0  0.53142770407E+02 -0.35546758646E+02  0.13834365895E+03  0.15240306449E+03  0.00000000000E+00 0.  1.
          5    1    4    4  501    0 -0.17860555673E+00  0.97149714655E+02 -0.30235368066E+02  0.10183196374E+03  0.41800000000E+01 0. -1.
         -5    1    4    4    0  501 -0.63378633524E+02 -0.13950420006E+02 -0.63076153630E+01  0.65335471356E+02  0.41800000000E+01 0. -1.
</event>
<event>
11    1  0.8041700E-009  0.1377314E+03  0.7561462E-02  0.1110118E+00
         22   -1    0    0    0    0  0.00000000000E+00  0.00000000000E+00  0.22357572433E+03  0.22357572433E+03  0.00000000000E+00 0. -1.
         22   -1    0    0    0    0 -0.00000000000E+00 -0.00000000000E+00 -0.15660203383E+04  0.15660203383E+04  0.00000000000E+00 0.  1.
        -24    2    1    2    0    0 -0.56288120949E+02 -0.19648660954E+02 -0.13014312273E+04  0.13058021162E+04  0.88552272372E+02 0.  0.
         25    2    1    2    0    0  0.52311371677E+02 -0.35191449041E+02 -0.23120589591E+03  0.27032874661E+03  0.12508615931E+03 0.  0.
         24    2    1    2    0    0  0.39767492723E+01  0.54840109995E+02  0.19019250921E+03  0.21346519981E+03  0.79818223303E+02 0.  0.
        -13    1    5    5    0    0  0.22665869792E+01  0.46854095496E+01 -0.77081320354E+01  0.93008482762E+01  0.00000000000E+00 0.  1.
         14    1    5    5    0    0  0.17101622931E+01  0.50154700445E+02  0.19790064125E+03  0.20416435153E+03  0.00000000000E+00 0. -1.
         11    1    3    3    0    0 -0.63745624958E+02 -0.40278130657E+02 -0.71590451353E+03  0.71986464353E+03  0.00000000000E+00 0. -1.
        -12    1    3    3    0    0  0.74575040081E+01  0.20629469703E+02 -0.58552671375E+03  0.58593747269E+03  0.00000000000E+00 0.  1.
          5    1    4    4  501    0 -0.27035291042E+02 -0.23289252298E+02 -0.15666704545E+03  0.16073372940E+03  0.41800000000E+01 0.  1.
         -5    1    4    4    0  501  0.79346662719E+02 -0.11902196742E+02 -0.74538850451E+02  0.10959501722E+03  0.41800000000E+01 0.  1.
</event>
<event>
11    1  0.8041700E-009  0.1408580E+03  0.7561462E-02  0.1106604E+00
         22   -1    0    0    0    0  0.00000000000E+00  0.00000000000E+00  0.13127811390E+04  0.13127811390E+04  0.00000000000E+00 0.  1.
         22   -1    0    0    0    0 -0.00000000000E+00 -0.00000000000E+00 -0.61240977107E+03  0.61240977107E+03  0.00000000000E+00 0. -1.
         24    2    1    2    0    0 -0.26016819353E+02 -0.13447248553E+02 -0.52097661354E+03  0.52781156651E+03  0.79440005679E+02 0.  0.
         25    2    1    2    0    0  0.83442092798E+02  0.41681015318E+02 -0.14694490596E+02  0.15672666277E+03  0.12508968336E+03 0.  0.
        -24    2    1    2    0    0 -0.57425273446E+02 -0.28233766765E+02  0.12360424721E+04  0.12406526808E+04  0.85576129584E+02 0.  0.
        -11    1    3    3    0    0  0.40516316932E+01  0.20678586649E+02 -0.45250993090E+02  0.49916650937E+02  0.00000000000E+00 0.  1.
         12    1    3    3    0    0 -0.30068451046E+02 -0.34125835202E+02 -0.47572562045E+03  0.47789491557E+03  0.00000000000E+00 0. -1.
         11    1    5    5    0    0  0.77408328080E+01  0.17811177726E+02  0.48391778932E+03  0.48430732532E+03  0.00000000000E+00 0. -1.
        -12    1    5    5    0    0 -0.65166106254E+02 -0.46044944491E+02  0.75212468280E+03  0.75634535550E+03  0.00000000000E+00 0.  1.
          5    1    4    4  501    0  0.10781874635E+02 -0.25167431800E+02  0.36191295315E+02  0.45573355161E+02  0.41800000000E+01 0.  1.
         -5    1    4    4    0  501  0.72660218164E+02  0.66848447118E+02 -0.50885785911E+02  0.11115330761E+03  0.41800000000E+01 0.  1.
</event>
<event>
11    1  0.9883376E-009  0.1613835E+03  0.7561462E-02  0.1085783E+00
         22   -1    0    0    0    0  0.00000000000E+00  0.00000000000E+00  0.56817405215E+03  0.56817405215E+03  0.00000000000E+00 0. -1.
         22   -1    0    0    0    0 -0.00000000000E+00 -0.00000000000E+00 -0.74063858924E+03  0.74063858924E+03  0.00000000000E+00 0.  1.
         24    2    1    2    0    0 -0.22311783935E+02  0.50563731861E+02 -0.36724254719E+03  0.38016080705E+03  0.81244347923E+02 0.  0.
         25    2    1    2    0    0  0.12374241309E+03 -0.46125469071E+02 -0.33606398514E+03  0.38213483595E+03  0.12509311350E+03 0.  0.
        -24    2    1    2    0    0 -0.10143062916E+03 -0.44382627899E+01  0.53084199523E+03  0.54651699839E+03  0.81115565229E+02 0.  0.
        -13    1    3    3    0    0 -0.49905564089E+02  0.12874125285E+02 -0.18991045869E+03  0.19677980269E+03  0.00000000000E+00 0.  1.
         14    1    3    3    0    0  0.27593780154E+02  0.37689606575E+02 -0.17733208850E+03  0.18338100436E+03  0.00000000000E+00 0. -1.
         13    1    5    5    0    0 -0.63738992692E+02  0.35700057292E+02  0.34697575769E+03  0.35458331842E+03  0.00000000000E+00 0. -1.
        -14    1    5    5    0    0 -0.37691636464E+02 -0.40138320082E+02  0.18386623754E+03  0.19193367997E+03  0.00000000000E+00 0.  1.
          5    1    4    4  501    0  0.73841303348E+01 -0.63412637256E+02 -0.10961022823E+03  0.12691557224E+03  0.41800000000E+01 0. -1.
         -5    1    4    4    0  501  0.11635828276E+03  0.17287168185E+02 -0.22645375691E+03  0.25521926371E+03  0.41800000000E+01 0. -1.
</event>
<event>
11    1  0.8041700E-009  0.1706431E+03  0.7561462E-02  0.1077473E+00
         22   -1    0    0    0    0  0.00000000000E+00  0.00000000000E+00  0.13983021688E+03  0.13983021688E+03  0.00000000000E+00 0. -1.
         22   -1    0    0    0    0 -0.00000000000E+00 -0.00000000000E+00 -0.12818228448E+04  0.12818228448E+04  0.00000000000E+00 0. -1.
         24    2    1    2    0    0 -0.84163743779E+02 -0.53271718515E+02 -0.10556581322E+04  0.10633691520E+04  0.80115227657E+02 0.  0.
         25    2    1    2    0    0  0.44310026941E+02 -0.78135964291E+02 -0.11627526805E+03  0.19296872114E+03  0.12509349294E+03 0.  0.
        -24    2    1    2    0    0  0.39853716839E+02  0.13140768281E+03  0.29940772245E+02  0.16531518857E+03  0.87042310872E+02 0.  0.
        -11    1    3    3    0    0 -0.16739328123E+02  0.16942638974E+02 -0.37864897584E+03  0.37939729180E+03  0.00000000000E+00 0.  1.
         12    1    3    3    0    0 -0.67424415656E+02 -0.70214357489E+02 -0.67700915631E+03  0.68397186021E+03  0.00000000000E+00 0. -1.
         11    1    5    5    0    0 -0.16608310554E+02  0.88576368940E+01  0.23665176481E+02  0.30237961054E+02  0.00000000000E+00 0. -1.
        -12    1    5    5    0    0  0.56462027393E+02  0.12255004591E+03  0.62755957635E+01  0.13507722751E+03  0.00000000000E+00 0.  1.
          5    1    4    4  501    0  0.34704579554E+02 -0.77640764890E+02 -0.94948030158E+01  0.85674499701E+02  0.41800000000E+01 0.  1.
         -5    1    4    4    0  501  0.96054473863E+01 -0.49519940146E+00 -0.10678046503E+03  0.10729422144E+03  0.41800000000E+01 0.  1.
</event>
<event>
11    1  0.8041700E-009  0.1390786E+03  0.7561462E-02  0.1108592E+00
         22   -1    0    0    0    0  0.00000000000E+00  0.00000000000E+00  0.31162970414E+03  0.31162970414E+03  0.00000000000E+00 0.  1.
         22   -1    0    0    0    0 -0.00000000000E+00 -0.00000000000E+00 -0.41159822145E+03  0.41159822145E+03  0.00000000000E+00 0. -1.
         24    2    1    2    0    0  0.54904762598E+02  0.40190610023E+02 -0.31686801673E+03  0.33447811884E+03  0.82707036363E+02 0.  0.
         25    2    1    2    0    0 -0.19071692099E+02 -0.41483072815E+01 -0.24879742331E+02  0.12902361446E+03  0.12508858308E+03 0.  0.
        -24    2    1    2    0    0 -0.35833070499E+02 -0.36042302741E+02  0.24177924175E+03  0.25972619229E+03  0.80108905206E+02 0.  0.
        -11    1    3    3    0    0 -0.11382600838E+02 -0.11547210114E+02 -0.19047048415E+02  0.25013830506E+02  0.00000000000E+00 0.  1.
         12    1    3    3    0    0  0.66287363436E+02  0.51737820137E+02 -0.29782096832E+03  0.30946428833E+03  0.00000000000E+00 0. -1.
         13    1    5    5    0    0  0.16415551801E+02  0.13282485437E+02  0.79394830628E+02  0.82154938323E+02  0.00000000000E+00 0. -1.
        -14    1    5    5    0    0 -0.52248622300E+02 -0.49324788178E+02  0.16238441112E+03  0.17757125397E+03  0.00000000000E+00 0.  1.
          5    1    4    4  501    0  0.14011844117E+02  0.20736750890E+02  0.42695282201E+02  0.49665925294E+02  0.41800000000E+01 0.  1.
         -5    1    4    4    0  501 -0.33083536217E+02 -0.24885058171E+02 -0.67575024533E+02  0.79357689164E+02  0.41800000000E+01 0.  1.
</event>
<event>
11    1  0.8041700E-009  0.1289811E+03  0.7561462E-02  0.1120527E+00
         22   -1    0    0    0    0  0.00000000000E+00  0.00000000000E+00  0.16371934883E+04  0.16371934883E+04  0.00000000000E+00 0. -1.
         22   -1    0    0    0    0 -0.00000000000E+00 -0.00000000000E+00 -0.69213424014E+03  0.69213424014E+03  0.00000000000E+00 0. -1.
        -24    2    1    2    0    0 -0.13494877205E+02  0.16311625510E+02 -0.56981043681E+03  0.57710972924E+03  0.89014183380E+02 0.  0.
         25    2    1    2    0    0  0.28733816355E+02  0.11310857029E+02 -0.81863430520E+02  0.15264947380E+03  0.12508666158E+03 0.  0.
         24    2    1    2    0    0 -0.15238939150E+02 -0.27622482539E+02  0.15967331155E+04  0.15995685254E+04  0.89819811437E+02 0.  0.
        -13    1    5    5    0    0 -0.21645653273E+02  0.62880505864E+01  0.10303186807E+03  0.10546866702E+03  0.00000000000E+00 0.  1.
         14    1    5    5    0    0  0.64067141231E+01 -0.33910533126E+02  0.14937012475E+04  0.14940998584E+04  0.00000000000E+00 0. -1.
         13    1    3    3    0    0  0.31772808176E+02  0.29326542713E+02 -0.31873383001E+03  0.32165324783E+03  0.00000000000E+00 0. -1.
        -14    1    3    3    0    0 -0.45267685381E+02 -0.13014917203E+02 -0.25107660680E+03  0.25545648140E+03  0.00000000000E+00 0.  1.
          5    1    4    4  501    0 -0.22487819884E+02  0.17633881775E+02 -0.94947178171E+02  0.99242606134E+02  0.41800000000E+01 0.  1.
         -5    1    4    4    0  501  0.51221636240E+02 -0.63230247463E+01  0.13083747651E+02  0.53406867663E+02  0.41800000000E+01 0.  1.
</event>
<event>
11    1  0.8041700E-009  0.2373832E+03  0.7561462E-02  0.1030844E+00
         22   -1    0    0    0    0  0.00000000000E+00  0.00000000000E+00  0.43779767306E+03  0.43779767306E+03  0.00000000000E+00 0. -1.
         22   -1    0    0    0    0 -0.00000000000E+00 -0.00000000000E+00 -0.11828190981E+04  0.11828190981E+04  0.00000000000E+00 0.  1.
         24    2    1    2    0    0 -0.21543163290E+02  0.46780926380E+01 -0.68310605589E+03  0.68759565710E+03  0.75285534005E+02 0.  0.
         25    2    1    2    0    0 -0.15803846327E+03  0.89950460340E+02 -0.44247421788E+03  0.49446769885E+03  0.12509048936E+03 0.  0.
        -24    2    1    2    0    0  0.17958162656E+03 -0.94628552978E+02  0.38055884877E+03  0.43855341518E+03  0.79372142175E+02 0.  0.
        -11    1    3    3    0    0 -0.46665404676E+02 -0.41836537564E+01 -0.54018895515E+03  0.54221699551E+03  0.00000000000E+00 0.  1.
         12    1    3    3    0    0  0.25122241387E+02  0.88617463944E+01 -0.14291710074E+03  0.14537866159E+03  0.00000000000E+00 0. -1.
         13    1    5    5    0    0  0.17465172002E+03 -0.10651734933E+03  0.36439987493E+03  0.41789524748E+03  0.00000000000E+00 0. -1.
        -14    1    5    5    0    0  0.49299065424E+01  0.11888796357E+02  0.16158973833E+02  0.20658167699E+02  0.00000000000E+00 0.  1.
          5    1    4    4  501    0 -0.55026564002E+02  0.48296621230E+02 -0.55874450566E+02  0.92194972716E+02  0.41800000000E+01 0. -1.
         -5    1    4    4    0  501 -0.10301189927E+03  0.41653839110E+02 -0.38659976732E+03  0.40227272614E+03  0.41800000000E+01 0. -1.
</event>
<event>
11    1  0.8041700E-009  0.1411624E+03  0.7561462E-02  0.1106267E+00
         22   -1    0    0    0    0  0.00000000000E+00  0.00000000000E+00  0.13767254005E+03  0.13767254005E+03  0.00000000000E+00 0. -1.
         22   -1    0    0    0    0 -0.00000000000E+00 -0.00000000000E+00 -0.17206045009E+04  0.17206045009E+04  0.00000000000E+00 0.  1.
        -24    2    1    2    0    0 -0.55296792683E+02 -0.34432389683E+02 -0.14698597721E+04  0.14735097689E+04  0.80622359616E+02 0.  0.
         25    2    1    2    0    0  0.65093253101E+02  0.25216051241E+02 -0.21263838483E+03  0.25639021287E+03  0.12509147736E+03 0.  0.
         24    2    1    2    0    0 -0.97964604184E+01  0.92163384425E+01  0.99566195994E+02  0.12837705921E+03  0.79914519423E+02 0.  0.
        -11    1    5    5    0    0  0.10143956671E+02 -0.30693186593E+01 -0.11048595984E+02  0.15309867641E+02  0.00000000000E+00 0.  1.
         12    1    5    5    0    0 -0.19940417089E+02  0.12285657102E+02  0.11061479198E+03  0.11306719157E+03  0.00000000000E+00 0. -1.
         13    1    3    3    0    0 -0.39735472495E+00 -0.21322565565E+02 -0.89852144742E+02  0.92348349242E+02  0.00000000000E+00 0. -1.
        -14    1    3    3    0    0 -0.54899437958E+02 -0.13109824118E+02 -0.13800076273E+04  0.13811614197E+04  0.00000000000E+00 0.  1.
          5    1    4    4  501    0  0.83062150813E+02  0.48787108905E+01 -0.21322828352E+03  0.22892552503E+03  0.41800000000E+01 0. -1.
         -5    1    4    4    0  501 -0.17968897711E+02  0.20337340350E+02  0.58989868436E+00  0.27464687836E+02  0.41800000000E+01 0. -1.
</event>
<event>
11    1  0.8041700E-009  0.1680663E+03  0.7561462E-02  0.1079727E+00
         22   -1    0    0    0    0  0.00000000000E+00  0.00000000000E+00  0.34219297231E+04  0.34219297231E+04  0.00000000000E+00 0. -1.
         22   -1    0    0    0    0 -0.00000000000E+00 -0.00000000000E+00 -0.67694436638E+02  0.67694436638E+02  0.00000000000E+00 0. -1.
        -24    2    1    2    0    0 -0.36131566389E+02 -0.24032570498E+02  0.13573854378E+01  0.92346083772E+02  0.81504000873E+02 0.  0.
         25    2    1    2    0    0  0.12201193767E+03  0.91375969950E+02  0.45114329252E+03  0.49235657647E+03  0.12509295418E+03 0.  0.
         24    2    1    2    0    0 -0.85880371285E+02 -0.67343399452E+02  0.29017346085E+04  0.29049214995E+04  0.81207194495E+02 0.  0.
        -11    1    5    5    0    0  0.13808529154E+02 -0.21296367810E+02  0.42941298535E+03  0.43016243762E+03  0.00000000000E+00 0.  1.
         12    1    5    5    0    0 -0.99688900438E+02 -0.46047031642E+02  0.24723216232E+04  0.24747590619E+04  0.00000000000E+00 0. -1.
         11    1    3    3    0    0  0.21997269138E+02 -0.25852262296E+02 -0.26719585538E+01  0.34049356497E+02  0.00000000000E+00 0. -1.
        -12    1    3    3    0    0 -0.58128835527E+02  0.18196917977E+01  0.40293439915E+01  0.58296727275E+02  0.00000000000E+00 0.  1.
          5    1    4    4  501    0 -0.21184872503E+01  0.71202483720E+02  0.16527154498E+03  0.18001788149E+03  0.41800000000E+01 0.  1.
         -5    1    4    4    0  501  0.12413042492E+03  0.20173486230E+02  0.28587174754E+03  0.31233869498E+03  0.41800000000E+01 0.  1.
</event>
<event>
11    1  0.8041700E-009  0.1331970E+03  0.7561462E-02  0.1115402E+00
         22   -1    0    0    0    0  0.00000000000E+00  0.00000000000E+00  0.31821422064E+03  0.31821422064E+03  0.00000000000E+00 0. -1.
         22   -1    0    0    0    0 -0.00000000000E+00 -0.00000000000E+00 -0.11628149220E+03  0.11628149220E+03  0.00000000000E+00 0. -1.
         24    2    1    2    0    0  0.49623427046E+01 -0.27338304126E+02 -0.20992576337E+02  0.87516796084E+02  0.80290059272E+02 0.  0.
         25    2    1    2    0    0  0.30639366146E+02  0.52328030637E+02  0.43340401367E+02  0.14561318465E+03  0.12509122913E+03 0.  0.
        -24    2    1    2    0    0 -0.35601708850E+02 -0.24989726511E+02  0.17958490341E+03  0.20136573210E+03  0.80034070420E+02 0.  0.
        -13    1    3    3    0    0  0.34042172789E+02 -0.32376286098E+02  0.61991022815E+01  0.47386942282E+02  0.00000000000E+00 0.  1.
         14    1    3    3    0    0 -0.29079830085E+02  0.50379819721E+01 -0.27191678619E+02  0.40129853802E+02  0.00000000000E+00 0. -1.
         11    1    5    5    0    0 -0.26908730671E+02 -0.50768786411E+02  0.15254785861E+03  0.16301042490E+03  0.00000000000E+00 0. -1.
        -12    1    5    5    0    0 -0.86929781798E+01  0.25779059899E+02  0.27037044799E+02  0.38355307199E+02  0.00000000000E+00 0.  1.
          5    1    4    4  501    0 -0.41968250111E+02  0.86060551284E+01 -0.11527170546E+02  0.44561712973E+02  0.41800000000E+01 0.  1.
         -5    1    4    4    0  501  0.72607616257E+02  0.43721975509E+02  0.54867571914E+02  0.10105147168E+03  0.41800000000E+01 0.  1.
</event>
<event>
11    1  0.8041700E-009  0.2062544E+03  0.7561462E-02  0.1050187E+00
         22   -1    0    0    0    0  0.00000000000E+00  0.00000000000E+00  0.14560335811E+04  0.14560335811E+04  0.00000000000E+00 0.  1.
         22   -1    0    0    0    0 -0.00000000000E+00 -0.00000000000E+00 -0.68705741929E+03  0.68705741929E+03  0.00000000000E+00 0. -1.
        -24    2    1    2    0    0  0.40503295348E+02 -0.16480515760E+02 -0.64826168717E+03  0.65406457153E+03  0.75134042531E+02 0.  0.
         25    2    1    2    0    0 -0.19098028541E+03 -0.25904775837E+02  0.44267340214E+03  0.49875007092E+03  0.12508942985E+03 0.  0.
         24    2    1    2    0    0  0.15047699006E+03  0.42385291597E+02  0.97456444682E+03  0.99027635793E+03  0.80197048408E+02 0.  0.
        -11    1    5    5    0    0  0.11869987744E+03 -0.45330755459E+01  0.63464389776E+03  0.64566484080E+03  0.00000000000E+00 0.  1.
         12    1    5    5    0    0  0.31777112620E+02  0.46918367142E+02  0.33992054906E+03  0.34461151713E+03  0.00000000000E+00 0. -1.
         11    1    3    3    0    0  0.60781354784E+02 -0.10952808336E+02 -0.38054437321E+03  0.38552348447E+03  0.00000000000E+00 0. -1.
        -12    1    3    3    0    0 -0.20278059436E+02 -0.55277074244E+01 -0.26771731396E+03  0.26854108706E+03  0.00000000000E+00 0.  1.
          5    1    4    4  501    0 -0.50789950972E+02  0.27591629811E+02  0.23786461021E+03  0.24482230769E+03  0.41800000000E+01 0.  1.
         -5    1    4    4    0  501 -0.14019033444E+03 -0.53496405647E+02  0.20480879193E+03  0.25392776323E+03  0.41800000000E+01 0.  1.
</event>
<event>
11    1  0.8041700E-009  0.1766430E+03  0.7561462E-02  0.1072391E+00
         22   -1    0    0    0    0  0.00000000000E+00  0.00000000000E+00  0.58116763357E+03  0.58116763357E+03  0.00000000000E+00 0.  1.
         22   -1    0    0    0    0 -0.00000000000E+00 -0.00000000000E+00 -0.12991872542E+03  0.12991872542E+03  0.00000000000E+00 0.  1.
         24    2    1    2    0    0 -0.12616988002E+03 -0.20603249794E+01 -0.37277754158E+02  0.15360229853E+03  0.79252454829E+02 0.  0.
         25    2    1    2    0    0  0.11801074234E+03 -0.11344456094E+02  0.24304006530E+03  0.29794259606E+03  0.12508431242E+03 0.  0.
        -24    2    1    2    0    0  0.81591376788E+01  0.13404781073E+02  0.24548659701E+03  0.25954146440E+03  0.82775858497E+02 0.  0.
        -13    1    3    3    0    0 -0.13335955553E+03  0.45768294475E+01 -0.45332949734E+02  0.14092833196E+03  0.00000000000E+00 0.  1.
         14    1    3    3    0    0  0.71896755093E+01 -0.66371544270E+01  0.80551955759E+01  0.12673966569E+02  0.00000000000E+00 0. -1.
         11    1    5    5    0    0  0.12050685391E+01  0.45686065229E+02  0.94305397045E+02  0.10479588092E+03  0.00000000000E+00 0. -1.
        -12    1    5    5    0    0  0.69540691397E+01 -0.32281284156E+02  0.15118119997E+03  0.15474558348E+03  0.00000000000E+00 0.  1.
          5    1    4    4  501    0  0.52029426086E+02 -0.67271923534E+02  0.13289438850E+03  0.15783207459E+03  0.41800000000E+01 0. -1.
         -5    1    4    4    0  501  0.65981316255E+02  0.55927467440E+02  0.11014567680E+03  0.14011052147E+03  0.41800000000E+01 0. -1.
</event>
<event>
11    1  0.8041700E-009  0.1320019E+03  0.7561462E-02  0.1116833E+00
         22   -1    0    0    0    0  0.00000000000E+00  0.00000000000E+00  0.10472694212E+03  0.10472694212E+03  0.00000000000E+00 0. -1.
         22   -1    0    0    0    0 -0.00000000000E+00 -0.00000000000E+00 -0.22614443641E+04  0.22614443641E+04  0.00000000000E+00 0.  1.
        -24    2    1    2    0    0  0.61708284304E+01 -0.40456293955E+02 -0.20278823792E+04  0.20297298124E+04  0.76297947019E+02 0.  0.
         25    2    1    2    0    0 -0.74972625194E+01  0.75779444140E+02 -0.18528405953E+03  0.23617026209E+03  0.12508987521E+03 0.  0.
         24    2    1    2    0    0  0.13264340890E+01 -0.35323150185E+02  0.56449016745E+02  0.10027123172E+03  0.74955613885E+02 0.  0.
        -11    1    5    5    0    0 -0.30575282747E+02 -0.19477740283E+01  0.48278300580E+01  0.31015313666E+02  0.00000000000E+00 0.  1.
         12    1    5    5    0    0  0.31901716836E+02 -0.33375376157E+02  0.51621186687E+02  0.69255918055E+02  0.00000000000E+00 0. -1.
         13    1    3    3    0    0  0.94193902492E+00 -0.32087088293E+02 -0.28225762275E+03  0.28407716220E+03  0.00000000000E+00 0. -1.
        -14    1    3    3    0    0  0.52288894055E+01 -0.83692056616E+01 -0.17456247564E+04  0.17456526502E+04  0.00000000000E+00 0.  1.
          5    1    4    4  501    0  0.28559498121E+02 -0.12643036374E+02 -0.11021840624E+03  0.11463446591E+03  0.41800000000E+01 0. -1.
         -5    1    4    4    0  501 -0.36056760640E+02  0.88422480514E+02 -0.75065653296E+02  0.12153579618E+03  0.41800000000E+01 0. -1.
</event>
<event>
11    1  0.8041700E-009  0.1590639E+03  0.7561462E-02  0.1087961E+00
         22   -1    0    0    0    0  0.00000000000E+00  0.00000000000E+00  0.24046559596E+03  0.24046559596E+03  0.00000000000E+00 0.  1.
         22   -1    0    0    0    0 -0.00000000000E+00 -0.00000000000E+00 -0.70812938679E+03  0.70812938679E+03  0.00000000000E+00 0. -1.
        -24    2    1    2    0    0 -0.50789405382E+02 -0.67677664238E+02 -0.39808784868E+03  0.41725177616E+03  0.92006953555E+02 0.  0.
         25    2    1    2    0    0  0.66441188781E+02  0.12988609419E+03 -0.25102041103E+03  0.31614714335E+03  0.12511171195E+03 0.  0.
         24    2    1    2    0    0 -0.15651783399E+02 -0.62208429955E+02  0.18144446888E+03  0.21519606324E+03  0.96293215068E+02 0.  0.
        -11    1    5    5    0    0 -0.11949773395E+02 -0.86679320568E+02  0.11652906880E+03  0.14572276958E+03  0.00000000000E+00 0.  1.
         12    1    5    5    0    0 -0.37020100041E+01  0.24470890612E+02  0.64915400075E+02  0.69473293662E+02  0.00000000000E+00 0. -1.
         13    1    3    3    0    0 -0.53141699457E+02 -0.15309356102E+02 -0.30879928275E+03  0.31371231029E+03  0.00000000000E+00 0. -1.
        -14    1    3    3    0    0  0.23522940750E+01 -0.52368308135E+02 -0.89288565936E+02  0.10353946586E+03  0.00000000000E+00 0.  1.
          5    1    4    4  501    0 -0.61952092625E+01  0.55302744002E+02 -0.18396127163E+03  0.19223942357E+03  0.41800000000E+01 0.  1.
         -5    1    4    4    0  501  0.72636398043E+02  0.74583350191E+02 -0.67059139393E+02  0.12390771979E+03  0.41800000000E+01 0.  1.
</event>
<event>
11    1  0.8041700E-009  0.1333382E+03  0.7561462E-02  0.1115234E+00
         22   -1    0    0    0    0  0.00000000000E+00  0.00000000000E+00  0.11391216207E+04  0.11391216207E+04  0.00000000000E+00 0. -1.
         22   -1    0    0    0    0 -0.00000000000E+00 -0.00000000000E+00 -0.64108812109E+03  0.64108812109E+03  0.00000000000E+00 0. -1.
        -24    2    1    2    0    0 -0.38627051397E+02  0.25191086243E+02 -0.60189678487E+03  0.60894547031E+03  0.80051272603E+02 0.  0.
         25    2    1    2    0    0  0.57533519739E+02  0.47681232321E+00  0.10653991225E+03  0.17409424188E+03  0.12509084262E+03 0.  0.
         24    2    1    2    0    0 -0.18906468343E+02 -0.25667898566E+02  0.99339037220E+03  0.99717002960E+03  0.80668090183E+02 0.  0.
        -13    1    5    5    0    0  0.10042725199E+02 -0.59391552987E+01  0.20037169351E+02  0.23186592046E+02  0.00000000000E+00 0.  1.
         14    1    5    5    0    0 -0.28949193541E+02 -0.19728743268E+02  0.97335320285E+03  0.97398343755E+03  0.00000000000E+00 0. -1.
         11    1    3    3    0    0  0.44793856715E+01  0.38842336064E+02 -0.40692850598E+03  0.40880264303E+03  0.00000000000E+00 0. -1.
        -12    1    3    3    0    0 -0.43106437068E+02 -0.13651249821E+02 -0.19496827889E+03  0.20014282728E+03  0.00000000000E+00 0.  1.
          5    1    4    4  501    0  0.46939134308E+02 -0.55556146383E+02  0.30555193031E+02  0.78999113613E+02  0.41800000000E+01 0.  1.
         -5    1    4    4    0  501  0.10594385431E+02  0.56032958706E+02  0.75984719223E+02  0.95095128263E+02  0.41800000000E+01 0.  1.
</event>
<event>
11    1  0.8041700E-009  0.1525474E+03  0.7561462E-02  0.1094304E+00
         22   -1    0    0    0    0  0.00000000000E+00  0.00000000000E+00  0.13945539071E+03  0.13945539071E+03  0.00000000000E+00 0.  1.
         22   -1    0    0    0    0 -0.00000000000E+00 -0.00000000000E+00 -0.34825260117E+03  0.34825260117E+03  0.00000000000E+00 0. -1.
        -24    2    1    2    0    0  0.36326718453E+02  0.79181884878E+02 -0.13337170155E+03  0.17861974557E+03  0.80793572555E+02 0.  0.
         25    2    1    2    0    0  0.50502443759E+02 -0.98689255803E+02 -0.85723046119E+02  0.18784674498E+03  0.12509153820E+03 0.  0.
         24    2    1    2    0    0 -0.86829162212E+02  0.19507370925E+02  0.10297537206E+02  0.12124150132E+03  0.81692236100E+02 0.  0.
        -13    1    5    5    0    0 -0.10211118452E+03  0.95379187316E+01  0.85362868253E+01  0.10291032062E+03  0.00000000000E+00 0.  1.
         14    1    5    5    0    0  0.15282022308E+02  0.99694521932E+01  0.17612503803E+01  0.18331180698E+02  0.00000000000E+00 0. -1.
         13    1    3    3    0    0 -0.38124968997E+01  0.80388247689E+01 -0.81220126721E+02  0.81705977877E+02  0.00000000000E+00 0. -1.
        -14    1    3    3    0    0  0.40139215352E+02  0.71143060110E+02 -0.52151574825E+02  0.96913767689E+02  0.00000000000E+00 0.  1.
          5    1    4    4  501    0  0.67969847540E+01 -0.21255471569E+02 -0.95624646873E+02  0.98282956625E+02  0.41800000000E+01 0.  1.
         -5    1    4    4    0  501  0.43705459005E+02 -0.77433784234E+02  0.99016007541E+01  0.89563788359E+02  0.41800000000E+01 0.  1.
</event>
<event>
11    1  0.8041700E-009  0.1628528E+03  0.7561462E-02  0.1084424E+00
         22   -1    0    0    0    0  0.00000000000E+00  0.00000000000E+00  0.74116840635E+03  0.74116840635E+03  0.00000000000E+00 0. -1.
         22   -1    0    0    0    0 -0.00000000000E+00 -0.00000000000E+00 -0.14803257531E+03  0.14803257531E+03  0.00000000000E+00 0. -1.
         24    2    1    2    0    0  0.34266903899E+01 -0.99338434879E+01 -0.91623079763E+02  0.12806307123E+03  0.88853463710E+02 0.  0.
         25    2    1    2    0    0 -0.90282844438E+02 -0.48842868681E+02  0.19257617474E+03  0.25153407943E+03  0.12508873737E+03 0.  0.
        -24    2    1    2    0    0  0.86856154048E+02  0.58776712169E+02  0.49218273606E+03  0.50960383100E+03  0.80333837845E+02 0.  0.
        -13    1    3    3    0    0 -0.21739450241E+02  0.10514895111E+02  0.62613536843E+01  0.24947369921E+02  0.00000000000E+00 0.  1.
         14    1    3    3    0    0  0.25166140631E+02 -0.20448738599E+02 -0.97884433447E+02  0.10311570131E+03  0.00000000000E+00 0. -1.
         13    1    5    5    0    0  0.87558766913E+02  0.32708250013E+02  0.45295973171E+03  0.46250284954E+03  0.00000000000E+00 0. -1.
        -14    1    5    5    0    0 -0.70261286494E+00  0.26068462156E+02  0.39223004349E+02  0.47100981456E+02  0.00000000000E+00 0.  1.
          5    1    4    4  501    0 -0.86135436405E+02 -0.77417443352E+02  0.95498885911E+02  0.15016751829E+03  0.41800000000E+01 0. -1.
         -5    1    4    4    0  501 -0.41474080326E+01  0.28574574671E+02  0.97077288828E+02  0.10136656114E+03  0.41800000000E+01 0. -1.
</event>
<event>
11    1  0.8041700E-009  0.1440222E+03  0.7561462E-02  0.1103148E+00
         22   -1    0    0    0    0  0.00000000000E+00  0.00000000000E+00  0.19573093294E+04  0.19573093294E+04  0.00000000000E+00 0. -1.
         22   -1    0    0    0    0 -0.00000000000E+00 -0.00000000000E+00 -0.20337297916E+04  0.20337297916E+04  0.00000000000E+00 0. -1.
         24    2    1    2    0    0  0.69409251071E+02 -0.14685801036E+02 -0.19772575021E+04  0.19803549887E+04  0.85001967818E+02 0.  0.
         25    2    1    2    0    0 -0.10574324007E+03  0.13998097039E+02  0.71989818709E+02  0.17946551087E+03  0.12509099109E+03 0.  0.
        -24    2    1    2    0    0  0.36333988996E+02  0.68770399696E+00  0.18288472212E+04  0.18312186216E+04  0.85783738121E+02 0.  0.
        -11    1    3    3    0    0  0.20972097561E+02  0.16726593948E+02 -0.16406037211E+03  0.16623902525E+03  0.00000000000E+00 0.  1.
         12    1    3    3    0    0  0.48437153510E+02 -0.31412394985E+02 -0.18131971300E+04  0.18141159634E+04  0.00000000000E+00 0. -1.
         13    1    5    5    0    0  0.43952874066E+02 -0.25104240730E+02  0.15993856233E+04  0.16001863798E+04  0.00000000000E+00 0. -1.
        -14    1    5    5    0    0 -0.76188850702E+01  0.25791944727E+02  0.22946159793E+03  0.23103224179E+03  0.00000000000E+00 0.  1.
          5    1    4    4  501    0 -0.11390102655E+02  0.53897085846E+02  0.19158489039E+01  0.55279048275E+02  0.41800000000E+01 0.  1.
         -5    1    4    4    0  501 -0.94353137412E+02 -0.39898988806E+02  0.70073969805E+02  0.12418646259E+03  0.41800000000E+01 0.  1.
</event>
<event>
11    1  0.8041700E-009  0.1368869E+03  0.7561462E-02  0.1111085E+00
         22   -1    0    0    0    0  0.00000000000E+00  0.00000000000E+00  0.95072376139E+03  0.95072376139E+03  0.00000000000E+00 0. -1.
         22   -1    0    0    0    0 -0.00000000000E+00 -0.00000000000E+00 -0.11922768724E+04  0.11922768724E+04  0.00000000000E+00 0. -1.
        -24    2    1    2    0    0  0.39354942355E+02 -0.32992301960E+02 -0.11522219427E+04  0.11558150222E+04  0.75204100622E+02 0.  0.
         25    2    1    2    0    0 -0.77668560290E+02 -0.66325545320E+01  0.11949020593E+03  0.18974666764E+03  0.12509793175E+03 0.  0.
         24    2    1    2    0    0  0.38313617935E+02  0.39624856491E+02  0.79117862575E+03  0.79743894400E+03  0.83109500027E+02 0.  0.
        -13    1    5    5    0    0  0.25027443209E+02 -0.92280974382E+01  0.77408000899E+02  0.81875083506E+02  0.00000000000E+00 0.  1.
         14    1    5    5    0    0  0.13286174725E+02  0.48852953930E+02  0.71377062485E+03  0.71556386049E+03  0.00000000000E+00 0. -1.
         13    1    3    3    0    0  0.46755989454E+02 -0.43199640724E+02 -0.11080998953E+04  0.11099268937E+04  0.00000000000E+00 0. -1.
        -14    1    3    3    0    0 -0.74010470995E+01  0.10207338765E+02 -0.44122047440E+02  0.45888128456E+02  0.00000000000E+00 0.  1.
          5    1    4    4  501    0 -0.99067321244E+02 -0.86884499066E+01  0.39961434914E+02  0.10725768961E+03  0.41800000000E+01 0. -1.
         -5    1    4    4    0  501  0.21398760955E+02  0.20558953746E+01  0.79528771019E+02  0.82488978027E+02  0.41800000000E+01 0. -1.
</event>
<event>
11    1  0.8041700E-009  0.1309483E+03  0.7561462E-02  0.1118109E+00
         22   -1    0    0    0    0  0.00000000000E+00  0.00000000000E+00  0.11339599885E+04  0.11339599885E+04  0.00000000000E+00 0. -1.
         22   -1    0    0    0    0 -0.00000000000E+00 -0.00000000000E+00 -0.11213901104E+04  0.11213901104E+04  0.00000000000E+00 0.  1.
        -24    2    1    2    0    0  0.31575453609E+02  0.24474531237E+02 -0.10669500136E+04  0.10706491220E+04  0.79443055186E+02 0.  0.
         25    2    1    2    0    0 -0.41457225092E+02  0.13593470334E+02  0.35854247473E+02  0.13723116163E+03  0.12507350124E+03 0.  0.
         24    2    1    2    0    0  0.98817714825E+01 -0.38068001571E+02  0.10436656442E+04  0.10474698153E+04  0.80051327238E+02 0.  0.
        -13    1    5    5    0    0 -0.33244750127E+02 -0.41230966575E+01  0.32955113739E+03  0.33124940074E+03  0.00000000000E+00 0.  1.
         14    1    5    5    0    0  0.43126521609E+02 -0.33944904913E+02  0.71411450677E+03  0.71622041454E+03  0.00000000000E+00 0. -1.
         11    1    3    3    0    0 -0.79551937731E+01  0.25957553112E+02 -0.12711408738E+03  0.12998104047E+03  0.00000000000E+00 0. -1.
        -12    1    3    3    0    0  0.39530647383E+02 -0.14830218754E+01 -0.93983592620E+03  0.94066808153E+03  0.00000000000E+00 0.  1.
          5    1    4    4  501    0  0.28798614624E+02  0.40112322287E+02 -0.79565217011E+01  0.50191007572E+02  0.41800000000E+01 0. -1.
         -5    1    4    4    0  501 -0.70255839716E+02 -0.26518851953E+02  0.43810769174E+02  0.87040154059E+02  0.41800000000E+01 0. -1.
</event>
<event>
11    1  0.8041700E-009  0.1376422E+03  0.7561462E-02  0.1110220E+00
         22   -1    0    0    0    0  0.00000000000E+00  0.00000000000E+00  0.69058988633E+03  0.69058988633E+03  0.00000000000E+00 0. -1.
         22   -1    0    0    0    0 -0.00000000000E+00 -0.00000000000E+00 -0.21666998692E+03  0.21666998692E+03  0.00000000000E+00 0. -1.
        -24    2    1    2    0    0 -0.31786937041E+02 -0.46097024106E+02 -0.17944049152E+03  0.20408908426E+03  0.79486598360E+02 0.  0.
         25    2    1    2    0    0  0.52920709923E+02  0.78083208867E+02  0.29738259146E+03  0.33612675148E+03  0.12508876174E+03 0.  0.
         24    2    1    2    0    0 -0.21133772882E+02 -0.31986184761E+02  0.35597779947E+03  0.36704403752E+03  0.80816949893E+02 0.  0.
        -13    1    5    5    0    0 -0.26057149731E+02  0.13964429640E+01  0.31895703082E+02  0.41209962147E+02  0.00000000000E+00 0.  1.
         14    1    5    5    0    0  0.49233768496E+01 -0.33382627725E+02  0.32408209638E+03  0.32583407537E+03  0.00000000000E+00 0. -1.
         11    1    3    3    0    0  0.48105380476E+01 -0.40703921113E+02 -0.15357545120E+03  0.15895084046E+03  0.00000000000E+00 0. -1.
        -12    1    3    3    0    0 -0.36597475089E+02 -0.53931029932E+01 -0.25865040316E+02  0.45138243800E+02  0.00000000000E+00 0.  1.
          5    1    4    4  501    0  0.44936149521E+02  0.91887917062E+02  0.11896194494E+03  0.15694605309E+03  0.41800000000E+01 0.  1.
         -5    1    4    4    0  501  0.79845604019E+01 -0.13804708195E+02  0.17842064652E+03  0.17918069840E+03  0.41800000000E+01 0.  1.
</event>
<event>
11    1  0.8041700E-009  0.1343063E+03  0.7561462E-02  0.1114088E+00
         22   -1    0    0    0    0  0.00000000000E+00  0.00000000000E+00  0.52447543455E+03  0.52447543455E+03  0.00000000000E+00 0.  1.
         22   -1    0    0    0    0 -0.00000000000E+00 -0.00000000000E+00 -0.33842664658E+04  0.33842664658E+04  0.00000000000E+00 0. -1.
         24    2    1    2    0    0  0.20057597329E+02 -0.45172473279E+02 -0.31845303487E+04  0.31859264101E+04  0.80316182100E+02 0.  0.
         25    2    1    2    0    0  0.25978968853E+01  0.36416377272E+02 -0.17374756271E+03  0.21718379017E+03  0.12509069335E+03 0.  0.
        -24    2    1    2    0    0 -0.22655494214E+02  0.87560960071E+01  0.49848688015E+03  0.50563170012E+03  0.81143735732E+02 0.  0.
        -11    1    3    3    0    0 -0.29534469382E+02 -0.29701284873E+02 -0.12652498869E+04  0.12659430191E+04  0.00000000000E+00 0.  1.
         12    1    3    3    0    0  0.49592066711E+02 -0.15471188407E+02 -0.19192804618E+04  0.19199833910E+04  0.00000000000E+00 0. -1.
         13    1    5    5    0    0 -0.74272706474E+01  0.30263535524E+02  0.73556472960E+02  0.79884921268E+02  0.00000000000E+00 0. -1.
        -14    1    5    5    0    0 -0.15228223567E+02 -0.21507439517E+02  0.42493040719E+03  0.42574677885E+03  0.00000000000E+00 0.  1.
          5    1    4    4  501    0 -0.42387820682E+02  0.59790159302E+01 -0.15293416057E+03  0.15886725856E+03  0.41800000000E+01 0.  1.
         -5    1    4    4    0  501  0.44985717567E+02  0.30437361342E+02 -0.20813402148E+02  0.58316531614E+02  0.41800000000E+01 0.  1.
</event>
<event>
11    1  0.8041700E-009  0.1538507E+03  0.7561462E-02  0.1093008E+00
         22   -1    0    0    0    0  0.00000000000E+00  0.00000000000E+00  0.12593633797E+03  0.12593633797E+03  0.00000000000E+00 0.  1.
         22   -1    0    0    0    0 -0.00000000000E+00 -0.00000000000E+00 -0.76751000294E+03  0.76751000294E+03  0.00000000000E+00 0.  1.
        -24    2    1    2    0    0  0.89661366389E+02  0.40065297816E+02 -0.51680237902E+03  0.53197394831E+03  0.79165611215E+02 0.  0.
         25    2    1    2    0    0 -0.56009329517E+02 -0.32221012149E+02 -0.20098446022E+03  0.24538757108E+03  0.12508024693E+03 0.  0.
         24    2    1    2    0    0 -0.33652036872E+02 -0.78442856667E+01  0.76213174285E+02  0.11608482152E+03  0.80456481718E+02 0.  0.
        -13    1    5    5    0    0 -0.63374741387E+01  0.74066892949E+01  0.83415074158E+02  0.83982719780E+02  0.00000000000E+00 0.  1.
         14    1    5    5    0    0 -0.27314562733E+02 -0.15250974962E+02 -0.72018998736E+01  0.32102101744E+02  0.00000000000E+00 0. -1.
         11    1    3    3    0    0  0.17261253948E+02  0.47556140139E+02 -0.15943164612E+03  0.16726621636E+03  0.00000000000E+00 0. -1.
        -12    1    3    3    0    0  0.72400112440E+02 -0.74908423235E+01 -0.35737073291E+03  0.36470773194E+03  0.00000000000E+00 0.  1.
          5    1    4    4  501    0 -0.73745862703E+02  0.27121417828E+02 -0.11446680790E+03  0.13890336958E+03  0.41800000000E+01 0.  1.
         -5    1    4    4    0  501  0.17736533186E+02 -0.59342429977E+02 -0.86517652322E+02  0.10648420150E+03  0.41800000000E+01 0.  1.
</event>
<event>
11    1  0.8041700E-009  0.1821780E+03  0.7561462E-02  0.1067895E+00
         22   -1    0    0    0    0  0.00000000000E+00  0.00000000000E+00  0.70261452093E+03  0.70261452093E+03  0.00000000000E+00 0. -1.
         22   -1    0    0    0    0 -0.00000000000E+00 -0.00000000000E+00 -0.36311697202E+03  0.36311697202E+03  0.00000000000E+00 0.  1.
         24    2    1    2    0    0 -0.12422830788E+03  0.14200921979E+02 -0.23952661061E+03  0.28182974769E+03  0.80129088522E+02 0.  0.
         25    2    1    2    0    0  0.17077302388E+03 -0.11543943807E+03  0.61999068845E+02  0.24895952484E+03  0.12508905196E+03 0.  0.
        -24    2    1    2    0    0 -0.46544716006E+02  0.10123851610E+03  0.51702509068E+03  0.53494222043E+03  0.80203410611E+02 0.  0.
        -11    1    3    3    0    0 -0.27026304615E+02  0.39498474093E+02 -0.84419480981E+02  0.97042255569E+02  0.00000000000E+00 0.  1.
         12    1    3    3    0    0 -0.97202003263E+02 -0.25297552114E+02 -0.15510712963E+03  0.18478749212E+03  0.00000000000E+00 0. -1.
         13    1    5    5    0    0 -0.61905663933E+02  0.47213911686E+02  0.35566007531E+03  0.36408179555E+03  0.00000000000E+00 0. -1.
        -14    1    5    5    0    0  0.15360947927E+02  0.54024604409E+02  0.16136501537E+03  0.17086042487E+03  0.00000000000E+00 0.  1.
          5    1    4    4  501    0  0.18118930449E+03 -0.78142484335E+02  0.69594813314E+02  0.20927666463E+03  0.41800000000E+01 0.  1.
         -5    1    4    4    0  501 -0.10416280607E+02 -0.37296953739E+02 -0.75957444696E+01  0.39682860204E+02  0.41800000000E+01 0.  1.
</event>
<event>
11    1  0.8041700E-009  0.1375967E+03  0.7561462E-02  0.1110272E+00
         22   -1    0    0    0    0  0.00000000000E+00  0.00000000000E+00  0.25477718461E+04  0.25477718461E+04  0.00000000000E+00 0.  1.
         22   -1    0    0    0    0 -0.00000000000E+00 -0.00000000000E+00 -0.36751733240E+03  0.36751733240E+03  0.00000000000E+00 0.  1.
        -24    2    1    2    0    0 -0.36800399079E+02 -0.30689141112E+02 -0.25977039451E+03  0.27526080181E+03  0.77406449311E+02 0.  0.
         25    2    1    2    0    0 -0.18184609819E+02  0.47736935103E+02 -0.52960398825E+02  0.14512650104E+03  0.12508957771E+03 0.  0.
         24    2    1    2    0    0  0.54985008898E+02 -0.17047793991E+02  0.24929853071E+04  0.24949018757E+04  0.79029421953E+02 0.  0.
        -11    1    5    5    0    0  0.61504581619E+02 -0.39720084950E+02  0.20236715633E+04  0.20249955789E+04  0.00000000000E+00 0.  1.
         12    1    5    5    0    0 -0.65195727212E+01  0.22672290959E+02  0.46931374379E+03  0.46990629674E+03  0.00000000000E+00 0. -1.
         11    1    3    3    0    0 -0.44044634020E+02  0.10868779678E+02 -0.96545657685E+02  0.10667297772E+03  0.00000000000E+00 0. -1.
        -12    1    3    3    0    0  0.72442349413E+01 -0.41557920790E+02 -0.16322473683E+03  0.16858782409E+03  0.00000000000E+00 0.  1.
          5    1    4    4  501    0  0.16566364821E+01  0.16242019524E+02 -0.90523411321E+02  0.92078814283E+02  0.41800000000E+01 0.  1.
         -5    1    4    4    0  501 -0.19841246301E+02  0.31494915580E+02  0.37563012495E+02  0.53047686753E+02  0.41800000000E+01 0.  1.
</event>
<event>
11    1  0.8041700E-009  0.2051333E+03  0.7561462E-02  0.1050952E+00
         22   -1    0    0    0    0  0.00000000000E+00  0.00000000000E+00  0.16727006667E+04  0.16727006667E+04  0.00000000000E+00 0. -1.
         22   -1    0    0    0    0 -0.00000000000E+00 -0.00000000000E+00 -0.61357406503E+03  0.61357406503E+03  0.00000000000E+00 0.  1.
         24    2    1    2    0    0  0.38997601790E+02  0.82858434351E+02 -0.51674880612E+03  0.53072464110E+03  0.79075805146E+02 0.  0.
         25    2    1    2    0    0 -0.10343338552E+03 -0.22609993909E+03  0.14495594997E+03  0.31381457144E+03  0.12509080750E+03 0.  0.
        -24    2    1    2    0    0  0.64435783726E+02  0.14324150474E+03  0.14309194578E+04  0.14417355192E+04  0.80004460230E+02 0.  0.
        -11    1    3    3    0    0  0.39373392392E+02  0.71655881859E+02 -0.51210691503E+03  0.51859263575E+03  0.00000000000E+00 0.  1.
         12    1    3    3    0    0 -0.37579060188E+00  0.11202552492E+02 -0.46418910852E+01  0.12132005348E+02  0.00000000000E+00 0. -1.
         13    1    5    5    0    0  0.19797155929E+02  0.69685014167E+02  0.98044082437E+03  0.98311349227E+03  0.00000000000E+00 0. -1.
        -14    1    5    5    0    0  0.44638627797E+02  0.73556490570E+02  0.45047863345E+03  0.45862202693E+03  0.00000000000E+00 0.  1.
          5    1    4    4  501    0  0.16297236788E+02 -0.21872938814E+02 -0.11631353341E+02  0.29946388093E+02  0.41800000000E+01 0.  1.
         -5    1    4    4    0  501 -0.11973062230E+03 -0.20422700028E+03  0.15658730331E+03  0.28386818335E+03  0.41800000000E+01 0.  1.
</event>
<event>
11    1  0.8041700E-009  0.1333305E+03  0.7561462E-02  0.1115243E+00
         22   -1    0    0    0    0  0.00000000000E+00  0.00000000000E+00  0.29220580774E+04  0.29220580774E+04  0.00000000000E+00 0. -1.
         22   -1    0    0    0    0 -0.00000000000E+00 -0.00000000000E+00 -0.67106397388E+02  0.67106397388E+02  0.00000000000E+00 0.  1.
         24    2    1    2    0    0  0.47771100201E+02 -0.10207655965E+02  0.24721263340E+02  0.96491288624E+02  0.79455356424E+02 0.  0.
         25    2    1    2    0    0 -0.37031570704E+02  0.16320634957E+02  0.11052427337E+03  0.17175864135E+03  0.12509082908E+03 0.  0.
        -24    2    1    2    0    0 -0.10739529497E+02 -0.61129789921E+01  0.27197061433E+04  0.27209145448E+04  0.80135811427E+02 0.  0.
        -11    1    3    3    0    0  0.24847207852E+02 -0.43928466850E+02  0.23566799363E+02  0.55699981778E+02  0.00000000000E+00 0.  1.
         12    1    3    3    0    0  0.22923892349E+02  0.33720810884E+02  0.11544639765E+01  0.40791306846E+02  0.00000000000E+00 0. -1.
         13    1    5    5    0    0 -0.25116668950E+02 -0.22029302844E+02  0.24864342725E+04  0.24866587077E+04  0.00000000000E+00 0. -1.
        -14    1    5    5    0    0  0.14377139453E+02  0.15916323852E+02  0.23327187078E+03  0.23425583707E+03  0.00000000000E+00 0.  1.
          5    1    4    4  501    0  0.22644748478E+02 -0.37456427699E+02  0.14073167086E+02  0.46165951105E+02  0.41800000000E+01 0.  1.
         -5    1    4    4    0  501 -0.59676319182E+02  0.53777062656E+02  0.96451106282E+02  0.12559269024E+03  0.41800000000E+01 0.  1.
</event>
<event>
11    1  0.8041700E-009  0.1324244E+03  0.7561462E-02  0.1116326E+00
         22   -1    0    0    0    0  0.00000000000E+00  0.00000000000E+00  0.15765115362E+03  0.15765115362E+03  0.00000000000E+00 0.  1.
         22   -1    0    0    0    0 -0.00000000000E+00 -0.00000000000E+00 -0.27086192789E+03  0.27086192789E+03  0.00000000000E+00 0. -1.
         24    2    1    2    0    0 -0.85920767785E+01  0.38044480700E+02 -0.14900075298E+03  0.17310748698E+03  0.79017538351E+02 0.  0.
         25    2    1    2    0    0 -0.13903807409E+02 -0.68420049762E+02 -0.28303731001E+02  0.14601907684E+03  0.12508337437E+03 0.  0.
        -24    2    1    2    0    0  0.22495884187E+02  0.30375569062E+02  0.64093709703E+02  0.10938651769E+03  0.80178966237E+02 0.  0.
        -13    1    3    3    0    0 -0.31860264626E+02  0.17297555960E+02 -0.22154299636E+02  0.42486408375E+02  0.00000000000E+00 0.  1.
         14    1    3    3    0    0  0.23268187847E+02  0.20746924739E+02 -0.12684645334E+03  0.13062107861E+03  0.00000000000E+00 0. -1.
         11    1    5    5    0    0  0.50933983214E+02  0.74531730795E+01  0.30949246311E+02  0.60063934954E+02  0.00000000000E+00 0. -1.
        -12    1    5    5    0    0 -0.28438099026E+02  0.22922395983E+02  0.33144463392E+02  0.49322582732E+02  0.00000000000E+00 0.  1.
          5    1    4    4  501    0 -0.57821385537E+02 -0.13465666947E+02  0.17421544778E+02  0.62013058578E+02  0.41800000000E+01 0.  1.
         -5    1    4    4    0  501  0.43917578128E+02 -0.54954382815E+02 -0.45725275779E+02  0.84006018262E+02  0.41800000000E+01 0.  1.
</event>
<event>
11    1  0.8041700E-009  0.1587256E+03  0.7561462E-02  0.1088282E+00
         22   -1    0    0    0    0  0.00000000000E+00  0.00000000000E+00  0.12981267787E+04  0.12981267787E+04  0.00000000000E+00 0.  1.
         22   -1    0    0    0    0 -0.00000000000E+00 -0.00000000000E+00 -0.45084101941E+02  0.45084101941E+02  0.00000000000E+00 0. -1.
         24    2    1    2    0    0  0.62436079514E+02 -0.88878042118E+02  0.26847639558E+03  0.30064898914E+03  0.80701110835E+02 0.  0.
         25    2    1    2    0    0 -0.69319315304E+02 -0.25694564276E+02  0.20863790716E+03  0.25424850328E+03  0.12508855667E+03 0.  0.
        -24    2    1    2    0    0  0.68832357904E+01  0.11457260639E+03  0.77592837405E+03  0.78831338825E+03  0.78733064020E+02 0.  0.
        -13    1    3    3    0    0  0.56777208678E+02 -0.14927951085E+02  0.14742345647E+03  0.15868260984E+03  0.00000000000E+00 0.  1.
         14    1    3    3    0    0  0.56588708366E+01 -0.73950091034E+02  0.12105293911E+03  0.14196637929E+03  0.00000000000E+00 0. -1.
         11    1    5    5    0    0 -0.19924324131E+02  0.21368870968E+02  0.71479188256E+02  0.77219697566E+02  0.00000000000E+00 0. -1.
        -12    1    5    5    0    0  0.26807559922E+02  0.93203735427E+02  0.70444918579E+03  0.71109369068E+03  0.00000000000E+00 0.  1.
          5    1    4    4  501    0 -0.10242700047E+03 -0.14806812534E+02  0.11777192526E+03  0.15683823164E+03  0.41800000000E+01 0.  1.
         -5    1    4    4    0  501  0.33107685169E+02 -0.10887751743E+02  0.90865981896E+02  0.97410271641E+02  0.41800000000E+01 0.  1.
</event>
<event>
11    1  0.8041700E-009  0.1468048E+03  0.7561462E-02  0.1100189E+00
         22   -1    0    0    0    0  0.00000000000E+00  0.00000000000E+00  0.86581765897E+03  0.86581765897E+03  0.00000000000E+00 0.  1.
         22   -1    0    0    0    0 -0.00000000000E+00 -0.00000000000E+00 -0.20105411924E+04  0.20105411924E+04  0.00000000000E+00 0.  1.
         24    2    1    2    0    0  0.64661603355E+02 -0.25166280073E+02 -0.14941318312E+04  0.14978961976E+04  0.80303332581E+02 0.  0.
         25    2    1    2    0    0 -0.53558547208E+01  0.74387312894E+02 -0.50069473779E+03  0.52144397235E+03  0.12508572401E+03 0.  0.
        -24    2    1    2    0    0 -0.59305748634E+02 -0.49221032821E+02  0.85010303560E+03  0.85701868136E+03  0.76589602257E+02 0.  0.
        -13    1    3    3    0    0  0.34981833953E+02 -0.55277341193E+01 -0.13028826606E+04  0.13033639215E+04  0.00000000000E+00 0.  1.
         14    1    3    3    0    0  0.29679769402E+02 -0.19638545954E+02 -0.19124917059E+03  0.19453227612E+03  0.00000000000E+00 0. -1.
         11    1    5    5    0    0 -0.48637945401E+02  0.28521306851E+01  0.25993149385E+03  0.26445824978E+03  0.00000000000E+00 0. -1.
        -12    1    5    5    0    0 -0.10667803232E+02 -0.52073163506E+02  0.59017154175E+03  0.59256043158E+03  0.00000000000E+00 0.  1.
          5    1    4    4  501    0 -0.65080752803E+02  0.41271176598E+02 -0.25966623103E+03  0.27089266941E+03  0.41800000000E+01 0. -1.
         -5    1    4    4    0  501  0.59724898083E+02  0.33116136296E+02 -0.24102850675E+03  0.25055130293E+03  0.41800000000E+01 0. -1.
</event>
<event>
11    1  0.8041700E-009  0.1534071E+03  0.7561462E-02  0.1093447E+00
         22   -1    0    0    0    0  0.00000000000E+00  0.00000000000E+00  0.46306560552E+03  0.46306560552E+03  0.00000000000E+00 0. -1.
         22   -1    0    0    0    0 -0.00000000000E+00 -0.00000000000E+00 -0.11278609129E+04  0.11278609129E+04  0.00000000000E+00 0.  1.
        -24    2    1    2    0    0 -0.66402103147E+01  0.50175434104E+02 -0.92144476819E+03  0.92609341430E+03  0.77633012367E+02 0.  0.
         25    2    1    2    0    0  0.32583307802E+02 -0.13295101766E+03 -0.15172555095E+03  0.23959421766E+03  0.12508837389E+03 0.  0.
         24    2    1    2    0    0 -0.25943097487E+02  0.82775583559E+02  0.40837501172E+03  0.42523888649E+03  0.80827710911E+02 0.  0.
        -11    1    5    5    0    0 -0.39798055430E+02  0.84814341642E+01  0.10545173829E+03  0.11303047841E+03  0.00000000000E+00 0.  1.
         12    1    5    5    0    0  0.13854957943E+02  0.74294149394E+02  0.30292327342E+03  0.31220840808E+03  0.00000000000E+00 0. -1.
         13    1    3    3    0    0  0.24656910912E+02  0.28669059635E+01 -0.11462129707E+03  0.11727840444E+03  0.00000000000E+00 0. -1.
        -14    1    3    3    0    0 -0.31297121227E+02  0.47308528140E+02 -0.80682347112E+03  0.80881500986E+03  0.00000000000E+00 0.  1.
          5    1    4    4  501    0  0.57569867183E+02 -0.26634403539E+02 -0.16410575387E+02  0.65654096931E+02  0.41800000000E+01 0. -1.
         -5    1    4    4    0  501 -0.24986559381E+02 -0.10631661412E+03 -0.13531497557E+03  0.17394012073E+03  0.41800000000E+01 0. -1.
</event>
<event>
11    1  0.8041700E-009  0.1335650E+03  0.7561462E-02  0.1114965E+00
         22   -1    0    0    0    0  0.00000000000E+00  0.00000000000E+00  0.13876813944E+04  0.13876813944E+04  0.00000000000E+00 0.  1.
         22   -1    0    0    0    0 -0.00000000000E+00 -0.00000000000E+00 -0.98345757102E+02  0.98345757102E+02  0.00000000000E+00 0.  1.
        -24    2    1    2    0    0  0.31211560194E+02  0.21890842502E+01 -0.65782583220E+02  0.10786124979E+03  0.79547139301E+02 0.  0.
         25    2    1    2    0    0  0.22524283292E+02  0.26150562236E-01  0.44161541213E+03  0.45954100845E+03  0.12508565944E+03 0.  0.
         24    2    1    2    0    0 -0.53735843486E+02 -0.22152348125E+01  0.91350280844E+03  0.91862489331E+03  0.80572113327E+02 0.  0.
        -13    1    5    5    0    0 -0.37202182494E+02 -0.40289856335E+02  0.47197805259E+03  0.47515319323E+03  0.00000000000E+00 0.  1.
         14    1    5    5    0    0 -0.16533660992E+02  0.38074621523E+02  0.44152475585E+03  0.44347170008E+03  0.00000000000E+00 0. -1.
         11    1    3    3    0    0  0.18114896868E+02  0.26233664425E+02  0.47208304363E+01  0.32227951808E+02  0.00000000000E+00 0. -1.
        -12    1    3    3    0    0  0.13096663326E+02 -0.24044580175E+02 -0.70503413656E+02  0.75633297979E+02  0.00000000000E+00 0.  1.
          5    1    4    4  501    0  0.57249673862E+01  0.47625419212E+02  0.72919641398E+02  0.87382505733E+02  0.41800000000E+01 0. -1.
         -5    1    4    4    0  501  0.16799315906E+02 -0.47599268650E+02  0.36869577073E+03  0.37215850272E+03  0.41800000000E+01 0. -1.
</event>
<event>
11    1  0.8041700E-009  0.2176953E+03  0.7561462E-02  0.1042671E+00
         22   -1    0    0    0    0  0.00000000000E+00  0.00000000000E+00  0.11551433222E+04  0.11551433222E+04  0.00000000000E+00 0. -1.
         22   -1    0    0    0    0 -0.00000000000E+00 -0.00000000000E+00 -0.60641656945E+03  0.60641656945E+03  0.00000000000E+00 0.  1.
         24    2    1    2    0    0 -0.10124486408E+01 -0.24680465791E+02 -0.53183326611E+03  0.53852546577E+03  0.80950008602E+02 0.  0.
         25    2    1    2    0    0  0.46422428818E+00  0.19937706579E+03  0.16467276009E+03  0.28727344127E+03  0.12512986165E+03 0.  0.
        -24    2    1    2    0    0  0.54822435260E+00 -0.17469660000E+03  0.91588725877E+03  0.93576098462E+03  0.79246116409E+02 0.  0.
        -11    1    3    3    0    0  0.12311623058E+02 -0.49365780937E+02 -0.42638658026E+03  0.42941130891E+03  0.00000000000E+00 0.  1.
         12    1    3    3    0    0 -0.13324071699E+02  0.24685315146E+02 -0.10544668585E+03  0.10911415686E+03  0.00000000000E+00 0. -1.
         11    1    5    5    0    0  0.33489133021E+00 -0.17357064137E+03  0.74817195903E+03  0.76804176968E+03  0.00000000000E+00 0. -1.
        -12    1    5    5    0    0  0.21333302239E+00 -0.11259586289E+01  0.16771529974E+03  0.16771921494E+03  0.00000000000E+00 0.  1.
          5    1    4    4  501    0  0.10494591419E+02 -0.16084442621E+02  0.13564111566E+02  0.23881023136E+02  0.41800000000E+01 0. -1.
         -5    1    4    4    0  501 -0.10030367131E+02  0.21546150841E+03  0.15110864852E+03  0.26339241813E+03  0.41800000000E+01 0. -1.
</event>
<event>
11    1  0.8041700E-009  0.1639673E+03  0.7561462E-02  0.1083404E+00
         22   -1    0    0    0    0  0.00000000000E+00  0.00000000000E+00  0.33386546461E+04  0.33386546461E+04  0.00000000000E+00 0.  1.
         22   -1    0    0    0    0 -0.00000000000E+00 -0.00000000000E+00 -0.11412832427E+04  0.11412832427E+04  0.00000000000E+00 0. -1.
        -24    2    1    2    0    0 -0.17400511193E+02  0.25119684602E+02 -0.10240292448E+04  0.10276740423E+04  0.80896642124E+02 0.  0.
         25    2    1    2    0    0  0.10943927208E+03  0.27426082033E+02 -0.52220312935E+02  0.17636193366E+03  0.12508967309E+03 0.  0.
         24    2    1    2    0    0 -0.92038760886E+02 -0.52545766635E+02  0.32736209612E+04  0.32759019127E+04  0.60884755307E+02 0.  0.
        -11    1    5    5    0    0 -0.97298385755E+02 -0.34435937745E+02  0.28247378793E+04  0.28266228783E+04  0.00000000000E+00 0.  1.
         12    1    5    5    0    0  0.52596248689E+01 -0.18109828889E+02  0.44888308190E+03  0.44927903443E+03  0.00000000000E+00 0. -1.
         13    1    3    3    0    0 -0.32116361649E+02  0.44876341130E+02 -0.86391475961E+03  0.86567549263E+03  0.00000000000E+00 0. -1.
        -14    1    3    3    0    0  0.14715850456E+02 -0.19756656528E+02 -0.16011448521E+03  0.16199854970E+03  0.00000000000E+00 0.  1.
          5    1    4    4  501    0 -0.13894099050E+02  0.18632200970E+02 -0.46924218192E+02  0.52531510109E+02  0.41800000000E+01 0. -1.
         -5    1    4    4    0  501  0.12333337113E+03  0.87938810627E+01 -0.52960947432E+01  0.12383042355E+03  0.41800000000E+01 0. -1.
</event>
<event>
11    1  0.8041700E-009  0.1301348E+03  0.7561462E-02  0.1119103E+00
         22   -1    0    0    0    0  0.00000000000E+00  0.00000000000E+00  0.12520051417E+03  0.12520051417E+03  0.00000000000E+00 0. -1.
         22   -1    0    0    0    0 -0.00000000000E+00 -0.00000000000E+00 -0.86225029899E+03  0.86225029899E+03  0.00000000000E+00 0.  1.
        -24    2    1    2    0    0  0.35086469141E+02 -0.92000542307E+01 -0.74968207348E+03  0.75559001898E+03  0.87048056682E+02 0.  0.
         25    2    1    2    0    0 -0.30763428521E+02 -0.96622990821E+00 -0.39772926567E+02  0.13482158057E+03  0.12509057025E+03 0.  0.
         24    2    1    2    0    0 -0.43230406198E+01  0.10166284139E+02  0.52405215222E+02  0.97039213605E+02  0.80921322167E+02 0.  0.
        -11    1    5    5    0    0  0.25595484697E+02  0.23160479230E+02  0.54325131010E+02  0.64364248573E+02  0.00000000000E+00 0.  1.
         12    1    5    5    0    0 -0.29918525317E+02 -0.12994195092E+02 -0.19199157885E+01  0.32674965032E+02  0.00000000000E+00 0. -1.
         11    1    3    3    0    0  0.17693412846E+02 -0.17788446907E+02 -0.53006843300E+02  0.58644787817E+02  0.00000000000E+00 0. -1.
        -12    1    3    3    0    0  0.17393056295E+02  0.85883926760E+01 -0.69667523018E+03  0.69694523116E+03  0.00000000000E+00 0.  1.
          5    1    4    4  501    0  0.15744614275E+02  0.43324571787E+02  0.16691903586E+02  0.49203693403E+02  0.41800000000E+01 0.  1.
         -5    1    4    4    0  501 -0.46508042797E+02 -0.44290801695E+02 -0.56464830153E+02  0.85617887172E+02  0.41800000000E+01 0.  1.
</event>
<event>
11    1  0.8041700E-009  0.1594266E+03  0.7561462E-02  0.1087618E+00
         22   -1    0    0    0    0  0.00000000000E+00  0.00000000000E+00  0.28597414568E+03  0.28597414568E+03  0.00000000000E+00 0.  1.
         22   -1    0    0    0    0 -0.00000000000E+00 -0.00000000000E+00 -0.49261583413E+03  0.49261583413E+03  0.00000000000E+00 0. -1.
        -24    2    1    2    0    0  0.32113395648E+02 -0.49508219298E+01 -0.38175910416E+03  0.39041171457E+03  0.75003416207E+02 0.  0.
         25    2    1    2    0    0 -0.92709629844E+02  0.77243642939E+02 -0.69120852528E+00  0.17381747715E+03  0.12510148582E+03 0.  0.
         24    2    1    2    0    0  0.60596234196E+02 -0.72292821009E+02  0.17580862424E+03  0.21436078809E+03  0.78381882769E+02 0.  0.
        -11    1    5    5    0    0  0.19179761142E+02 -0.42203181907E+02  0.15005991040E+03  0.15705715046E+03  0.00000000000E+00 0.  1.
         12    1    5    5    0    0  0.41416473054E+02 -0.30089639102E+02  0.25748713835E+02  0.57303637630E+02  0.00000000000E+00 0. -1.
         11    1    3    3    0    0  0.22362601221E+02  0.96210306209E+01 -0.36608561739E+03  0.36689416652E+03  0.00000000000E+00 0. -1.
        -12    1    3    3    0    0  0.97507944269E+01 -0.14571852551E+02 -0.15673486770E+02  0.23517548049E+02  0.00000000000E+00 0.  1.
          5    1    4    4  501    0 -0.36934487399E+02  0.16543240592E+02  0.59203629408E+02  0.71835766188E+02  0.41800000000E+01 0.  1.
         -5    1    4    4    0  501 -0.55775142444E+02  0.60700402347E+02 -0.59894837933E+02  0.10198171096E+03  0.41800000000E+01 0.  1.
</event>
<event>
11    1  0.8041700E-009  0.1787389E+03  0.7561462E-02  0.1070667E+00
         22   -1    0    0    0    0  0.00000000000E+00  0.00000000000E+00  0.40734717504E+03  0.40734717504E+03  0.00000000000E+00 0. -1.
         22   -1    0    0    0    0 -0.00000000000E+00 -0.00000000000E+00 -0.23971431641E+03  0.23971431641E+03  0.00000000000E+00 0. -1.
         24    2    1    2    0    0  0.82687327858E+02  0.86000433757E+02 -0.13263808996E+03  0.19431468491E+03  0.77019900464E+02 0.  0.
         25    2    1    2    0    0 -0.11702029974E+03 -0.13669110501E+03  0.12912599357E+03  0.25436094582E+03  0.12509100608E+03 0.  0.
        -24    2    1    2    0    0  0.34332971883E+02  0.50690671251E+02  0.17114495502E+03  0.19838586072E+03  0.79486206317E+02 0.  0.
        -13    1    3    3    0    0 -0.11753499358E+02  0.25919231505E+02 -0.15965881796E+02  0.32632203274E+02  0.00000000000E+00 0.  1.
         14    1    3    3    0    0  0.94440827215E+02  0.60081202252E+02 -0.11667220817E+03  0.16168248163E+03  0.00000000000E+00 0. -1.
         13    1    5    5    0    0  0.57554380996E+02  0.43964995890E+02  0.14868827194E+03  0.16538932810E+03  0.00000000000E+00 0. -1.
        -14    1    5    5    0    0 -0.23221409112E+02  0.67256753607E+01  0.22456683075E+02  0.32996532620E+02  0.00000000000E+00 0.  1.
          5    1    4    4  501    0 -0.16874183523E+02 -0.80781041105E+02  0.11066961622E+03  0.13811426800E+03  0.41800000000E+01 0.  1.
         -5    1    4    4    0  501 -0.10014611622E+03 -0.55910063904E+02  0.18456377357E+02  0.11624667782E+03  0.41800000000E+01 0.  1.
</event>
<event>
11    1  0.8041700E-009  0.1321156E+03  0.7561462E-02  0.1116697E+00
         22   -1    0    0    0    0  0.00000000000E+00  0.00000000000E+00  0.88182077821E+03  0.88182077821E+03  0.00000000000E+00 0. -1.
         22   -1    0    0    0    0 -0.00000000000E+00 -0.00000000000E+00 -0.60898583339E+02  0.60898583339E+02  0.00000000000E+00 0. -1.
        -24    2    1    2    0    0  0.11642809113E+01  0.41154947297E+02  0.38998495803E+01  0.91664861096E+02  0.81805578636E+02 0.  0.
         25    2    1    2    0    0 -0.38904301537E+02 -0.50825162861E+02  0.38849799011E+03  0.41312892577E+03  0.12509228246E+03 0.  0.
         24    2    1    2    0    0  0.37740020626E+02  0.96702155631E+01  0.42852435519E+03  0.43792557469E+03  0.81411692967E+02 0.  0.
        -11    1    5    5    0    0  0.45677893967E+02  0.32894119498E+02  0.19058448388E+03  0.19872327139E+03  0.00000000000E+00 0.  1.
         12    1    5    5    0    0 -0.79378733410E+01 -0.23223903935E+02  0.23793987130E+03  0.23920230330E+03  0.00000000000E+00 0. -1.
         11    1    3    3    0    0  0.38430467876E+02  0.30959627359E+02 -0.10461443332E+02  0.50446418941E+02  0.00000000000E+00 0. -1.
        -12    1    3    3    0    0 -0.37266186965E+02  0.10195319939E+02  0.14361292912E+02  0.41218442155E+02  0.00000000000E+00 0.  1.
          5    1    4    4  501    0 -0.85783474726E+01 -0.17308034906E+02  0.35776516537E+03  0.35831067815E+03  0.41800000000E+01 0. -1.
         -5    1    4    4    0  501 -0.30325954065E+02 -0.33517127955E+02  0.30732824733E+02  0.54818247622E+02  0.41800000000E+01 0. -1.
</event>
<event>
11    1  0.8041700E-009  0.1287982E+03  0.7561462E-02  0.1120754E+00
         22   -1    0    0    0    0  0.00000000000E+00  0.00000000000E+00  0.46312956564E+03  0.46312956564E+03  0.00000000000E+00 0.  1.
         22   -1    0    0    0    0 -0.00000000000E+00 -0.00000000000E+00 -0.60926623643E+03  0.60926623643E+03  0.00000000000E+00 0.  1.
         24    2    1    2    0    0  0.17763422633E+02  0.26295729218E+02 -0.40080496585E+03  0.41029566192E+03  0.81797952147E+02 0.  0.
         25    2    1    2    0    0  0.13249268385E+02 -0.23249796968E+02 -0.17846297143E+03  0.21957144244E+03  0.12508593044E+03 0.  0.
        -24    2    1    2    0    0 -0.31012691017E+02 -0.30459322494E+01  0.43313126649E+03  0.44252869772E+03  0.85193248455E+02 0.  0.
        -13    1    3    3    0    0 -0.30513260170E+02  0.92233303037E+00 -0.19555354162E+03  0.19792194771E+03  0.00000000000E+00 0.  1.
         14    1    3    3    0    0  0.48276682803E+02  0.25373396187E+02 -0.20525142423E+03  0.21237371421E+03  0.00000000000E+00 0. -1.
         13    1    5    5    0    0  0.21840256401E+02 -0.22335949200E+02  0.10285289780E+03  0.10749237188E+03  0.00000000000E+00 0. -1.
        -14    1    5    5    0    0 -0.52852947418E+02  0.19290016951E+02  0.33027836869E+03  0.33503632584E+03  0.00000000000E+00 0.  1.
          5    1    4    4  501    0 -0.37341700887E+02  0.33558567206E+02 -0.55824942647E+02  0.75196254425E+02  0.41800000000E+01 0. -1.
         -5    1    4    4    0  501  0.50590969272E+02 -0.56808364174E+02 -0.12263802878E+03  0.14437518802E+03  0.41800000000E+01 0. -1.
</event>
<event>
11    1  0.8041700E-009  0.1389306E+03  0.7561462E-02  0.1108758E+00
         22   -1    0    0    0    0  0.00000000000E+00  0.00000000000E+00  0.28731961230E+04  0.28731961230E+04  0.00000000000E+00 0.  1.
         22   -1    0    0    0    0 -0.00000000000E+00 -0.00000000000E+00 -0.53039458426E+02  0.53039458426E+02  0.00000000000E+00 0. -1.
         24    2    1    2    0    0 -0.63674496457E+02  0.69716073469E+00  0.28183255928E+02  0.10690550829E+03  0.81114513223E+02 0.  0.
         25    2    1    2    0    0  0.43744871082E+02 -0.13350295558E+02  0.32929386236E+03  0.35520890196E+03  0.12508825728E+03 0.  0.
        -24    2    1    2    0    0  0.19929625375E+02  0.12653134824E+02  0.24626795463E+04  0.24641211712E+04  0.80903070023E+02 0.  0.
        -11    1    3    3    0    0 -0.38498281191E+02 -0.37968195765E+02  0.27722353746E+02  0.60763726363E+02  0.00000000000E+00 0.  1.
         12    1    3    3    0    0 -0.25176215266E+02  0.38665356500E+02  0.46090218243E+00  0.46141781925E+02  0.00000000000E+00 0. -1.
         13    1    5    5    0    0 -0.16461533171E+02  0.19549236211E+02  0.28946617180E+03  0.29059218731E+03  0.00000000000E+00 0. -1.
        -14    1    5    5    0    0  0.36391158547E+02 -0.68961013877E+01  0.21732133745E+04  0.21735289839E+04  0.00000000000E+00 0.  1.
          5    1    4    4  501    0  0.32374779963E+01  0.34324588226E+02  0.25774821693E+03  0.26007743914E+03  0.41800000000E+01 0. -1.
         -5    1    4    4    0  501  0.40507393086E+02 -0.47674883785E+02  0.71545645427E+02  0.95131462819E+02  0.41800000000E+01 0. -1.
</event>
<event>
11    1  0.8041700E-009  0.3423188E+03  0.7561462E-02  0.9837181E-01
         22   -1    0    0    0    0  0.00000000000E+00  0.00000000000E+00  0.16833530124E+04  0.16833530124E+04  0.00000000000E+00 0.  1.
         22   -1    0    0    0    0 -0.00000000000E+00 -0.00000000000E+00 -0.11161326945E+03  0.11161326945E+03  0.00000000000E+00 0. -1.
        -24    2    1    2    0    0 -0.40387605743E+02  0.21234207915E+02  0.79894305321E+01  0.92042377120E+02  0.79535639196E+02 0.  0.
         25    2    1    2    0    0  0.22265449148E+03 -0.25551244610E+03  0.94621198221E+03  0.10128303131E+04  0.12508595086E+03 0.  0.
         24    2    1    2    0    0 -0.18226688573E+03  0.23427823819E+03  0.61753833016E+03  0.69009359161E+03  0.82268252974E+02 0.  0.
        -13    1    5    5    0    0 -0.42425657694E+02  0.10170727915E+03  0.28784055849E+03  0.30821501289E+03  0.00000000000E+00 0.  1.
         14    1    5    5    0    0 -0.13984122804E+03  0.13257095904E+03  0.32969777167E+03  0.38187857872E+03  0.00000000000E+00 0. -1.
         11    1    3    3    0    0  0.21219305043E+02 -0.82994887757E+01 -0.25008625424E+01  0.22921490656E+02  0.00000000000E+00 0. -1.
        -12    1    3    3    0    0 -0.61606910786E+02  0.29533696691E+02  0.10490293075E+02  0.69120886464E+02  0.00000000000E+00 0.  1.
          5    1    4    4  501    0  0.44571164595E+02 -0.10000452374E+03  0.17770775359E+03  0.20877023631E+03  0.41800000000E+01 0.  1.
         -5    1    4    4    0  501  0.17808332688E+03 -0.15550792236E+03  0.76850422862E+03  0.80406007676E+03  0.41800000000E+01 0.  1.
</event>
<event>
11    1  0.8041700E-009  0.2881875E+03  0.7561462E-02  0.1005318E+00
         22   -1    0    0    0    0  0.00000000000E+00  0.00000000000E+00  0.79864941559E+03  0.79864941559E+03  0.00000000000E+00 0.  1.
         22   -1    0    0    0    0 -0.00000000000E+00 -0.00000000000E+00 -0.95725377535E+03  0.95725377535E+03  0.00000000000E+00 0.  1.
        -24    2    1    2    0    0 -0.12586034497E+03  0.21931910022E+03 -0.79962424967E+03  0.84228191892E+03  0.78090947812E+02 0.  0.
         25    2    1    2    0    0  0.21703817028E+03 -0.27228988422E+03  0.14044553087E+03  0.39575071928E+03  0.12508531592E+03 0.  0.
         24    2    1    2    0    0 -0.91177825312E+02  0.52970784004E+02  0.50057435904E+03  0.51787055274E+03  0.80597274653E+02 0.  0.
        -11    1    5    5    0    0 -0.32065363699E+02  0.19013238178E+02  0.35691674032E+03  0.35885825934E+03  0.00000000000E+00 0.  1.
         12    1    5    5    0    0 -0.59112461614E+02  0.33957545826E+02  0.14365761871E+03  0.15901229340E+03  0.00000000000E+00 0. -1.
         11    1    3    3    0    0  0.10616599333E+02  0.25313097454E+02 -0.83288939509E+02  0.87695567326E+02  0.00000000000E+00 0. -1.
        -12    1    3    3    0    0 -0.13647694430E+03  0.19400600276E+03 -0.71633531016E+03  0.75458635160E+03  0.00000000000E+00 0.  1.
          5    1    4    4  501    0  0.14705732930E+02 -0.10205104517E+03  0.19788971460E+02  0.10507021554E+03  0.41800000000E+01 0.  1.
         -5    1    4    4    0  501  0.20233243735E+03 -0.17023883905E+03  0.12065655941E+03  0.29068050374E+03  0.41800000000E+01 0.  1.
</event>
<event>
11    1  0.8041700E-009  0.1969517E+03  0.7561462E-02  0.1056700E+00
         22   -1    0    0    0    0  0.00000000000E+00  0.00000000000E+00  0.87723140364E+03  0.87723140364E+03  0.00000000000E+00 0.  1.
         22   -1    0    0    0    0 -0.00000000000E+00 -0.00000000000E+00 -0.12054111139E+04  0.12054111139E+04  0.00000000000E+00 0.  1.
        -24    2    1    2    0    0  0.36887245033E+02 -0.14813415231E+03 -0.11621991588E+04  0.11750994246E+04  0.82748880065E+02 0.  0.
         25    2    1    2    0    0 -0.72762218540E+02  0.11641975041E+03  0.22777720837E+03  0.29390046057E+03  0.12508847006E+03 0.  0.
         24    2    1    2    0    0  0.35874973507E+02  0.31714401908E+02  0.60624224017E+03  0.61364263232E+03  0.82065884621E+02 0.  0.
        -13    1    5    5    0    0  0.88138794608E+01  0.18032264435E+02  0.54436359813E+03  0.54473348897E+03  0.00000000000E+00 0.  1.
         14    1    5    5    0    0  0.27061094046E+02  0.13682137474E+02  0.61878642045E+02  0.68909143357E+02  0.00000000000E+00 0. -1.
         11    1    3    3    0    0  0.45662438416E+01 -0.73886389225E+02 -0.29572993045E+03  0.30485445849E+03  0.00000000000E+00 0. -1.
        -12    1    3    3    0    0  0.32321001191E+02 -0.74247763088E+02 -0.86646922831E+03  0.87024496612E+03  0.00000000000E+00 0.  1.
          5    1    4    4  501    0 -0.98163919879E+02  0.10913620102E+03  0.22256294907E+03  0.26664321525E+03  0.41800000000E+01 0. -1.
         -5    1    4    4    0  501  0.25401701339E+02  0.72835493877E+01  0.52142592952E+01  0.27257245323E+02  0.41800000000E+01 0. -1.
</event>
<event>
11    1  0.8041700E-009  0.2557367E+03  0.7561462E-02  0.1020887E+00
         22   -1    0    0    0    0  0.00000000000E+00  0.00000000000E+00  0.58021311602E+03  0.58021311602E+03  0.00000000000E+00 0. -1.
         22   -1    0    0    0    0 -0.00000000000E+00 -0.00000000000E+00 -0.46548781468E+03  0.46548781468E+03  0.00000000000E+00 0. -1.
        -24    2    1    2    0    0 -0.25432830031E+03 -0.51346135244E+02 -0.24633732159E+03  0.36690484462E+03  0.81349732981E+02 0.  0.
         25    2    1    2    0    0  0.12728946447E+03 -0.18589084219E+03  0.55316699031E+02  0.26356592560E+03  0.12509615090E+03 0.  0.
         24    2    1    2    0    0  0.12703883583E+03  0.23723697743E+03  0.30574592390E+03  0.41523016048E+03  0.80717203400E+02 0.  0.
        -11    1    5    5    0    0  0.46612482073E+02  0.63413077369E+02  0.41792776865E+02  0.89109921246E+02  0.00000000000E+00 0.  1.
         12    1    5    5    0    0  0.80426353757E+02  0.17382390007E+03  0.26395314703E+03  0.32612023924E+03  0.00000000000E+00 0. -1.
         13    1    3    3    0    0 -0.20593001906E+03 -0.26449028829E+02 -0.23049991062E+03  0.31022078053E+03  0.00000000000E+00 0. -1.
        -14    1    3    3    0    0 -0.48398281250E+02 -0.24897106415E+02 -0.15837410968E+02  0.56684064091E+02  0.00000000000E+00 0.  1.
          5    1    4    4  501    0  0.87817609576E+02 -0.34661957161E+02  0.50478873765E+02  0.10713996884E+03  0.41800000000E+01 0. -1.
         -5    1    4    4    0  501  0.39471854899E+02 -0.15122888503E+03  0.48378252665E+01  0.15642595676E+03  0.41800000000E+01 0. -1.
</event>
<event>
11    1  0.8041700E-009  0.1286366E+03  0.7561462E-02  0.1120956E+00
         22   -1    0    0    0    0  0.00000000000E+00  0.00000000000E+00  0.94093605639E+02  0.94093605639E+02  0.00000000000E+00 0.  1.
         22   -1    0    0    0    0 -0.00000000000E+00 -0.00000000000E+00 -0.13315043641E+04  0.13315043641E+04  0.00000000000E+00 0. -1.
         24    2    1    2    0    0  0.13604969868E+02  0.25752713992E+02 -0.11659284115E+04  0.11691496264E+04  0.81691435562E+02 0.  0.
         25    2    1    2    0    0 -0.58902030784E+01 -0.51901071584E+02 -0.97933827514E+02  0.16723206078E+03  0.12508841616E+03 0.  0.
        -24    2    1    2    0    0 -0.77147667897E+01  0.26148357592E+02  0.26451480543E+02  0.89216282588E+02  0.80725522758E+02 0.  0.
        -11    1    3    3    0    0  0.19025623707E+02 -0.24545759683E+02 -0.26724508262E+03  0.26904349623E+03  0.00000000000E+00 0.  1.
         12    1    3    3    0    0 -0.54206538389E+01  0.50298473675E+02 -0.89868332886E+03  0.90010613014E+03  0.00000000000E+00 0. -1.
         13    1    5    5    0    0 -0.35247608912E+02 -0.76814274912E+01 -0.35913845188E+01  0.36253224754E+02  0.00000000000E+00 0. -1.
        -14    1    5    5    0    0  0.27532842122E+02  0.33829785084E+02  0.30042865061E+02  0.52963057835E+02  0.00000000000E+00 0.  1.
          5    1    4    4  501    0  0.28717261720E+01 -0.54127280016E+02 -0.12611993356E+03  0.13733797470E+03  0.41800000000E+01 0. -1.
         -5    1    4    4    0  501 -0.87619292504E+01  0.22262084320E+01  0.28186106048E+02  0.29894086076E+02  0.41800000000E+01 0. -1.
</event>
<event>
11    1  0.8041700E-009  0.1528963E+03  0.7561462E-02  0.1093956E+00
         22   -1    0    0    0    0  0.00000000000E+00  0.00000000000E+00  0.72156080882E+03  0.72156080882E+03  0.00000000000E+00 0.  1.
         22   -1    0    0    0    0 -0.00000000000E+00 -0.00000000000E+00 -0.58110558164E+03  0.58110558164E+03  0.00000000000E+00 0.  1.
        -24    2    1    2    0    0 -0.57308927648E+02  0.66880081503E+02 -0.55030257828E+03  0.56573781040E+03  0.97309218277E+02 0.  0.
         25    2    1    2    0    0  0.62334310121E+02 -0.54573776116E+02  0.27618020722E+03  0.31430324094E+03  0.12508859720E+03 0.  0.
         24    2    1    2    0    0 -0.50253824733E+01 -0.12306305387E+02  0.41457759825E+03  0.42262533913E+03  0.80999337534E+02 0.  0.
        -13    1    5    5    0    0  0.93341172498E+01 -0.43336791349E+02  0.17069365929E+03  0.17635625464E+03  0.00000000000E+00 0.  1.
         14    1    5    5    0    0 -0.14359499723E+02  0.31030485962E+02  0.24388393896E+03  0.24626908448E+03  0.00000000000E+00 0. -1.
         11    1    3    3    0    0 -0.26939397941E+02  0.85756650330E+02 -0.30929937596E+03  0.32209631821E+03  0.00000000000E+00 0. -1.
        -12    1    3    3    0    0 -0.30369529707E+02 -0.18876568826E+02 -0.24100320232E+03  0.24364149219E+03  0.00000000000E+00 0.  1.
          5    1    4    4  501    0 -0.41923015752E+00  0.37692643965E+02  0.80995231667E+02  0.89434954664E+02  0.41800000000E+01 0. -1.
         -5    1    4    4    0  501  0.62753540279E+02 -0.92266420081E+02  0.19518497555E+03  0.22486828627E+03  0.41800000000E+01 0. -1.
</event>
<event>
11    1  0.8041700E-009  0.3803542E+03  0.7561462E-02  0.9709571E-01
         22   -1    0    0    0    0  0.00000000000E+00  0.00000000000E+00  0.75308835990E+03  0.75308835990E+03  0.00000000000E+00 0. -1.
         22   -1    0    0    0    0 -0.00000000000E+00 -0.00000000000E+00 -0.17309596573E+04  0.17309596573E+04  0.00000000000E+00 0.  1.
        -24    2    1    2    0    0  0.32994324588E+03 -0.17061055774E+03 -0.15547363980E+04  0.16004450971E+04  0.79048930920E+02 0.  0.
         25    2    1    2    0    0 -0.29405204394E+03 -0.18157053076E+02  0.58804220133E+02  0.32542522647E+03  0.12508940239E+03 0.  0.
         24    2    1    2    0    0 -0.35891201934E+02  0.18876761081E+03  0.51806088049E+03  0.55817769367E+03  0.79081429897E+02 0.  0.
        -11    1    5    5    0    0 -0.49704201191E+02  0.10172163958E+03  0.22090977143E+03  0.24823159889E+03  0.00000000000E+00 0.  1.
         12    1    5    5    0    0  0.13812999256E+02  0.87045971230E+02  0.29715110906E+03  0.30994609478E+03  0.00000000000E+00 0. -1.
         13    1    3    3    0    0  0.26775523081E+01 -0.15054161579E+02 -0.36638544427E+02  0.39701133547E+02  0.00000000000E+00 0. -1.
        -14    1    3    3    0    0  0.32726569357E+03 -0.15555639616E+03 -0.15180978536E+04  0.15607439635E+04  0.00000000000E+00 0.  1.
          5    1    4    4  501    0 -0.27271455406E+02  0.31950552747E+02  0.31311425467E+02  0.52558994146E+02  0.41800000000E+01 0.  1.
         -5    1    4    4    0  501 -0.26678058854E+03 -0.50107605823E+02  0.27492794666E+02  0.27286623232E+03  0.41800000000E+01 0.  1.
</event>
<event>
11    1  0.8041700E-009  0.2054082E+03  0.7561462E-02  0.1050764E+00
         22   -1    0    0    0    0  0.00000000000E+00  0.00000000000E+00  0.11424806231E+04  0.11424806231E+04  0.00000000000E+00 0. -1.
         22   -1    0    0    0    0 -0.00000000000E+00 -0.00000000000E+00 -0.34496066696E+03  0.34496066696E+03  0.00000000000E+00 0. -1.
        -24    2    1    2    0    0 -0.17684058285E+02 -0.79417794230E+01 -0.24700750662E+03  0.26027407492E+03  0.79712533347E+02 0.  0.
         25    2    1    2    0    0 -0.56729358255E+01 -0.15423882374E+03  0.35638063089E+02  0.20184017001E+03  0.12509031034E+03 0.  0.
         24    2    1    2    0    0  0.23356994111E+02  0.16218060316E+03  0.10088893996E+04  0.10253270451E+04  0.81176545121E+02 0.  0.
        -13    1    5    5    0    0  0.55813000490E+01 -0.78731607941E+01  0.10238562731E+03  0.10283945863E+03  0.00000000000E+00 0.  1.
         14    1    5    5    0    0  0.17775694061E+02  0.17005376396E+03  0.90650377232E+03  0.92248758645E+03  0.00000000000E+00 0. -1.
         13    1    3    3    0    0 -0.36530719421E+02 -0.23535382156E+02 -0.21818620899E+03  0.22247163744E+03  0.00000000000E+00 0. -1.
        -14    1    3    3    0    0  0.18846661136E+02  0.15593602733E+02 -0.28821297634E+02  0.37802437481E+02  0.00000000000E+00 0.  1.
          5    1    4    4  501    0  0.55455509071E+02 -0.40646530823E+02  0.20634203924E+02  0.71907556806E+02  0.41800000000E+01 0. -1.
         -5    1    4    4    0  501 -0.61128444896E+02 -0.11359229292E+03  0.15003859165E+02  0.12993261321E+03  0.41800000000E+01 0. -1.
</event>
<event>
11    1  0.8041700E-009  0.1377570E+03  0.7561462E-02  0.1110089E+00
         22   -1    0    0    0    0  0.00000000000E+00  0.00000000000E+00  0.97091818300E+03  0.97091818300E+03  0.00000000000E+00 0.  1.
         22   -1    0    0    0    0 -0.00000000000E+00 -0.00000000000E+00 -0.22882495171E+03  0.22882495171E+03  0.00000000000E+00 0. -1.
         24    2    1    2    0    0 -0.44862341550E+01  0.37399544529E+02 -0.18120347608E+03  0.20197755035E+03  0.80878791269E+02 0.  0.
         25    2    1    2    0    0 -0.52416796326E+02 -0.45904266299E+02  0.11578986686E+03  0.18414355690E+03  0.12508730582E+03 0.  0.
        -24    2    1    2    0    0  0.56903030481E+02  0.85047217695E+01  0.80750684050E+03  0.81362202746E+03  0.81260205105E+02 0.  0.
        -11    1    3    3    0    0  0.70637538124E+01  0.55210152040E+02 -0.73473117613E+02  0.92175682899E+02  0.00000000000E+00 0.  1.
         12    1    3    3    0    0 -0.11549987967E+02 -0.17810607511E+02 -0.10773035846E+03  0.10980186745E+03  0.00000000000E+00 0. -1.
         11    1    5    5    0    0 -0.13771320029E+02 -0.33792411516E+01  0.34503377271E+02  0.37303506125E+02  0.00000000000E+00 0. -1.
        -12    1    5    5    0    0  0.70674350510E+02  0.11883962921E+02  0.77300346323E+03  0.77631852133E+03  0.00000000000E+00 0.  1.
          5    1    4    4  501    0 -0.38078112164E+02 -0.27098294340E+02 -0.16463810235E+02  0.49727151834E+02  0.41800000000E+01 0.  1.
         -5    1    4    4    0  501 -0.14338684162E+02 -0.18805971959E+02  0.13225367709E+03  0.13441640506E+03  0.41800000000E+01 0.  1.
</event>
<event>
11    1  0.8041700E-009  0.1754851E+03  0.7561462E-02  0.1073355E+00
         22   -1    0    0    0    0  0.00000000000E+00  0.00000000000E+00  0.85943785294E+03  0.85943785294E+03  0.00000000000E+00 0.  1.
         22   -1    0    0    0    0 -0.00000000000E+00 -0.00000000000E+00 -0.30904971957E+03  0.30904971957E+03  0.00000000000E+00 0. -1.
        -24    2    1    2    0    0  0.90547900108E+02 -0.82081245368E+02 -0.19335594903E+03  0.24307362505E+03  0.82231448446E+02 0.  0.
         25    2    1    2    0    0 -0.11065868834E+03  0.64912089333E+02  0.23147161205E+01  0.17920291960E+03  0.12509757726E+03 0.  0.
         24    2    1    2    0    0  0.20110788228E+02  0.17169156035E+02  0.74142936627E+03  0.74621102786E+03  0.80088508597E+02 0.  0.
        -13    1    5    5    0    0  0.48172984434E+01 -0.65423221227E+01  0.65966722848E+03  0.65971725812E+03  0.00000000000E+00 0.  1.
         14    1    5    5    0    0  0.15293489785E+02  0.23711478157E+02  0.81762137799E+02  0.86493769739E+02  0.00000000000E+00 0. -1.
         13    1    3    3    0    0  0.90717205221E+02 -0.56928653587E+02 -0.18943795969E+03  0.21761714890E+03  0.00000000000E+00 0. -1.
        -14    1    3    3    0    0 -0.16930511292E+00 -0.25152591781E+02 -0.39179893384E+01  0.25456476150E+02  0.00000000000E+00 0.  1.
          5    1    4    4  501    0 -0.36354170630E+02  0.87249650526E+02 -0.23205894740E+02  0.97417211979E+02  0.41800000000E+01 0. -1.
         -5    1    4    4    0  501 -0.74304517707E+02 -0.22337561193E+02  0.25520610861E+02  0.81785707617E+02  0.41800000000E+01 0. -1.
</event>
<event>
11    1  0.8041700E-009  0.1281938E+03  0.7561462E-02  0.1121508E+00
         22   -1    0    0    0    0  0.00000000000E+00  0.00000000000E+00  0.96705865939E+03  0.96705865939E+03  0.00000000000E+00 0.  1.
         22   -1    0    0    0    0 -0.00000000000E+00 -0.00000000000E+00 -0.47503547319E+03  0.47503547319E+03  0.00000000000E+00 0.  1.
        -24    2    1    2    0    0 -0.69504454096E+01  0.26358728704E+02 -0.41281954527E+03  0.42234317998E+03  0.84915802097E+02 0.  0.
         25    2    1    2    0    0  0.41437842986E+02 -0.31138040831E+02  0.27557161114E+02  0.13817856351E+03  0.12508895182E+03 0.  0.
         24    2    1    2    0    0 -0.34487397577E+02  0.47793121271E+01  0.87728557037E+03  0.88157238909E+03  0.79546733546E+02 0.  0.
        -13    1    5    5    0    0 -0.32117756940E+02 -0.23786568927E+02  0.75150651134E+03  0.75256852695E+03  0.00000000000E+00 0.  1.
         14    1    5    5    0    0 -0.23696406366E+01  0.28565881054E+02  0.12577905902E+03  0.12900386214E+03  0.00000000000E+00 0. -1.
         11    1    3    3    0    0  0.31091813873E+01 -0.85831473832E+01 -0.13007892802E+01  0.92211431315E+01  0.00000000000E+00 0. -1.
        -12    1    3    3    0    0 -0.10059626797E+02  0.34941876087E+02 -0.41151875599E+03  0.41312203685E+03  0.00000000000E+00 0.  1.
          5    1    4    4  501    0  0.31885778397E+02  0.35618258584E+02  0.47712563553E+02  0.67670705104E+02  0.41800000000E+01 0.  1.
         -5    1    4    4    0  501  0.95520645893E+01 -0.66756299415E+02 -0.20155402438E+02  0.70507858406E+02  0.41800000000E+01 0.  1.
</event>
<event>
11    1  0.8041700E-009  0.1359436E+03  0.7561462E-02  0.1112174E+00
         22   -1    0    0    0    0  0.00000000000E+00  0.00000000000E+00  0.78431232946E+03  0.78431232946E+03  0.00000000000E+00 0. -1.
         22   -1    0    0    0    0 -0.00000000000E+00 -0.00000000000E+00 -0.35106898036E+03  0.35106898036E+03  0.00000000000E+00 0.  1.
         24    2    1    2    0    0  0.51093277095E+02  0.10999939216E+02 -0.29145324364E+03  0.30717345112E+03  0.81725236121E+02 0.  0.
         25    2    1    2    0    0 -0.65129154956E+02 -0.10337862394E+02  0.52648489853E+02  0.15088699901E+03  0.12508534991E+03 0.  0.
        -24    2    1    2    0    0  0.14035877861E+02 -0.66207682165E+00  0.67204810289E+03  0.67732085969E+03  0.83171209914E+02 0.  0.
        -13    1    3    3    0    0  0.41685667951E+02  0.45228636507E+02 -0.18553520441E+03  0.19546517989E+03  0.00000000000E+00 0.  1.
         14    1    3    3    0    0  0.94076091446E+01 -0.34228697291E+02 -0.10591803922E+03  0.11170827123E+03  0.00000000000E+00 0. -1.
         11    1    5    5    0    0 -0.72744141729E+00  0.40424906995E+02  0.29668048031E+03  0.29942279417E+03  0.00000000000E+00 0. -1.
        -12    1    5    5    0    0  0.14763319278E+02 -0.41086983817E+02  0.37536762259E+03  0.37789806552E+03  0.00000000000E+00 0.  1.
          5    1    4    4  501    0 -0.10282559247E+03 -0.98539080236E+01  0.40912589028E+02  0.11118234712E+03  0.41800000000E+01 0.  1.
         -5    1    4    4    0  501  0.37696437515E+02 -0.48395437056E+00  0.11735900825E+02  0.39704651885E+02  0.41800000000E+01 0.  1.
</event>
<event>
11    1  0.8041700E-009  0.2098712E+03  0.7561462E-02  0.1047755E+00
         22   -1    0    0    0    0  0.00000000000E+00  0.00000000000E+00  0.92929230911E+03  0.92929230911E+03  0.00000000000E+00 0.  1.
         22   -1    0    0    0    0 -0.00000000000E+00 -0.00000000000E+00 -0.70765384659E+03  0.70765384659E+03  0.00000000000E+00 0.  1.
         24    2    1    2    0    0  0.14820722072E+03  0.97160412059E+02 -0.59106006696E+03  0.62213784528E+03  0.79359749403E+02 0.  0.
         25    2    1    2    0    0 -0.10584876755E+03 -0.65135520295E+02 -0.19204205649E+02  0.17737949175E+03  0.12509230585E+03 0.  0.
        -24    2    1    2    0    0 -0.42358453167E+02 -0.32024891763E+02  0.83190273513E+03  0.83742881867E+03  0.80031452458E+02 0.  0.
        -13    1    3    3    0    0  0.59005548351E+02  0.76453847706E+02 -0.22604549940E+03  0.24581174375E+03  0.00000000000E+00 0.  1.
         14    1    3    3    0    0  0.89201672367E+02  0.20706564353E+02 -0.36501456756E+03  0.37632610153E+03  0.00000000000E+00 0. -1.
         11    1    5    5    0    0 -0.10472277155E+02 -0.37885785016E+02  0.16047151863E+03  0.16521534307E+03  0.00000000000E+00 0. -1.
        -12    1    5    5    0    0 -0.31886176013E+02  0.58608932525E+01  0.67143121650E+03  0.67221347560E+03  0.00000000000E+00 0.  1.
          5    1    4    4  501    0 -0.83515720100E+02 -0.77976602936E+02 -0.59867614878E+02  0.12906134131E+03  0.41800000000E+01 0.  1.
         -5    1    4    4    0  501 -0.22333047450E+02  0.12841082641E+02  0.40663409230E+02  0.48318150441E+02  0.41800000000E+01 0.  1.
</event>
<event>
11    1  0.8041700E-009  0.1349618E+03  0.7561462E-02  0.1113319E+00
         22   -1    0    0    0    0  0.00000000000E+00  0.00000000000E+00  0.21412050948E+03  0.21412050948E+03  0.00000000000E+00 0. -1.
         22   -1    0    0    0    0 -0.00000000000E+00 -0.00000000000E+00 -0.20317546866E+03  0.20317546866E+03  0.00000000000E+00 0.  1.
        -24    2    1    2    0    0 -0.17530675578E+02  0.14957858651E+02 -0.12006148024E+03  0.14617783445E+03  0.80138243841E+02 0.  0.
         25    2    1    2    0    0  0.59201995960E+02  0.82118696164E+01  0.51929841431E+02  0.14804342785E+03  0.12509131453E+03 0.  0.
         24    2    1    2    0    0 -0.41671320382E+02 -0.23169728267E+02  0.79076679635E+02  0.12307471583E+03  0.81369092197E+02 0.  0.
        -13    1    5    5    0    0 -0.31497033650E+02  0.27781448186E+02  0.30083018384E+02  0.51661010319E+02  0.00000000000E+00 0.  1.
         14    1    5    5    0    0 -0.10174286732E+02 -0.50951176453E+02  0.48993661251E+02  0.71413705515E+02  0.00000000000E+00 0. -1.
         11    1    3    3    0    0 -0.77336372068E+01 -0.53529652522E+01  0.10260596034E+02  0.13919167088E+02  0.00000000000E+00 0. -1.
        -12    1    3    3    0    0 -0.97970383711E+01  0.20310823903E+02 -0.13032207627E+03  0.13225866736E+03  0.00000000000E+00 0.  1.
          5    1    4    4  501    0 -0.58013701319E+01 -0.21388218710E+02  0.70587940609E+02  0.74102911916E+02  0.41800000000E+01 0.  1.
         -5    1    4    4    0  501  0.65003366092E+02  0.29600088327E+02 -0.18658099178E+02  0.73940515938E+02  0.41800000000E+01 0.  1.
</event>
<event>
11    1  0.8041700E-009  0.1252347E+03  0.7561462E-02  0.1125267E+00
         22   -1    0    0    0    0  0.00000000000E+00  0.00000000000E+00  0.10350944652E+04  0.10350944652E+04  0.00000000000E+00 0. -1.
         22   -1    0    0    0    0 -0.00000000000E+00 -0.00000000000E+00 -0.62219656798E+02  0.62219656798E+02  0.00000000000E+00 0.  1.
         24    2    1    2    0    0 -0.10991150958E+02 -0.23570513107E+02 -0.13605363584E+02  0.82822979274E+02  0.77447824308E+02 0.  0.
         25    2    1    2    0    0  0.65224520512E+01  0.24549547438E+02  0.34900226761E+03  0.37161201946E+03  0.12509071729E+03 0.  0.
        -24    2    1    2    0    0  0.44686989069E+01 -0.97903433152E+00  0.63747790438E+03  0.64287912326E+03  0.83033491910E+02 0.  0.
        -11    1    3    3    0    0 -0.34926087447E+02 -0.37676032756E+02 -0.18518070870E+02  0.54609834072E+02  0.00000000000E+00 0.  1.
         12    1    3    3    0    0  0.23934936489E+02  0.14105519649E+02  0.49127072859E+01  0.28213145202E+02  0.00000000000E+00 0. -1.
         13    1    5    5    0    0  0.22486116170E+02  0.20144758897E+02  0.55564624896E+03  0.55646580372E+03  0.00000000000E+00 0. -1.
        -14    1    5    5    0    0 -0.18017417263E+02 -0.21123793228E+02  0.81831655417E+02  0.86413319537E+02  0.00000000000E+00 0.  1.
          5    1    4    4  501    0 -0.58349537749E+02  0.65663665297E+01  0.18957522414E+03  0.19850446779E+03  0.41800000000E+01 0.  1.
         -5    1    4    4    0  501  0.64871989801E+02  0.17983180909E+02  0.15942704347E+03  0.17310755167E+03  0.41800000000E+01 0.  1.
</event>
<event>
11    1  0.8041700E-009  0.1482990E+03  0.7561462E-02  0.1098630E+00
         22   -1    0    0    0    0  0.00000000000E+00  0.00000000000E+00  0.74065862712E+02  0.74065862712E+02  0.00000000000E+00 0. -1.
         22   -1    0    0    0    0 -0.00000000000E+00 -0.00000000000E+00 -0.21546988664E+04  0.21546988664E+04  0.00000000000E+00 0.  1.
         24    2    1    2    0    0 -0.54582841996E+02  0.11083592276E+02 -0.18490361007E+04  0.18518149993E+04  0.84747608903E+02 0.  0.
         25    2    1    2    0    0 -0.32458588581E+02  0.20766608306E+02 -0.21354979149E+03  0.25047857800E+03  0.12510472653E+03 0.  0.
        -24    2    1    2    0    0  0.87041430577E+02 -0.31850200581E+02 -0.18047111455E+02  0.12647115178E+03  0.84134464322E+02 0.  0.
        -11    1    3    3    0    0  0.12768745706E+02 -0.18482873349E+02 -0.74082364634E+03  0.74116417375E+03  0.00000000000E+00 0.  1.
         12    1    3    3    0    0 -0.67351587702E+02  0.29566465625E+02 -0.11082124544E+04  0.11106508256E+04  0.00000000000E+00 0. -1.
         11    1    5    5    0    0  0.12814957811E+01 -0.27427291143E+02  0.18537363824E+02  0.33129026373E+02  0.00000000000E+00 0. -1.
        -12    1    5    5    0    0  0.85759934796E+02 -0.44229094383E+01 -0.36584475279E+02  0.93342125408E+02  0.00000000000E+00 0.  1.
          5    1    4    4  501    0 -0.34905403794E+02 -0.34795391776E+01  0.17634310617E+00  0.35327013797E+02  0.41800000000E+01 0. -1.
         -5    1    4    4    0  501  0.24468152123E+01  0.24246147483E+02 -0.21372613459E+03  0.21515156421E+03  0.41800000000E+01 0. -1.
</event>
<event>
11    1  0.8041700E-009  0.3477639E+03  0.7561462E-02  0.9817850E-01
         22   -1    0    0    0    0  0.00000000000E+00  0.00000000000E+00  0.13060895660E+04  0.13060895660E+04  0.00000000000E+00 0. -1.
         22   -1    0    0    0    0 -0.00000000000E+00 -0.00000000000E+00 -0.25980070202E+03  0.25980070202E+03  0.00000000000E+00 0.  1.
         24    2    1    2    0    0 -0.44106213952E+01 -0.82028234207E+02 -0.14929990041E+03  0.18594926588E+03  0.74421666418E+02 0.  0.
         25    2    1    2    0    0  0.28360569944E+03 -0.11707423181E+03  0.49411266371E+03  0.59492368597E+03  0.12509316200E+03 0.  0.
        -24    2    1    2    0    0 -0.27919507804E+03  0.19910246601E+03  0.70147610065E+03  0.78501731615E+03  0.81189797960E+02 0.  0.
        -13    1    3    3    0    0  0.49715967689E+01 -0.94426661624E+02 -0.13502497249E+03  0.16484190728E+03  0.00000000000E+00 0.  1.
         14    1    3    3    0    0 -0.93822181640E+01  0.12398427417E+02 -0.14274927916E+02  0.21107358601E+02  0.00000000000E+00 0. -1.
         11    1    5    5    0    0 -0.22329029081E+03  0.16992944076E+03  0.63023221788E+03  0.68987478376E+03  0.00000000000E+00 0. -1.
        -12    1    5    5    0    0 -0.55904787229E+02  0.29173025250E+02  0.71243882763E+02  0.95142532384E+02  0.00000000000E+00 0.  1.
          5    1    4    4  501    0  0.19824855061E+03 -0.36686044276E+02  0.38541713073E+03  0.43498527644E+03  0.41800000000E+01 0. -1.
         -5    1    4    4    0  501  0.85357148833E+02 -0.80388187532E+02  0.10869553298E+03  0.15993840953E+03  0.41800000000E+01 0. -1.
</event>
<event>
11    1  0.8041700E-009  0.1577466E+03  0.7561462E-02  0.1089216E+00
         22   -1    0    0    0    0  0.00000000000E+00  0.00000000000E+00  0.13203453857E+03  0.13203453857E+03  0.00000000000E+00 0.  1.
         22   -1    0    0    0    0 -0.00000000000E+00 -0.00000000000E+00 -0.60770338489E+03  0.60770338489E+03  0.00000000000E+00 0.  1.
         24    2    1    2    0    0 -0.78544051370E+01  0.36756227631E+02 -0.38678567705E+03  0.39549821991E+03  0.73504897990E+02 0.  0.
         25    2    1    2    0    0  0.41139620665E+02 -0.11897943645E+03 -0.12788934911E+03  0.21875116092E+03  0.12509120714E+03 0.  0.
        -24    2    1    2    0    0 -0.33285215528E+02  0.82223208819E+02  0.39006179846E+02  0.12548854263E+03  0.79732870408E+02 0.  0.
        -11    1    3    3    0    0 -0.32356753278E+02  0.44353641578E+02 -0.21976787440E+03  0.22652179503E+03  0.00000000000E+00 0.  1.
         12    1    3    3    0    0  0.24502348141E+02 -0.75974139470E+01 -0.16701780265E+03  0.16897642488E+03  0.00000000000E+00 0. -1.
         13    1    5    5    0    0 -0.91434452605E+00  0.13981152722E+02 -0.23559172058E+02  0.27410641098E+02  0.00000000000E+00 0. -1.
        -14    1    5    5    0    0 -0.32370871002E+02  0.68242056097E+02  0.62565351904E+02  0.98077901531E+02  0.00000000000E+00 0.  1.
          5    1    4    4  501    0 -0.35691360002E+02 -0.86850100814E+02 -0.71393866898E+02  0.11803122392E+03  0.41800000000E+01 0.  1.
         -5    1    4    4    0  501  0.76830980668E+02 -0.32129335636E+02 -0.56495482215E+02  0.10071993700E+03  0.41800000000E+01 0.  1.
</event>
<event>
11    1  0.8041700E-009  0.1474506E+03  0.7561462E-02  0.1099513E+00
         22   -1    0    0    0    0  0.00000000000E+00  0.00000000000E+00  0.31659958078E+03  0.31659958078E+03  0.00000000000E+00 0. -1.
         22   -1    0    0    0    0 -0.00000000000E+00 -0.00000000000E+00 -0.58454377023E+03  0.58454377023E+03  0.00000000000E+00 0. -1.
        -24    2    1    2    0    0 -0.47991104382E+01 -0.54345891049E+02 -0.44583487210E+03  0.45679088113E+03  0.83142459461E+02 0.  0.
         25    2    1    2    0    0  0.81407858774E+02  0.62075612755E+02 -0.67426261046E+02  0.17514206228E+03  0.12509124723E+03 0.  0.
         24    2    1    2    0    0 -0.76608748336E+02 -0.77297217064E+01  0.24531694370E+03  0.26921040759E+03  0.79782151970E+02 0.  0.
        -13    1    5    5    0    0 -0.53779856061E+02 -0.21461629464E+02  0.65476047985E+02  0.87407020982E+02  0.00000000000E+00 0.  1.
         14    1    5    5    0    0 -0.22828892274E+02  0.13731907758E+02  0.17984089571E+03  0.18180338661E+03  0.00000000000E+00 0. -1.
         11    1    3    3    0    0 -0.21372077753E+02 -0.24981589680E+02 -0.39126782988E+03  0.39264660986E+03  0.00000000000E+00 0. -1.
        -12    1    3    3    0    0  0.16572967315E+02 -0.29364301369E+02 -0.54567042219E+02  0.64144271272E+02  0.00000000000E+00 0.  1.
          5    1    4    4  501    0  0.70400259620E+01  0.64939373021E+02 -0.75781659178E+02  0.10013499090E+03  0.41800000000E+01 0. -1.
         -5    1    4    4    0  501  0.74367832812E+02 -0.28637602658E+01  0.83553981326E+01  0.75007071386E+02  0.41800000000E+01 0. -1.
</event>
<event>
11    1  0.8041700E-009  0.1387054E+03  0.7561462E-02  0.1109013E+00
         22   -1    0    0    0    0  0.00000000000E+00  0.00000000000E+00  0.28062253367E+04  0.28062253367E+04  0.00000000000E+00 0.  1.
         22   -1    0    0    0    0 -0.00000000000E+00 -0.00000000000E+00 -0.15463942604E+03  0.15463942604E+03  0.00000000000E+00 0.  1.
         24    2    1    2    0    0 -0.85472787273E+01  0.46101317065E+02 -0.13422514939E+03  0.16319689635E+03  0.80115222264E+02 0.  0.
         25    2    1    2    0    0 -0.28995011947E+02 -0.79250980309E+02  0.14554613064E+04  0.14632623509E+04  0.12509062520E+03 0.  0.
        -24    2    1    2    0    0  0.37542290674E+02  0.33149663244E+02  0.13303497536E+04  0.13344055155E+04  0.91100433465E+02 0.  0.
        -11    1    3    3    0    0  0.34765852125E+02  0.14514376466E+02 -0.41177260712E+02  0.55811274828E+02  0.00000000000E+00 0.  1.
         12    1    3    3    0    0 -0.43313130853E+02  0.31586940599E+02 -0.93047888681E+02  0.10738562152E+03  0.00000000000E+00 0. -1.
         13    1    5    5    0    0  0.32043957298E+02 -0.52018885081E+01  0.15242143294E+03  0.15584020040E+03  0.00000000000E+00 0. -1.
        -14    1    5    5    0    0  0.54983333761E+01  0.38351551752E+02  0.11779283207E+04  0.11785653151E+04  0.00000000000E+00 0.  1.
          5    1    4    4  501    0 -0.68796817196E+02 -0.84250432228E+02  0.95654618812E+03  0.96271969949E+03  0.41800000000E+01 0. -1.
         -5    1    4    4    0  501  0.39801805249E+02  0.49994519190E+01  0.49891511831E+03  0.50054265142E+03  0.41800000000E+01 0. -1.
</event>
<event>
11    1  0.8041700E-009  0.1572184E+03  0.7561462E-02  0.1089723E+00
         22   -1    0    0    0    0  0.00000000000E+00  0.00000000000E+00  0.36582282248E+04  0.36582282248E+04  0.00000000000E+00 0. -1.
         22   -1    0    0    0    0 -0.00000000000E+00 -0.00000000000E+00 -0.57400398911E+02  0.57400398911E+02  0.00000000000E+00 0.  1.
         24    2    1    2    0    0  0.48044904463E+01  0.39772389519E+02 -0.13466514937E+02  0.89773721295E+02  0.79202575174E+02 0.  0.
         25    2    1    2    0    0 -0.49378940480E+02  0.57788873698E+02  0.14455494159E+04  0.14529413912E+04  0.12509092196E+03 0.  0.
        -24    2    1    2    0    0  0.44574450033E+02 -0.97561263217E+02  0.21687449249E+04  0.21729135112E+04  0.81200345882E+02 0.  0.
        -11    1    3    3    0    0  0.16961370613E+02  0.60331736674E+02 -0.18541416473E+02  0.65355877073E+02  0.00000000000E+00 0.  1.
         12    1    3    3    0    0 -0.12156880167E+02 -0.20559347155E+02  0.50749015360E+01  0.24417844222E+02  0.00000000000E+00 0. -1.
         11    1    5    5    0    0  0.36460104585E+01 -0.33862782365E+01  0.90193913282E+03  0.90195285885E+03  0.00000000000E+00 0. -1.
        -12    1    5    5    0    0  0.40928439575E+02 -0.94174984981E+02  0.12668057921E+04  0.12709606523E+04  0.00000000000E+00 0.  1.
          5    1    4    4  501    0  0.24980973714E+02 -0.63291883813E+00  0.80860416022E+03  0.80900099503E+03  0.41800000000E+01 0.  1.
         -5    1    4    4    0  501 -0.74359914194E+02  0.58421792537E+02  0.63694525567E+03  0.64394039616E+03  0.41800000000E+01 0.  1.
</event>
<event>
11    1  0.8041700E-009  0.1626074E+03  0.7561462E-02  0.1084650E+00
         22   -1    0    0    0    0  0.00000000000E+00  0.00000000000E+00  0.72036894088E+03  0.72036894088E+03  0.00000000000E+00 0.  1.
         22   -1    0    0    0    0 -0.00000000000E+00 -0.00000000000E+00 -0.14304695874E+04  0.14304695874E+04  0.00000000000E+00 0.  1.
        -24    2    1    2    0    0 -0.82043048342E+02  0.65101408354E+02 -0.95895580867E+03  0.96791650643E+03  0.79352790046E+02 0.  0.
         25    2    1    2    0    0  0.59697367281E+02 -0.85930281184E+02 -0.45003255420E+03  0.47866847630E+03  0.12508565657E+03 0.  0.
         24    2    1    2    0    0  0.22345681061E+02  0.20828872830E+02  0.69888771636E+03  0.70425354554E+03  0.81214807233E+02 0.  0.
        -13    1    5    5    0    0  0.20676756378E+02  0.10293203404E+02  0.68995158825E+03  0.69033808559E+03  0.00000000000E+00 0.  1.
         14    1    5    5    0    0  0.16689246822E+01  0.10535669425E+02  0.89361281128E+01  0.13915459945E+02  0.00000000000E+00 0. -1.
         13    1    3    3    0    0  0.75018327433E+01  0.17239431866E+02 -0.51988341891E+02  0.55283480337E+02  0.00000000000E+00 0. -1.
        -14    1    3    3    0    0 -0.89544881085E+02  0.47861976489E+02 -0.90696746678E+03  0.91263302610E+03  0.00000000000E+00 0.  1.
          5    1    4    4  501    0  0.83560867398E+02 -0.74534089995E+02 -0.21813697541E+03  0.24523246436E+03  0.41800000000E+01 0.  1.
         -5    1    4    4    0  501 -0.23863500116E+02 -0.11396191189E+02 -0.23189557879E+03  0.23343601195E+03  0.41800000000E+01 0.  1.
</event>
<event>
11    1  0.8041700E-009  0.1559733E+03  0.7561462E-02  0.1090927E+00
         22   -1    0    0    0    0  0.00000000000E+00  0.00000000000E+00  0.73613282763E+03  0.73613282763E+03  0.00000000000E+00 0. -1.
         22   -1    0    0    0    0 -0.00000000000E+00 -0.00000000000E+00 -0.18688746644E+03  0.18688746644E+03  0.00000000000E+00 0.  1.
         24    2    1    2    0    0 -0.11966692745E+02 -0.47682478582E+02 -0.14078933628E+03  0.17616927302E+03  0.93793150330E+02 0.  0.
         25    2    1    2    0    0 -0.80234269240E+02  0.61108713956E+02  0.35005429873E+03  0.38517197930E+03  0.12509048204E+03 0.  0.
        -24    2    1    2    0    0  0.92200961985E+02 -0.13426235375E+02  0.33998039874E+03  0.36167904174E+03  0.80893612345E+02 0.  0.
        -13    1    3    3    0    0 -0.49787835587E+01  0.25488461340E+02 -0.67706742564E+02  0.72516570078E+02  0.00000000000E+00 0.  1.
         14    1    3    3    0    0 -0.69879091865E+01 -0.73170939922E+02 -0.73082593716E+02  0.10365270295E+03  0.00000000000E+00 0. -1.
         11    1    5    5    0    0  0.53501152738E+02 -0.47142515460E+02  0.17763591103E+03  0.19141396760E+03  0.00000000000E+00 0. -1.
        -12    1    5    5    0    0  0.38699809247E+02  0.33716280086E+02  0.16234448772E+03  0.17026507414E+03  0.00000000000E+00 0.  1.
          5    1    4    4  501    0 -0.15991666526E+02 -0.31546618060E+02  0.32666740741E+02  0.48327123440E+02  0.41800000000E+01 0.  1.
         -5    1    4    4    0  501 -0.64242602714E+02  0.92655332016E+02  0.31738755799E+03  0.33684485586E+03  0.41800000000E+01 0.  1.
</event>
<event>
11    1  0.8041700E-009  0.1532581E+03  0.7561462E-02  0.1093595E+00
         22   -1    0    0    0    0  0.00000000000E+00  0.00000000000E+00  0.31260888427E+03  0.31260888427E+03  0.00000000000E+00 0.  1.
         22   -1    0    0    0    0 -0.00000000000E+00 -0.00000000000E+00 -0.57045200716E+03  0.57045200716E+03  0.00000000000E+00 0.  1.
         24    2    1    2    0    0 -0.95796705804E+02  0.48749991089E+01 -0.48597029664E+03  0.50188602886E+03  0.80756933399E+02 0.  0.
         25    2    1    2    0    0  0.29175541917E+02  0.16538166010E+02  0.84043444905E-01  0.12950834273E+03  0.12509068947E+03 0.  0.
        -24    2    1    2    0    0  0.66621163887E+02 -0.21413165119E+02  0.22804313031E+03  0.25166651984E+03  0.80221348819E+02 0.  0.
        -13    1    3    3    0    0 -0.73999336169E+02  0.18480011155E+02 -0.45632419950E+03  0.46265450134E+03  0.00000000000E+00 0.  1.
         14    1    3    3    0    0 -0.21797369635E+02 -0.13605012046E+02 -0.29646097144E+02  0.39231527521E+02  0.00000000000E+00 0. -1.
         11    1    5    5    0    0 -0.10734266319E+02  0.75255482773E+01  0.53642269259E+01  0.14164507785E+02  0.00000000000E+00 0. -1.
        -12    1    5    5    0    0  0.77355430206E+02 -0.28938713396E+02  0.22267890338E+03  0.23750201205E+03  0.00000000000E+00 0.  1.
          5    1    4    4  501    0  0.60455463340E+02  0.27847810215E+02  0.39698409499E+02  0.77613141272E+02  0.41800000000E+01 0. -1.
         -5    1    4    4    0  501 -0.31279921423E+02 -0.11309644205E+02 -0.39614366054E+02  0.51895201456E+02  0.41800000000E+01 0. -1.
</event>
<event>
11    1  0.8041700E-009  0.1714504E+03  0.7561462E-02  0.1076776E+00
         22   -1    0    0    0    0  0.00000000000E+00  0.00000000000E+00  0.86175589137E+03  0.86175589137E+03  0.00000000000E+00 0.  1.
         22   -1    0    0    0    0 -0.00000000000E+00 -0.00000000000E+00 -0.19626060620E+04  0.19626060620E+04  0.00000000000E+00 0. -1.
         24    2    1    2    0    0  0.11302809384E+03  0.27453379897E+02 -0.18906081935E+04  0.18958798188E+04  0.80199178489E+02 0.  0.
         25    2    1    2    0    0 -0.19909513634E+03  0.63385096335E+01  0.15398220085E+03  0.28114739939E+03  0.12511711307E+03 0.  0.
        -24    2    1    2    0    0  0.86067042500E+02 -0.33791889530E+02  0.63577582199E+03  0.64733473514E+03  0.79258664391E+02 0.  0.
        -11    1    3    3    0    0  0.48807051430E+01 -0.12649127322E+02 -0.54821709721E+02  0.56473370374E+02  0.00000000000E+00 0.  1.
         12    1    3    3    0    0  0.10814738870E+03  0.40102507219E+02 -0.18357864837E+04  0.18394064485E+04  0.00000000000E+00 0. -1.
         11    1    5    5    0    0  0.27511607514E+02  0.12704431328E+02  0.65406340609E+02  0.72085230910E+02  0.00000000000E+00 0. -1.
        -12    1    5    5    0    0  0.58555434986E+02 -0.46496320859E+02  0.57036948138E+03  0.57524950423E+03  0.00000000000E+00 0.  1.
          5    1    4    4  501    0 -0.14859964521E+03 -0.16554432253E+02  0.16684673781E+03  0.22407858019E+03  0.41800000000E+01 0.  1.
         -5    1    4    4    0  501 -0.50495491133E+02  0.22892941886E+02 -0.12864536961E+02  0.57068819194E+02  0.41800000000E+01 0.  1.
</event>
<event>
11    1  0.8041700E-009  0.4979787E+03  0.7561462E-02  0.9398049E-01
         22   -1    0    0    0    0  0.00000000000E+00  0.00000000000E+00  0.12703450738E+04  0.12703450738E+04  0.00000000000E+00 0. -1.
         22   -1    0    0    0    0 -0.00000000000E+00 -0.00000000000E+00 -0.11359188469E+04  0.11359188469E+04  0.00000000000E+00 0. -1.
         24    2    1    2    0    0 -0.10888866910E+03 -0.47325587504E+03 -0.98537010049E+03  0.11014697403E+04  0.80333606067E+02 0.  0.
         25    2    1    2    0    0  0.81366218442E+02  0.43753404889E+03  0.51186079302E+03  0.68971317861E+03  0.12508513854E+03 0.  0.
        -24    2    1    2    0    0  0.27522450658E+02  0.35721826146E+02  0.60793553435E+03  0.61508100188E+03  0.81887061272E+02 0.  0.
        -11    1    3    3    0    0 -0.10248435463E+03 -0.31047210125E+03 -0.70689576679E+03  0.77884375436E+03  0.00000000000E+00 0.  1.
         12    1    3    3    0    0 -0.64043144743E+01 -0.16278377379E+03 -0.27847433370E+03  0.32262598590E+03  0.00000000000E+00 0. -1.
         11    1    5    5    0    0 -0.19056851246E+02 -0.61173020891E+01  0.30959844158E+03  0.31024470986E+03  0.00000000000E+00 0. -1.
        -12    1    5    5    0    0  0.46579301905E+02  0.41839128235E+02  0.29833709276E+03  0.30483629203E+03  0.00000000000E+00 0.  1.
          5    1    4    4  501    0  0.83406128384E+02  0.42556518399E+03  0.44403504429E+03  0.62068260893E+03  0.41800000000E+01 0.  1.
         -5    1    4    4    0  501 -0.20399099424E+01  0.11968864900E+02  0.67825748732E+02  0.69030569682E+02  0.41800000000E+01 0.  1.
</event>
<event>
11    1  0.8041700E-009  0.1370335E+03  0.7561462E-02  0.1110917E+00
         22   -1    0    0    0    0  0.00000000000E+00  0.00000000000E+00  0.75874944073E+03  0.75874944073E+03  0.00000000000E+00 0. -1.
         22   -1    0    0    0    0 -0.00000000000E+00 -0.00000000000E+00 -0.20619480086E+03  0.20619480086E+03  0.00000000000E+00 0.  1.
         24    2    1    2    0    0  0.50294298032E+02 -0.16187598175E+02 -0.16023278718E+03  0.18687689214E+03  0.80354663702E+02 0.  0.
         25    2    1    2    0    0 -0.61364124915E+02 -0.39028478046E+02  0.15650289692E+03  0.21314097656E+03  0.12508853352E+03 0.  0.
        -24    2    1    2    0    0  0.11069826883E+02  0.55216076221E+02  0.55628453013E+03  0.56492637289E+03  0.80733959330E+02 0.  0.
        -13    1    3    3    0    0  0.33683164524E+02 -0.40412299918E+02 -0.14401702586E+03  0.15332518807E+03  0.00000000000E+00 0.  1.
         14    1    3    3    0    0  0.16611133508E+02  0.24224701743E+02 -0.16215761313E+02  0.33551704069E+02  0.00000000000E+00 0. -1.
         13    1    5    5    0    0 -0.11506092642E+02  0.42280795827E+02  0.50960238713E+03  0.51148279427E+03  0.00000000000E+00 0. -1.
        -14    1    5    5    0    0  0.22575919525E+02  0.12935280394E+02  0.46682142999E+02  0.53443578625E+02  0.00000000000E+00 0.  1.
          5    1    4    4  501    0  0.12773656530E+02 -0.16417563086E+02  0.12908819529E+03  0.13082024783E+03  0.41800000000E+01 0.  1.
         -5    1    4    4    0  501 -0.74137781445E+02 -0.22610914960E+02  0.27414701629E+02  0.82320728728E+02  0.41800000000E+01 0.  1.
</event>
<event>
11    1  0.8041700E-009  0.1514328E+03  0.7561462E-02  0.1095424E+00
         22   -1    0    0    0    0  0.00000000000E+00  0.00000000000E+00  0.14973945061E+04  0.14973945061E+04  0.00000000000E+00 0.  1.
         22   -1    0    0    0    0 -0.00000000000E+00 -0.00000000000E+00 -0.22736152898E+02  0.22736152898E+02  0.00000000000E+00 0.  1.
        -24    2    1    2    0    0  0.22075683776E+02  0.14225761790E+02  0.19738357556E+03  0.21449081293E+03  0.79726562832E+02 0.  0.
         25    2    1    2    0    0 -0.97811036026E+02  0.35986810152E+01  0.72879032459E+03  0.74589461271E+03  0.12507392526E+03 0.  0.
         24    2    1    2    0    0  0.75735352250E+02 -0.17824442805E+02  0.54848445302E+03  0.55974523332E+03  0.80162189809E+02 0.  0.
        -13    1    5    5    0    0  0.90577775248E+02 -0.25717292097E+02  0.48611647910E+03  0.49515143515E+03  0.00000000000E+00 0.  1.
         14    1    5    5    0    0 -0.14842422998E+02  0.78928492918E+01  0.62367973921E+02  0.64593798165E+02  0.00000000000E+00 0. -1.
         11    1    3    3    0    0 -0.13357020431E+02  0.33267870068E+02  0.13929525178E+03  0.14383437817E+03  0.00000000000E+00 0. -1.
        -12    1    3    3    0    0  0.35432704207E+02 -0.19042108278E+02  0.58088323774E+02  0.70656434767E+02  0.00000000000E+00 0.  1.
          5    1    4    4  501    0 -0.51900981417E+02  0.33702465959E+02  0.12443389104E+03  0.13903536860E+03  0.41800000000E+01 0. -1.
         -5    1    4    4    0  501 -0.45910054609E+02 -0.30103784944E+02  0.60435643355E+03  0.60685924410E+03  0.41800000000E+01 0. -1.
</event>
<event>
11    1  0.8041700E-009  0.1267060E+03  0.7561462E-02  0.1123384E+00
         22   -1    0    0    0    0  0.00000000000E+00  0.00000000000E+00  0.55919766782E+03  0.55919766782E+03  0.00000000000E+00 0. -1.
         22   -1    0    0    0    0 -0.00000000000E+00 -0.00000000000E+00 -0.92748012585E+03  0.92748012585E+03  0.00000000000E+00 0. -1.
        -24    2    1    2    0    0  0.14684301131E+02  0.13168596297E+02 -0.89447327652E+03  0.89834964140E+03  0.80997500990E+02 0.  0.
         25    2    1    2    0    0 -0.23086130193E+02  0.59494755530E+01  0.12544839782E+03  0.17875293886E+03  0.12508775707E+03 0.  0.
         24    2    1    2    0    0  0.84018290626E+01 -0.19118071850E+02  0.40074242067E+03  0.40957521340E+03  0.81983390449E+02 0.  0.
        -11    1    5    5    0    0  0.29689912832E+01  0.26796250510E+02  0.60881892491E+02  0.66584223236E+02  0.00000000000E+00 0.  1.
         12    1    5    5    0    0  0.54328377794E+01 -0.45914322360E+02  0.33986052818E+03  0.34299099017E+03  0.00000000000E+00 0. -1.
         13    1    3    3    0    0  0.41304406033E+02  0.12904978835E+02 -0.76201195149E+03  0.76323967838E+03  0.00000000000E+00 0. -1.
        -14    1    3    3    0    0 -0.26620104902E+02  0.26361746227E+00 -0.13246132503E+03  0.13510996302E+03  0.00000000000E+00 0.  1.
          5    1    4    4  501    0  0.41951942419E+02 -0.33038400155E+01  0.64727368957E+01  0.42781415995E+02  0.41800000000E+01 0. -1.
         -5    1    4    4    0  501 -0.65038072612E+02  0.92533155685E+01  0.11897566092E+03  0.13597152287E+03  0.41800000000E+01 0. -1.
</event>
<event>
11    1  0.8041700E-009  0.1423424E+03  0.7561462E-02  0.1104971E+00
         22   -1    0    0    0    0  0.00000000000E+00  0.00000000000E+00  0.38471902337E+03  0.38471902337E+03  0.00000000000E+00 0.  1.
         22   -1    0    0    0    0 -0.00000000000E+00 -0.00000000000E+00 -0.23208391739E+03  0.23208391739E+03  0.00000000000E+00 0. -1.
         24    2    1    2    0    0  0.65716560062E+02 -0.18022012424E+02 -0.17515270452E+03  0.20089396505E+03  0.70967993443E+02 0.  0.
         25    2    1    2    0    0 -0.73830000832E+02 -0.26986971281E+02  0.12649408063E+03  0.19449311991E+03  0.12509058965E+03 0.  0.
        -24    2    1    2    0    0  0.81134407694E+01  0.45008983705E+02  0.20129372987E+03  0.22141585580E+03  0.80088569592E+02 0.  0.
        -13    1    3    3    0    0 -0.36764311403E+01 -0.17237913192E+02 -0.69658717065E+01  0.18952181029E+02  0.00000000000E+00 0.  1.
         14    1    3    3    0    0  0.69392991202E+02 -0.78409923202E+00 -0.16818683281E+03  0.18194178402E+03  0.00000000000E+00 0. -1.
         11    1    5    5    0    0  0.27146841199E+02  0.51276627441E+02  0.81996563881E+02  0.10044739916E+03  0.00000000000E+00 0. -1.
        -12    1    5    5    0    0 -0.19033400429E+02 -0.62676437366E+01  0.11929716599E+03  0.12096845664E+03  0.00000000000E+00 0.  1.
          5    1    4    4  501    0 -0.54427618265E+02 -0.15605122677E+02 -0.86466732429E+01  0.57429285577E+02  0.41800000000E+01 0.  1.
         -5    1    4    4    0  501 -0.19402382567E+02 -0.11381848604E+02  0.13514075387E+03  0.13706383434E+03  0.41800000000E+01 0.  1.
</event>
<event>
11    1  0.8041700E-009  0.1737010E+03  0.7561462E-02  0.1074855E+00
         22   -1    0    0    0    0  0.00000000000E+00  0.00000000000E+00  0.22829054284E+03  0.22829054284E+03  0.00000000000E+00 0.  1.
         22   -1    0    0    0    0 -0.00000000000E+00 -0.00000000000E+00 -0.76348264049E+03  0.76348264049E+03  0.00000000000E+00 0.  1.
         24    2    1    2    0    0 -0.11612965680E+03 -0.24038012526E+02 -0.59259127942E+03  0.60907568173E+03  0.75794712144E+02 0.  0.
         25    2    1    2    0    0  0.12983947222E+03  0.34462727999E+02 -0.86077249309E+02  0.20273758645E+03  0.12508904007E+03 0.  0.
        -24    2    1    2    0    0 -0.13709815423E+02 -0.10424715473E+02  0.14347643109E+03  0.17995991515E+03  0.10725414235E+03 0.  0.
        -11    1    3    3    0    0 -0.61218418024E+02  0.24768993909E+02 -0.24055806146E+03  0.24945817024E+03  0.00000000000E+00 0.  1.
         12    1    3    3    0    0 -0.54911238772E+02 -0.48807006435E+02 -0.35203321796E+03  0.35961751149E+03  0.00000000000E+00 0. -1.
         11    1    5    5    0    0 -0.19209522888E+02 -0.41271594810E+02  0.15324746053E+02  0.48033302503E+02  0.00000000000E+00 0. -1.
        -12    1    5    5    0    0  0.54997074646E+01  0.30846879337E+02  0.12815168503E+03  0.13192661264E+03  0.00000000000E+00 0.  1.
          5    1    4    4  501    0 -0.70931373899E+00 -0.19493218494E+00  0.26509628510E+02  0.26847233159E+02  0.41800000000E+01 0.  1.
         -5    1    4    4    0  501  0.13054878596E+03  0.34657660184E+02 -0.11258687782E+03  0.17589035329E+03  0.41800000000E+01 0.  1.
</event>
<event>
11    1  0.8041700E-009  0.1861244E+03  0.7561462E-02  0.1064794E+00
         22   -1    0    0    0    0  0.00000000000E+00  0.00000000000E+00  0.22984786337E+04  0.22984786337E+04  0.00000000000E+00 0. -1.
         22   -1    0    0    0    0 -0.00000000000E+00 -0.00000000000E+00 -0.14027894609E+03  0.14027894609E+03  0.00000000000E+00 0.  1.
         24    2    1    2    0    0  0.15256731551E+02 -0.13095791545E+03 -0.60958665149E+02  0.16636780745E+03  0.81114394664E+02 0.  0.
         25    2    1    2    0    0 -0.53175168147E+01  0.20386036361E+03  0.55154934113E+03  0.60119981645E+03  0.12508884748E+03 0.  0.
        -24    2    1    2    0    0 -0.99392147363E+01 -0.72902448159E+02  0.16676090116E+04  0.16711899559E+04  0.80885709945E+02 0.  0.
        -11    1    3    3    0    0  0.35683033715E+02 -0.93163487787E+02 -0.70751321744E+02  0.12230479909E+03  0.00000000000E+00 0.  1.
         12    1    3    3    0    0 -0.20426302164E+02 -0.37794427662E+02  0.97926565948E+01  0.44063008358E+02  0.00000000000E+00 0. -1.
         13    1    5    5    0    0 -0.89011347761E+00 -0.49797828484E+02  0.15584731979E+04  0.15592688429E+04  0.00000000000E+00 0. -1.
        -14    1    5    5    0    0 -0.90491012587E+01 -0.23104619674E+02  0.10913581372E+03  0.11192111294E+03  0.00000000000E+00 0.  1.
          5    1    4    4  501    0 -0.49274807962E+02  0.25869077951E+02  0.12400190680E+03  0.13598220907E+03  0.41800000000E+01 0. -1.
         -5    1    4    4    0  501  0.43957291147E+02  0.17799128566E+03  0.42754743433E+03  0.46521760738E+03  0.41800000000E+01 0. -1.
</event>
<event>
11    1  0.8041700E-009  0.1400822E+03  0.7561462E-02  0.1107467E+00
         22   -1    0    0    0    0  0.00000000000E+00  0.00000000000E+00  0.12059108972E+04  0.12059108972E+04  0.00000000000E+00 0.  1.
         22   -1    0    0    0    0 -0.00000000000E+00 -0.00000000000E+00 -0.57729514327E+03  0.57729514327E+03  0.00000000000E+00 0. -1.
         24    2    1    2    0    0 -0.56107481783E+02 -0.20771562515E+02 -0.25535572346E+03  0.27475919177E+03  0.81893593391E+02 0.  0.
         25    2    1    2    0    0  0.72607736559E+02 -0.66494024856E+01 -0.29381302815E+03  0.32755006473E+03  0.12508737520E+03 0.  0.
        -24    2    1    2    0    0 -0.16500254776E+02  0.27420965001E+02  0.11777845055E+04  0.11808967840E+04  0.79477702377E+02 0.  0.
        -11    1    3    3    0    0  0.70973134160E+01 -0.33746174544E+02 -0.11921510390E+03  0.12410244620E+03  0.00000000000E+00 0.  1.
         12    1    3    3    0    0 -0.63204795199E+02  0.12974612029E+02 -0.13614061956E+03  0.15065674558E+03  0.00000000000E+00 0. -1.
         11    1    5    5    0    0 -0.41243624677E+01 -0.23625148044E+02  0.16310652558E+03  0.16486023375E+03  0.00000000000E+00 0. -1.
        -12    1    5    5    0    0 -0.12375892308E+02  0.51046113044E+02  0.10146779800E+04  0.10160365502E+04  0.00000000000E+00 0.  1.
          5    1    4    4  501    0  0.14242882982E+02  0.33997550389E+02 -0.22655402381E+03  0.22957110283E+03  0.41800000000E+01 0. -1.
         -5    1    4    4    0  501  0.58364853578E+02 -0.40646952875E+02 -0.67259004336E+02  0.97978961902E+02  0.41800000000E+01 0. -1.
</event>
<event>
11    1  0.8041700E-009  0.1459819E+03  0.7561462E-02  0.1101057E+00
         22   -1    0    0    0    0  0.00000000000E+00  0.00000000000E+00  0.34228274238E+03  0.34228274238E+03  0.00000000000E+00 0.  1.
         22   -1    0    0    0    0 -0.00000000000E+00 -0.00000000000E+00 -0.42614315899E+03  0.42614315899E+03  0.00000000000E+00 0.  1.
         24    2    1    2    0    0 -0.30082133060E+01 -0.36917461044E+02 -0.21003790280E+03  0.22758001622E+03  0.79402738573E+02 0.  0.
         25    2    1    2    0    0 -0.32595620432E+02  0.10150056965E+03 -0.16319060436E+03  0.23161788512E+03  0.12510328231E+03 0.  0.
        -24    2    1    2    0    0  0.35603833738E+02 -0.64583108608E+02  0.28936809055E+03  0.30922800003E+03  0.80308488221E+02 0.  0.
        -11    1    3    3    0    0  0.15065292506E+02 -0.37936375001E+02 -0.20466726832E+03  0.20869792119E+03  0.00000000000E+00 0.  1.
         12    1    3    3    0    0 -0.18073505812E+02  0.10189139563E+01 -0.53706344752E+01  0.18882095028E+02  0.00000000000E+00 0. -1.
         11    1    5    5    0    0  0.19112854446E+02 -0.24876346046E+02  0.21738248369E+02  0.38166546082E+02  0.00000000000E+00 0. -1.
        -12    1    5    5    0    0  0.16490979292E+02 -0.39706762562E+02  0.26762984218E+03  0.27106145395E+03  0.00000000000E+00 0.  1.
          5    1    4    4  501    0 -0.61900234147E+02  0.12479691755E+02 -0.33647274961E+02  0.71672820554E+02  0.41800000000E+01 0. -1.
         -5    1    4    4    0  501  0.29304613715E+02  0.89020877897E+02 -0.12954332940E+03  0.15994506456E+03  0.41800000000E+01 0. -1.
</event>
<event>
11    1  0.8041700E-009  0.1823069E+03  0.7561462E-02  0.1067792E+00
         22   -1    0    0    0    0  0.00000000000E+00  0.00000000000E+00  0.27568384832E+04  0.27568384832E+04  0.00000000000E+00 0. -1.
         22   -1    0    0    0    0 -0.00000000000E+00 -0.00000000000E+00 -0.15583822344E+03  0.15583822344E+03  0.00000000000E+00 0. -1.
         24    2    1    2    0    0 -0.12060585289E+03 -0.57605191546E+02 -0.92243755091E+02  0.18070903798E+03  0.79263586915E+02 0.  0.
         25    2    1    2    0    0  0.82882191645E+02  0.10624245701E+03  0.44525447680E+03  0.48172183943E+03  0.12508982416E+03 0.  0.
        -24    2    1    2    0    0  0.37723661245E+02 -0.48637265468E+02  0.22479895380E+04  0.22502458292E+04  0.79753812122E+02 0.  0.
        -11    1    3    3    0    0  0.10250035348E+02  0.17587629861E+01 -0.12887959889E+02  0.16560675771E+02  0.00000000000E+00 0.  1.
         12    1    3    3    0    0 -0.13085588824E+03 -0.59363954532E+02 -0.79355795201E+02  0.16414836221E+03  0.00000000000E+00 0. -1.
         13    1    5    5    0    0  0.62970397309E+02 -0.34169726565E+02  0.16047474330E+04  0.16063459045E+04  0.00000000000E+00 0. -1.
        -14    1    5    5    0    0 -0.25246736063E+02 -0.14467538903E+02  0.64324210503E+03  0.64389992471E+03  0.00000000000E+00 0.  1.
          5    1    4    4  501    0  0.92035317299E+02  0.22564754682E+02  0.28926925538E+03  0.30442378733E+03  0.41800000000E+01 0.  1.
         -5    1    4    4    0  501 -0.91531256534E+01  0.83677702332E+02  0.15598522142E+03  0.17729805210E+03  0.41800000000E+01 0.  1.
</event>
<event>
11    1  0.8041700E-009  0.1531122E+03  0.7561462E-02  0.1093741E+00
         22   -1    0    0    0    0  0.00000000000E+00  0.00000000000E+00  0.21908295791E+04  0.21908295791E+04  0.00000000000E+00 0. -1.
         22   -1    0    0    0    0 -0.00000000000E+00 -0.00000000000E+00 -0.63683066039E+02  0.63683066039E+02  0.00000000000E+00 0.  1.
         24    2    1    2    0    0  0.74391215793E+02  0.37617830183E+02  0.15701699352E+02  0.11806730344E+03  0.82123021396E+02 0.  0.
         25    2    1    2    0    0 -0.52611189556E+02  0.57994894250E+02  0.53526062596E+03  0.55523030840E+03  0.12508162392E+03 0.  0.
        -24    2    1    2    0    0 -0.21780026237E+02 -0.95612724434E+02  0.15761841878E+04  0.15812150333E+04  0.79172123911E+02 0.  0.
        -11    1    3    3    0    0  0.92117351138E+02  0.25711437237E+02  0.13806459287E+02  0.96629719566E+02  0.00000000000E+00 0.  1.
         12    1    3    3    0    0 -0.17726135345E+02  0.11906392947E+02  0.18952400650E+01  0.21437583869E+02  0.00000000000E+00 0. -1.
         11    1    5    5    0    0 -0.86820283704E+01 -0.63106927699E+01  0.75657489424E+03  0.75665102462E+03  0.00000000000E+00 0. -1.
        -12    1    5    5    0    0 -0.13097997866E+02 -0.89302031664E+02  0.81960929351E+03  0.82456400868E+03  0.00000000000E+00 0.  1.
          5    1    4    4  501    0  0.31997604168E+02  0.22186872263E+02  0.63621687569E+02  0.74708068523E+02  0.41800000000E+01 0.  1.
         -5    1    4    4    0  501 -0.84608793724E+02  0.35808021988E+02  0.47163893839E+03  0.48052223988E+03  0.41800000000E+01 0.  1.
</event>
<event>
11    1  0.8041700E-009  0.1322759E+03  0.7561462E-02  0.1116504E+00
         22   -1    0    0    0    0  0.00000000000E+00  0.00000000000E+00  0.17040975724E+03  0.17040975724E+03  0.00000000000E+00 0.  1.
         22   -1    0    0    0    0 -0.00000000000E+00 -0.00000000000E+00 -0.81760194221E+03  0.81760194221E+03  0.00000000000E+00 0. -1.
         24    2    1    2    0    0 -0.23024866176E+02  0.52884798242E+01 -0.55164058378E+03  0.55781753264E+03  0.79340743361E+02 0.  0.
         25    2    1    2    0    0 -0.40808238262E+01 -0.39312210128E+02 -0.23251932844E+03  0.26697356801E+03  0.12509014721E+03 0.  0.
        -24    2    1    2    0    0  0.27105690002E+02  0.34023730304E+02  0.13696772725E+03  0.16322059880E+03  0.77385224106E+02 0.  0.
        -13    1    3    3    0    0 -0.36566700609E+02 -0.28513139879E+02 -0.30995348317E+03  0.31340275122E+03  0.00000000000E+00 0.  1.
         14    1    3    3    0    0  0.13541834433E+02  0.33801619703E+02 -0.24168710061E+03  0.24441478142E+03  0.00000000000E+00 0. -1.
         13    1    5    5    0    0 -0.16957164613E+02 -0.75223814560E+01  0.69852489709E+01  0.19822344908E+02  0.00000000000E+00 0. -1.
        -14    1    5    5    0    0  0.44062854615E+02  0.41546111760E+02  0.12998247828E+03  0.14339825389E+03  0.00000000000E+00 0.  1.
          5    1    4    4  501    0  0.51194914743E+02 -0.52313334977E+02 -0.11490372596E+03  0.13630092791E+03  0.41800000000E+01 0.  1.
         -5    1    4    4    0  501 -0.55275738569E+02  0.13001124850E+02 -0.11761560248E+03  0.13067264009E+03  0.41800000000E+01 0.  1.
</event>
<event>
11    1  0.8041700E-009  0.2803631E+03  0.7561462E-02  0.1008862E+00
         22   -1    0    0    0    0  0.00000000000E+00  0.00000000000E+00  0.18232316847E+04  0.18232316847E+04  0.00000000000E+00 0.  1.
         22   -1    0    0    0    0 -0.00000000000E+00 -0.00000000000E+00 -0.20889953888E+03  0.20889953888E+03  0.00000000000E+00 0.  1.
         24    2    1    2    0    0 -0.45620359402E+02 -0.12403760426E+03 -0.10466386945E+03  0.18672270745E+03  0.80276394070E+02 0.  0.
         25    2    1    2    0    0 -0.14225908181E+03 -0.78636751941E+02  0.16086543125E+03  0.26066529120E+03  0.12508925595E+03 0.  0.
        -24    2    1    2    0    0  0.18787944121E+03  0.20267435620E+03  0.15581305840E+04  0.15847432250E+04  0.85232582089E+02 0.  0.
        -11    1    3    3    0    0 -0.12273779023E+01  0.53328449279E+01 -0.30789784138E+02  0.31272296027E+02  0.00000000000E+00 0.  1.
         12    1    3    3    0    0 -0.44392981500E+02 -0.12937044919E+03 -0.73874085314E+02  0.15545041142E+03  0.00000000000E+00 0. -1.
         13    1    5    5    0    0  0.42157448803E+02  0.35710449504E+01  0.24762925685E+03  0.25121753860E+03  0.00000000000E+00 0. -1.
        -14    1    5    5    0    0  0.14572199241E+03  0.19910331125E+03  0.13105013272E+04  0.13335256864E+04  0.00000000000E+00 0.  1.
          5    1    4    4  501    0 -0.15568182469E+03 -0.95854772481E+02  0.14283924166E+03  0.23204630853E+03  0.41800000000E+01 0.  1.
         -5    1    4    4    0  501  0.13422742883E+02  0.17218020540E+02  0.18026189594E+02  0.28618982670E+02  0.41800000000E+01 0.  1.
</event>
<event>
11    1  0.8041700E-009  0.1692359E+03  0.7561462E-02  0.1078698E+00
         22   -1    0    0    0    0  0.00000000000E+00  0.00000000000E+00  0.26797725382E+03  0.26797725382E+03  0.00000000000E+00 0. -1.
         22   -1    0    0    0    0 -0.00000000000E+00 -0.00000000000E+00 -0.26584264440E+04  0.26584264440E+04  0.00000000000E+00 0. -1.
         24    2    1    2    0    0 -0.29969016394E+01 -0.35032446236E+01 -0.23994635208E+04  0.24007783969E+04  0.79312476923E+02 0.  0.
         25    2    1    2    0    0  0.73379048744E+02 -0.86246685258E+02 -0.20805669432E+03  0.26787839920E+03  0.12509305813E+03 0.  0.
        -24    2    1    2    0    0 -0.70382147104E+02  0.89749929881E+02  0.21707102501E+03  0.25774690171E+03  0.79403645342E+02 0.  0.
        -13    1    3    3    0    0  0.55677195769E+01  0.21616518467E+02 -0.21538124088E+03  0.21653487547E+03  0.00000000000E+00 0.  1.
         14    1    3    3    0    0 -0.85646212164E+01 -0.25119763091E+02 -0.21840822799E+04  0.21842435214E+04  0.00000000000E+00 0. -1.
         11    1    5    5    0    0 -0.47244229715E+02  0.59068651498E+02  0.20331874832E+03  0.21693233104E+03  0.00000000000E+00 0. -1.
        -12    1    5    5    0    0 -0.23137917389E+02  0.30681278383E+02  0.13752276690E+02  0.40814570664E+02  0.00000000000E+00 0.  1.
          5    1    4    4  501    0 -0.28471977849E+02 -0.38275721350E+02 -0.10408905824E+03  0.11457612672E+03  0.41800000000E+01 0.  1.
         -5    1    4    4    0  501  0.10185102659E+03 -0.47970963907E+02 -0.10396763608E+03  0.15330227248E+03  0.41800000000E+01 0.  1.
</event>
<event>
11    1  0.8041700E-009  0.4061355E+03  0.7561462E-02  0.9631826E-01
         22   -1    0    0    0    0  0.00000000000E+00  0.00000000000E+00  0.28049170058E+03  0.28049170058E+03  0.00000000000E+00 0.  1.
         22   -1    0    0    0    0 -0.00000000000E+00 -0.00000000000E+00 -0.19651510587E+04  0.19651510587E+04  0.00000000000E+00 0. -1.
         24    2    1    2    0    0  0.14037232245E+03 -0.51381344233E+02 -0.62100663929E+03  0.64380642844E+03  0.80579400706E+02 0.  0.
         25    2    1    2    0    0 -0.45404857731E+03 -0.15313915271E+03 -0.11069151412E+04  0.12126499977E+04  0.12508867447E+03 0.  0.
        -24    2    1    2    0    0  0.31367625487E+03  0.20452049694E+03  0.43262422431E+02  0.38918633307E+03  0.96813935565E+02 0.  0.
        -11    1    3    3    0    0  0.84887386952E+01  0.16133115472E+02 -0.36300960202E+02  0.40621371358E+02  0.00000000000E+00 0.  1.
         12    1    3    3    0    0  0.13188358375E+03 -0.67514459705E+02 -0.58470567909E+03  0.60318505708E+03  0.00000000000E+00 0. -1.
         13    1    5    5    0    0  0.38896016538E+01 -0.87967167408E+01 -0.33421318887E+01  0.10182390289E+02  0.00000000000E+00 0. -1.
        -14    1    5    5    0    0  0.30978665321E+03  0.21331721368E+03  0.46604554320E+02  0.37900394278E+03  0.00000000000E+00 0.  1.
          5    1    4    4  501    0 -0.41370754439E+03 -0.98083850161E+02 -0.91649847685E+03  0.10103273254E+04  0.41800000000E+01 0.  1.
         -5    1    4    4    0  501 -0.40341032924E+02 -0.55055302545E+02 -0.19041666439E+03  0.20232267236E+03  0.41800000000E+01 0.  1.
</event>
<event>
11    1  0.8041700E-009  0.2564344E+03  0.7561462E-02  0.1020526E+00
         22   -1    0    0    0    0  0.00000000000E+00  0.00000000000E+00  0.10686766569E+04  0.10686766569E+04  0.00000000000E+00 0.  1.
         22   -1    0    0    0    0 -0.00000000000E+00 -0.00000000000E+00 -0.23469220917E+04  0.23469220917E+04  0.00000000000E+00 0. -1.
         24    2    1    2    0    0 -0.28199242042E+02  0.79598182825E+02 -0.21398581876E+04  0.21430803388E+04  0.81665215887E+02 0.  0.
         25    2    1    2    0    0 -0.19493229791E+03 -0.39408069638E+02 -0.11888147292E+03  0.26330924404E+03  0.12508939473E+03 0.  0.
        -24    2    1    2    0    0  0.22313153995E+03 -0.40190113187E+02  0.98049422566E+03  0.10092091658E+04  0.75705247172E+02 0.  0.
        -11    1    3    3    0    0 -0.46348672318E+02  0.57714844630E+02 -0.94886234255E+03  0.95174521161E+03  0.00000000000E+00 0.  1.
         12    1    3    3    0    0  0.18149430276E+02  0.21883338195E+02 -0.11909958451E+04  0.11913351272E+04  0.00000000000E+00 0. -1.
         13    1    5    5    0    0  0.33293553604E+02 -0.36111352265E+02  0.19524924855E+03  0.20133246021E+03  0.00000000000E+00 0. -1.
        -14    1    5    5    0    0  0.18983798635E+03 -0.40787609220E+01  0.78524497711E+03  0.80787670558E+03  0.00000000000E+00 0.  1.
          5    1    4    4  501    0 -0.10484735017E+03 -0.16203116758E+02 -0.13185661490E+03  0.16929012707E+03  0.41800000000E+01 0.  1.
         -5    1    4    4    0  501 -0.90084947734E+02 -0.23204952880E+02  0.12975141978E+02  0.94019116970E+02  0.41800000000E+01 0.  1.
</event>
<event>
11    1  0.8041700E-009  0.1884041E+03  0.7561462E-02  0.1063041E+00
         22   -1    0    0    0    0  0.00000000000E+00  0.00000000000E+00  0.81661237804E+03  0.81661237804E+03  0.00000000000E+00 0.  1.
         22   -1    0    0    0    0 -0.00000000000E+00 -0.00000000000E+00 -0.15108623978E+03  0.15108623978E+03  0.00000000000E+00 0. -1.
        -24    2    1    2    0    0  0.13768356911E+03 -0.28485904299E+02 -0.76272939111E+02  0.17699922440E+03  0.75782268718E+02 0.  0.
         25    2    1    2    0    0 -0.14158794542E+03  0.24643247235E+02  0.47312832518E+03  0.51005188480E+03  0.12509227464E+03 0.  0.
         24    2    1    2    0    0  0.39043763111E+01  0.38426570647E+01  0.26867075218E+03  0.28064750862E+03  0.80926144400E+02 0.  0.
        -11    1    5    5    0    0  0.55046143194E+00 -0.38564953159E+02  0.12884529227E+03  0.13449411868E+03  0.00000000000E+00 0.  1.
         12    1    5    5    0    0  0.33539148791E+01  0.42407610224E+02  0.13982545991E+03  0.14615338993E+03  0.00000000000E+00 0. -1.
         13    1    3    3    0    0  0.14115250176E+03 -0.37011676272E+02 -0.80735903627E+02  0.16676983861E+03  0.00000000000E+00 0. -1.
        -14    1    3    3    0    0 -0.34689326535E+01  0.85257719727E+01  0.44629645162E+01  0.10229385796E+02  0.00000000000E+00 0.  1.
          5    1    4    4  501    0 -0.71388383021E+02 -0.50551990601E+02  0.21614848191E+03  0.23321544463E+03  0.41800000000E+01 0.  1.
         -5    1    4    4    0  501 -0.70199562401E+02  0.75195237836E+02  0.25697984327E+03  0.27683644016E+03  0.41800000000E+01 0.  1.
</event>
<event>
11    1  0.8041700E-009  0.1401971E+03  0.7561462E-02  0.1107338E+00
         22   -1    0    0    0    0  0.00000000000E+00  0.00000000000E+00  0.18668591441E+04  0.18668591441E+04  0.00000000000E+00 0.  1.
         22   -1    0    0    0    0 -0.00000000000E+00 -0.00000000000E+00 -0.63653318163E+02  0.63653318163E+02  0.00000000000E+00 0. -1.
        -24    2    1    2    0    0 -0.24741451316E+02 -0.47376723772E+02 -0.91552460787E+01  0.97031913022E+02  0.80465397814E+02 0.  0.
         25    2    1    2    0    0 -0.76358433163E+01 -0.20278213780E+02  0.48035246409E+03  0.49684586705E+03  0.12509122186E+03 0.  0.
         24    2    1    2    0    0  0.32377294632E+02  0.67654937551E+02  0.13320086079E+04  0.13366346821E+04  0.81974766065E+02 0.  0.
        -13    1    5    5    0    0  0.26364726559E+02  0.60960163600E+02  0.13197902681E+04  0.13214604013E+04  0.00000000000E+00 0.  1.
         14    1    5    5    0    0  0.60125680734E+01  0.66947739509E+01  0.12218339764E+02  0.15174280862E+02  0.00000000000E+00 0. -1.
         13    1    3    3    0    0 -0.48235562828E+02 -0.43856613094E+02 -0.23478720197E+02  0.69291574780E+02  0.00000000000E+00 0. -1.
        -14    1    3    3    0    0  0.23494111512E+02 -0.35201106772E+01  0.14323474118E+02  0.27740338241E+02  0.00000000000E+00 0.  1.
          5    1    4    4  501    0  0.11982115461E+02 -0.16963612973E+01 -0.26462936065E+01  0.13073790667E+02  0.41800000000E+01 0. -1.
         -5    1    4    4    0  501 -0.19617958777E+02 -0.18581852482E+02  0.48299875770E+03  0.48377207638E+03  0.41800000000E+01 0. -1.
</event>
<event>
11    1  0.8041700E-009  0.1848043E+03  0.7561462E-02  0.1065822E+00
         22   -1    0    0    0    0  0.00000000000E+00  0.00000000000E+00  0.20294494806E+03  0.20294494806E+03  0.00000000000E+00 0.  1.
         22   -1    0    0    0    0 -0.00000000000E+00 -0.00000000000E+00 -0.94469351006E+03  0.94469351006E+03  0.00000000000E+00 0. -1.
         24    2    1    2    0    0  0.24079604607E+02 -0.12319957160E+02 -0.43927026856E+03  0.44702325926E+03  0.78356982947E+02 0.  0.
         25    2    1    2    0    0 -0.43855725208E+02  0.14580915619E+03 -0.44632587178E+03  0.48789128897E+03  0.12508993312E+03 0.  0.
        -24    2    1    2    0    0  0.19776120601E+02 -0.13348919903E+03  0.14384757834E+03  0.21272390989E+03  0.79679827060E+02 0.  0.
        -11    1    3    3    0    0  0.43728802837E+01 -0.43284931186E+02 -0.18083827159E+03  0.18599781671E+03  0.00000000000E+00 0.  1.
         12    1    3    3    0    0  0.19706724323E+02  0.30964974026E+02 -0.25843199697E+03  0.26102544255E+03  0.00000000000E+00 0. -1.
         13    1    5    5    0    0 -0.28266507793E+02 -0.72891446494E+02  0.59160926289E+02  0.98041693346E+02  0.00000000000E+00 0. -1.
        -14    1    5    5    0    0  0.48042628395E+02 -0.60597752533E+02  0.84686652050E+02  0.11468221654E+03  0.00000000000E+00 0.  1.
          5    1    4    4  501    0 -0.62122666865E+02  0.16810311088E+02 -0.18375771326E+03  0.19474645537E+03  0.41800000000E+01 0. -1.
         -5    1    4    4    0  501  0.18266941657E+02  0.12899884510E+03 -0.26256815853E+03  0.29314483360E+03  0.41800000000E+01 0. -1.
</event>
<event>
11    1  0.8041700E-009  0.3770628E+03  0.7561462E-02  0.9719970E-01
         22   -1    0    0    0    0  0.00000000000E+00  0.00000000000E+00  0.58615016967E+03  0.58615016967E+03  0.00000000000E+00 0. -1.
         22   -1    0    0    0    0 -0.00000000000E+00 -0.00000000000E+00 -0.11108336368E+04  0.11108336368E+04  0.00000000000E+00 0.  1.
         24    2    1    2    0    0  0.18349246065E+03 -0.57700202325E+02 -0.80417077793E+03  0.83084492686E+03  0.81325616780E+02 0.  0.
         25    2    1    2    0    0  0.22883395934E+03  0.50161716819E+02 -0.11554085070E+03  0.28961789677E+03  0.12509060382E+03 0.  0.
        -24    2    1    2    0    0 -0.41232642000E+03  0.75384855060E+01  0.39502816152E+03  0.57652098282E+03  0.79115673854E+02 0.  0.
        -11    1    3    3    0    0  0.10639656854E+03  0.14983074778E+01 -0.32709040500E+03  0.34396309070E+03  0.00000000000E+00 0.  1.
         12    1    3    3    0    0  0.77095892113E+02 -0.59198509803E+02 -0.47708037293E+03  0.48688183615E+03  0.00000000000E+00 0. -1.
         13    1    5    5    0    0 -0.10548458113E+03  0.35097946045E+02  0.11940165009E+03  0.16314293340E+03  0.00000000000E+00 0. -1.
        -14    1    5    5    0    0 -0.30684183887E+03 -0.27559460539E+02  0.27562651143E+03  0.41337804943E+03  0.00000000000E+00 0.  1.
          5    1    4    4  501    0  0.23934196299E+03  0.55429836057E+02 -0.12331297975E+03  0.27491927060E+03  0.41800000000E+01 0. -1.
         -5    1    4    4    0  501 -0.10508003650E+02 -0.52681192385E+01  0.77721290530E+01  0.14698626162E+02  0.41800000000E+01 0. -1.
</event>
<event>
11    1  0.8041700E-009  0.1383991E+03  0.7561462E-02  0.1109359E+00
         22   -1    0    0    0    0  0.00000000000E+00  0.00000000000E+00  0.14086244186E+04  0.14086244186E+04  0.00000000000E+00 0. -1.
         22   -1    0    0    0    0 -0.00000000000E+00 -0.00000000000E+00 -0.12902797541E+04  0.12902797541E+04  0.00000000000E+00 0.  1.
         24    2    1    2    0    0 -0.15835097758E+02 -0.32167624174E+02 -0.12495136894E+04  0.12526732386E+04  0.81365080657E+02 0.  0.
         25    2    1    2    0    0 -0.43994078992E+02  0.26065585882E+02  0.85318310140E+02  0.15981730339E+03  0.12508981839E+03 0.  0.
        -24    2    1    2    0    0  0.59829176750E+02  0.61020382923E+01  0.12825400437E+04  0.12864136307E+04  0.79588317727E+02 0.  0.
        -13    1    3    3    0    0 -0.49136896855E+02 -0.17100824071E+02 -0.78660003433E+03  0.78831877234E+03  0.00000000000E+00 0.  1.
         14    1    3    3    0    0  0.33301799097E+02 -0.15066800103E+02 -0.46291365505E+03  0.46435446624E+03  0.00000000000E+00 0. -1.
         11    1    5    5    0    0  0.23333540024E+02 -0.24379048180E+02  0.93811452848E+03  0.93872129017E+03  0.00000000000E+00 0. -1.
        -12    1    5    5    0    0  0.36495636726E+02  0.30481086473E+02  0.34442551524E+03  0.34769234056E+03  0.00000000000E+00 0.  1.
          5    1    4    4  501    0 -0.86792989120E+02  0.20641541077E+02  0.71242857282E+02  0.11424584584E+03  0.41800000000E+01 0.  1.
         -5    1    4    4    0  501  0.42798910128E+02  0.54240448045E+01  0.14075452858E+02  0.45571457552E+02  0.41800000000E+01 0.  1.
</event>
<event>
11    1  0.8041700E-009  0.1447512E+03  0.7561462E-02  0.1102366E+00
         22   -1    0    0    0    0  0.00000000000E+00  0.00000000000E+00  0.47482217512E+03  0.47482217512E+03  0.00000000000E+00 0.  1.
         22   -1    0    0    0    0 -0.00000000000E+00 -0.00000000000E+00 -0.75878047111E+03  0.75878047111E+03  0.00000000000E+00 0.  1.
         24    2    1    2    0    0  0.16043099234E+01  0.31126885573E+02 -0.62578273514E+03  0.63167454609E+03  0.80232435901E+02 0.  0.
         25    2    1    2    0    0 -0.69286563234E+02 -0.56097327948E+02 -0.74930599812E+02  0.17091096517E+03  0.12509366562E+03 0.  0.
        -24    2    1    2    0    0  0.67682253310E+02  0.24970442375E+02  0.41675503896E+03  0.43101713497E+03  0.82985527257E+02 0.  0.
        -11    1    3    3    0    0 -0.18848306299E+02  0.52881745110E+02 -0.39586944795E+03  0.39983041085E+03  0.00000000000E+00 0.  1.
         12    1    3    3    0    0  0.20452616223E+02 -0.21754859537E+02 -0.22991328718E+03  0.23184413524E+03  0.00000000000E+00 0. -1.
         13    1    5    5    0    0  0.29893470552E+02  0.39664582975E+02  0.99767386132E+02  0.11144698318E+03  0.00000000000E+00 0. -1.
        -14    1    5    5    0    0  0.37788782759E+02 -0.14694140600E+02  0.31698765283E+03  0.31957015179E+03  0.00000000000E+00 0.  1.
          5    1    4    4  501    0 -0.43996716617E+02 -0.96284587380E+02 -0.51911290198E+02  0.11797748637E+03  0.41800000000E+01 0.  1.
         -5    1    4    4    0  501 -0.25289846617E+02  0.40187259433E+02 -0.23019309614E+02  0.52933478799E+02  0.41800000000E+01 0.  1.
</event>
<event>
11    1  0.8041700E-009  0.1315250E+03  0.7561462E-02  0.1117409E+00
         22   -1    0    0    0    0  0.00000000000E+00  0.00000000000E+00  0.57301130009E+03  0.57301130009E+03  0.00000000000E+00 0.  1.
         22   -1    0    0    0    0 -0.00000000000E+00 -0.00000000000E+00 -0.91060062326E+03  0.91060062326E+03  0.00000000000E+00 0.  1.
        -24    2    1    2    0    0 -0.25163030822E+02  0.32010352985E+02 -0.80607496437E+03  0.81125354133E+03  0.81961084207E+02 0.  0.
         25    2    1    2    0    0  0.34132558738E+02 -0.22478916332E+02 -0.55655996137E+02  0.14288903286E+03  0.12509737231E+03 0.  0.
         24    2    1    2    0    0 -0.89695279156E+01 -0.95314366531E+01  0.52414163733E+03  0.52946934916E+03  0.73770149816E+02 0.  0.
        -11    1    5    5    0    0 -0.12253397951E+02 -0.73262804809E+01  0.52518458603E+03  0.52537859640E+03  0.00000000000E+00 0.  1.
         12    1    5    5    0    0  0.32838700351E+01 -0.22051561721E+01 -0.10429487058E+01  0.40907527612E+01  0.00000000000E+00 0. -1.
         13    1    3    3    0    0 -0.10246417644E+02 -0.20831409329E+02 -0.48211007114E+03  0.48266868283E+03  0.00000000000E+00 0. -1.
        -14    1    3    3    0    0 -0.14916613179E+02  0.52841762314E+02 -0.32396489322E+03  0.32858485850E+03  0.00000000000E+00 0.  1.
          5    1    4    4  501    0 -0.32213393477E+02 -0.49926497095E+02 -0.28249534730E+02  0.65923185936E+02  0.41800000000E+01 0.  1.
         -5    1    4    4    0  501  0.66345952215E+02  0.27447580763E+02 -0.27406461407E+02  0.76965846919E+02  0.41800000000E+01 0.  1.
</event>
<event>
11    1  0.8041700E-009  0.1514627E+03  0.7561462E-02  0.1095393E+00
         22   -1    0    0    0    0  0.00000000000E+00  0.00000000000E+00  0.14126550034E+03  0.14126550034E+03  0.00000000000E+00 0.  1.
         22   -1    0    0    0    0 -0.00000000000E+00 -0.00000000000E+00 -0.30601208688E+04  0.30601208688E+04  0.00000000000E+00 0.  1.
        -24    2    1    2    0    0 -0.64858149827E+01  0.31196297319E+02 -0.27109045565E+04  0.27121584842E+04  0.76058230523E+02 0.  0.
         25    2    1    2    0    0 -0.28324912373E+02  0.49525369549E+02 -0.30592159223E+03  0.33539451152E+03  0.12508555022E+03 0.  0.
         24    2    1    2    0    0  0.34810727355E+02 -0.80721666868E+02  0.97970780218E+02  0.15383337344E+03  0.79615694220E+02 0.  0.
        -11    1    5    5    0    0  0.34635133015E+02 -0.63932844953E+02  0.11092131051E+03  0.13262932643E+03  0.00000000000E+00 0.  1.
         12    1    5    5    0    0  0.17559434060E+00 -0.16788821914E+02 -0.12950530296E+02  0.21204047010E+02  0.00000000000E+00 0. -1.
         11    1    3    3    0    0 -0.36723107484E+02  0.18255357300E+02 -0.87627169254E+03  0.87723082700E+03  0.00000000000E+00 0. -1.
        -12    1    3    3    0    0  0.30237292502E+02  0.12940940019E+02 -0.18346328640E+04  0.18349276572E+04  0.00000000000E+00 0.  1.
          5    1    4    4  501    0 -0.63749417434E+02  0.48133399813E+02 -0.28020482462E+03  0.29139840175E+03  0.41800000000E+01 0.  1.
         -5    1    4    4    0  501  0.35424505061E+02  0.13919697358E+01 -0.25716767605E+02  0.43996109767E+02  0.41800000000E+01 0.  1.
</event>
<event>
11    1  0.8041700E-009  0.2694674E+03  0.7561462E-02  0.1014011E+00
         22   -1    0    0    0    0  0.00000000000E+00  0.00000000000E+00  0.11108618153E+04  0.11108618153E+04  0.00000000000E+00 0.  1.
         22   -1    0    0    0    0 -0.00000000000E+00 -0.00000000000E+00 -0.28091321328E+03  0.28091321328E+03  0.00000000000E+00 0.  1.
        -24    2    1    2    0    0  0.19087464240E+01 -0.24580391033E+02 -0.11337136456E+03  0.14157670255E+03  0.81136042958E+02 0.  0.
         25    2    1    2    0    0 -0.23298803799E+02  0.25964357515E+03  0.15532083181E+02  0.28956288310E+03  0.12509115589E+03 0.  0.
         24    2    1    2    0    0  0.21390057375E+02 -0.23506318412E+03  0.92778788343E+03  0.96063544297E+03  0.79484983248E+02 0.  0.
        -11    1    5    5    0    0  0.20588522717E+02 -0.20938496782E+03  0.89263733789E+03  0.91709725167E+03  0.00000000000E+00 0.  1.
         12    1    5    5    0    0  0.80153465855E+00 -0.25678216298E+02  0.35150545541E+02  0.43538191302E+02  0.00000000000E+00 0. -1.
         11    1    3    3    0    0 -0.16125313988E+02  0.25262184065E+02 -0.27563735196E+02  0.40718094171E+02  0.00000000000E+00 0. -1.
        -12    1    3    3    0    0  0.18034060412E+02 -0.49842575098E+02 -0.85807629367E+02  0.10085860838E+03  0.00000000000E+00 0.  1.
          5    1    4    4  501    0  0.15224173877E+02  0.12146645726E+03 -0.49367554558E+02  0.13206249866E+03  0.41800000000E+01 0. -1.
         -5    1    4    4    0  501 -0.38522977676E+02  0.13817711789E+03  0.64899637739E+02  0.15750038444E+03  0.41800000000E+01 0. -1.
</event>
<event>
11    1  0.8041700E-009  0.1696655E+03  0.7561462E-02  0.1078323E+00
         22   -1    0    0    0    0  0.00000000000E+00  0.00000000000E+00  0.94626321890E+03  0.94626321890E+03  0.00000000000E+00 0. -1.
         22   -1    0    0    0    0 -0.00000000000E+00 -0.00000000000E+00 -0.20794058832E+03  0.20794058832E+03  0.00000000000E+00 0.  1.
        -24    2    1    2    0    0  0.42026515417E+02  0.10141317227E+03 -0.13811321650E+03  0.19420450722E+03  0.81174321958E+02 0.  0.
         25    2    1    2    0    0 -0.13009138630E+03 -0.13902275685E+03  0.34159957433E+03  0.41059677301E+03  0.12509334560E+03 0.  0.
         24    2    1    2    0    0  0.88064870882E+02  0.37609584577E+02  0.53483627275E+03  0.54940252699E+03  0.81384247116E+02 0.  0.
        -11    1    5    5    0    0  0.96643960489E+02  0.46459600548E+02  0.40406007688E+03  0.41804676211E+03  0.00000000000E+00 0.  1.
         12    1    5    5    0    0 -0.85790896065E+01 -0.88500159707E+01  0.13077619587E+03  0.13135576488E+03  0.00000000000E+00 0. -1.
         13    1    3    3    0    0 -0.95733885340E+01 -0.98996146116E+01 -0.15817620982E+02  0.20972583794E+02  0.00000000000E+00 0. -1.
        -14    1    3    3    0    0  0.51599903951E+02  0.11131278688E+03 -0.12229559552E+03  0.17323192343E+03  0.00000000000E+00 0.  1.
          5    1    4    4  501    0 -0.70603536402E+02 -0.15407762090E+02  0.20309177266E+03  0.21560612006E+03  0.41800000000E+01 0.  1.
         -5    1    4    4    0  501 -0.59487849898E+02 -0.12361499476E+03  0.13850780166E+03  0.19499065295E+03  0.41800000000E+01 0.  1.
</event>
<event>
11    1  0.8041700E-009  0.1410510E+03  0.7561462E-02  0.1106390E+00
         22   -1    0    0    0    0  0.00000000000E+00  0.00000000000E+00  0.67028410967E+03  0.67028410967E+03  0.00000000000E+00 0. -1.
         22   -1    0    0    0    0 -0.00000000000E+00 -0.00000000000E+00 -0.47587317771E+03  0.47587317771E+03  0.00000000000E+00 0. -1.
         24    2    1    2    0    0  0.46653455276E+02  0.91251206712E+01 -0.29558345993E+03  0.31048007059E+03  0.82270770814E+02 0.  0.
         25    2    1    2    0    0  0.15610310176E+02  0.13635087801E+02 -0.14490217085E+03  0.19254562407E+03  0.12509029070E+03 0.  0.
        -24    2    1    2    0    0 -0.62263765451E+02 -0.22760208473E+02  0.63489656274E+03  0.64313159273E+03  0.78293017611E+02 0.  0.
        -11    1    3    3    0    0  0.14475652060E+02  0.44706901932E+02 -0.14115014902E+03  0.14876698609E+03  0.00000000000E+00 0.  1.
         12    1    3    3    0    0  0.32177803216E+02 -0.35581781260E+02 -0.15443331091E+03  0.16171308449E+03  0.00000000000E+00 0. -1.
         13    1    5    5    0    0 -0.76592909688E+02 -0.27552111300E+01  0.52100002964E+03  0.52660715518E+03  0.00000000000E+00 0. -1.
        -14    1    5    5    0    0  0.14329144237E+02 -0.20004997343E+02  0.11389653310E+03  0.11652443755E+03  0.00000000000E+00 0.  1.
          5    1    4    4  501    0 -0.35891405378E+02  0.18703903962E+02 -0.13326553318E+03  0.13933845032E+03  0.41800000000E+01 0.  1.
         -5    1    4    4    0  501  0.51501715554E+02 -0.50688161608E+01 -0.11636637674E+02  0.53207173752E+02  0.41800000000E+01 0.  1.
</event>
<event>
11    1  0.8041700E-009  0.1341273E+03  0.7561462E-02  0.1114299E+00
         22   -1    0    0    0    0  0.00000000000E+00  0.00000000000E+00  0.60397982538E+03  0.60397982538E+03  0.00000000000E+00 0. -1.
         22   -1    0    0    0    0 -0.00000000000E+00 -0.00000000000E+00 -0.30869950142E+03  0.30869950142E+03  0.00000000000E+00 0.  1.
         24    2    1    2    0    0  0.40827047555E+02 -0.22625088197E+02 -0.25319904500E+03  0.26921555026E+03  0.78667106745E+02 0.  0.
         25    2    1    2    0    0 -0.59900978756E+02  0.44534170158E+02  0.75114670452E+02  0.16389512522E+03  0.12509188137E+03 0.  0.
        -24    2    1    2    0    0  0.19073931200E+02 -0.21909081961E+02  0.47336469851E+03  0.47956865132E+03  0.71190805698E+02 0.  0.
        -13    1    3    3    0    0  0.59588611997E+02 -0.51166452162E+01 -0.21524883990E+03  0.22340332544E+03  0.00000000000E+00 0.  1.
         14    1    3    3    0    0 -0.18761564442E+02 -0.17508442981E+02 -0.37950205103E+02  0.45812224824E+02  0.00000000000E+00 0. -1.
         13    1    5    5    0    0  0.43415629934E+02 -0.26064373649E+01  0.33158058343E+03  0.33442098281E+03  0.00000000000E+00 0. -1.
        -14    1    5    5    0    0 -0.24341698734E+02 -0.19302644596E+02  0.14178411508E+03  0.14514766851E+03  0.00000000000E+00 0.  1.
          5    1    4    4  501    0 -0.98529380180E+02  0.40279078736E+02  0.56952402194E+02  0.12079524601E+03  0.41800000000E+01 0. -1.
         -5    1    4    4    0  501  0.38628401424E+02  0.42550914225E+01  0.18162268258E+02  0.43099879209E+02  0.41800000000E+01 0. -1.
</event>
<event>
11    1  0.8041700E-009  0.1504794E+03  0.7561462E-02  0.1096390E+00
         22   -1    0    0    0    0  0.00000000000E+00  0.00000000000E+00  0.38525502450E+03  0.38525502450E+03  0.00000000000E+00 0. -1.
         22   -1    0    0    0    0 -0.00000000000E+00 -0.00000000000E+00 -0.13321221647E+04  0.13321221647E+04  0.00000000000E+00 0.  1.
         24    2    1    2    0    0 -0.17927607096E+02 -0.83899599401E+02 -0.12747026556E+04  0.12806862254E+04  0.89049458354E+02 0.  0.
         25    2    1    2    0    0 -0.10295798833E+02  0.21286756665E+02  0.45665399978E+02  0.13524752487E+03  0.12508970680E+03 0.  0.
        -24    2    1    2    0    0  0.28223405929E+02  0.62612842735E+02  0.28217011536E+03  0.30144343893E+03  0.80816113197E+02 0.  0.
        -13    1    3    3    0    0 -0.46308925416E+02 -0.15394250278E+02 -0.44074711427E+03  0.44344054646E+03  0.00000000000E+00 0.  1.
         14    1    3    3    0    0  0.28381318320E+02 -0.68505349123E+02 -0.83395554132E+03  0.83724567899E+03  0.00000000000E+00 0. -1.
         11    1    5    5    0    0  0.18488430442E+02  0.71644093780E+02  0.27776770302E+03  0.28745363987E+03  0.00000000000E+00 0. -1.
        -12    1    5    5    0    0  0.97349754868E+01 -0.90312510442E+01  0.44024123355E+01  0.13989799052E+02  0.00000000000E+00 0.  1.
          5    1    4    4  501    0  0.91191579509E+01  0.10312559905E+02  0.86953365025E+02  0.88135509431E+02  0.41800000000E+01 0.  1.
         -5    1    4    4    0  501 -0.19414956784E+02  0.10974196761E+02 -0.41287965047E+02  0.47112015444E+02  0.41800000000E+01 0.  1.
</event>
<event>
11    1  0.8041700E-009  0.1898479E+03  0.7561462E-02  0.1061944E+00
         22   -1    0    0    0    0  0.00000000000E+00  0.00000000000E+00  0.59054183760E+03  0.59054183760E+03  0.00000000000E+00 0. -1.
         22   -1    0    0    0    0 -0.00000000000E+00 -0.00000000000E+00 -0.86242521010E+03  0.86242521010E+03  0.00000000000E+00 0.  1.
         24    2    1    2    0    0  0.41754879646E+02 -0.73943602096E+02 -0.75420526534E+03  0.76257956699E+03  0.74100522634E+02 0.  0.
         25    2    1    2    0    0 -0.16285248213E+03  0.12968499686E+03  0.74080751416E+02  0.25391820164E+03  0.12508943221E+03 0.  0.
        -24    2    1    2    0    0  0.12109760248E+03 -0.55741394759E+02  0.40824114143E+03  0.43646927907E+03  0.77928618617E+02 0.  0.
        -13    1    3    3    0    0  0.40544229742E+02 -0.13975970892E+02 -0.47889372582E+03  0.48081011113E+03  0.00000000000E+00 0.  1.
         14    1    3    3    0    0  0.12106499040E+01 -0.59967631205E+02 -0.27531153952E+03  0.28176945586E+03  0.00000000000E+00 0. -1.
         11    1    5    5    0    0  0.13225538976E+03 -0.47435369353E+02  0.37213248292E+03  0.39777404042E+03  0.00000000000E+00 0. -1.
        -12    1    5    5    0    0 -0.11157787278E+02 -0.83060254057E+01  0.36108658509E+02  0.38695238651E+02  0.00000000000E+00 0.  1.
          5    1    4    4  501    0  0.19290223244E+02  0.19781993380E+02 -0.18430937613E+01  0.28005523910E+02  0.41800000000E+01 0.  1.
         -5    1    4    4    0  501 -0.18214270537E+03  0.10990300348E+03  0.75923845177E+02  0.22591267773E+03  0.41800000000E+01 0.  1.
</event>
<event>
11    1  0.8041700E-009  0.1424265E+03  0.7561462E-02  0.1104879E+00
         22   -1    0    0    0    0  0.00000000000E+00  0.00000000000E+00  0.13008186234E+04  0.13008186234E+04  0.00000000000E+00 0.  1.
         22   -1    0    0    0    0 -0.00000000000E+00 -0.00000000000E+00 -0.45322533435E+03  0.45322533435E+03  0.00000000000E+00 0.  1.
         24    2    1    2    0    0  0.60912183352E+02  0.33242766733E+02 -0.42191243456E+03  0.43520415765E+03  0.81099819851E+02 0.  0.
         25    2    1    2    0    0 -0.43577707599E+02  0.19736362062E+02  0.17770903787E+03  0.22252383747E+03  0.12509122878E+03 0.  0.
        -24    2    1    2    0    0 -0.17334475753E+02 -0.52979128796E+02  0.10917966858E+04  0.10963159627E+04  0.82349345781E+02 0.  0.
        -13    1    3    3    0    0  0.66143344849E+02  0.39826898075E+02 -0.41937135685E+03  0.42641934621E+03  0.00000000000E+00 0.  1.
         14    1    3    3    0    0 -0.52311614970E+01 -0.65841313413E+01 -0.25410777131E+01  0.87848114420E+01  0.00000000000E+00 0. -1.
         11    1    5    5    0    0 -0.33028407145E+02  0.91720543255E+01  0.30772116403E+03  0.30962447747E+03  0.00000000000E+00 0. -1.
        -12    1    5    5    0    0  0.15693931392E+02 -0.62151183121E+02  0.78407552176E+03  0.78669148519E+03  0.00000000000E+00 0.  1.
          5    1    4    4  501    0  0.26327092579E+02  0.40683460112E+02  0.28502822314E+02  0.56375021155E+02  0.41800000000E+01 0.  1.
         -5    1    4    4    0  501 -0.69904800179E+02 -0.20947098050E+02  0.14920621555E+03  0.16614881632E+03  0.41800000000E+01 0.  1.
</event>
<event>
11    1  0.8041700E-009  0.1475316E+03  0.7561462E-02  0.1099428E+00
         22   -1    0    0    0    0  0.00000000000E+00  0.00000000000E+00  0.25634702405E+03  0.25634702405E+03  0.00000000000E+00 0.  1.
         22   -1    0    0    0    0 -0.00000000000E+00 -0.00000000000E+00 -0.39096500290E+03  0.39096500290E+03  0.00000000000E+00 0.  1.
        -24    2    1    2    0    0  0.42604978718E+01  0.45817806636E+02 -0.27397600865E+03  0.28906371035E+03  0.79859577229E+02 0.  0.
         25    2    1    2    0    0  0.58722425405E+02  0.81991507383E+01 -0.41807542363E+02  0.14460871752E+03  0.12509301046E+03 0.  0.
         24    2    1    2    0    0 -0.62982923277E+02 -0.54016957375E+02  0.18116557217E+03  0.21363959908E+03  0.77046956113E+02 0.  0.
        -11    1    5    5    0    0 -0.27964729328E+02 -0.63639996697E+02  0.15171821693E+03  0.16688466860E+03  0.00000000000E+00 0.  1.
         12    1    5    5    0    0 -0.35018193949E+02  0.96230393226E+01  0.29447355242E+02  0.46754930478E+02  0.00000000000E+00 0. -1.
         11    1    3    3    0    0  0.23270977690E+00 -0.22532073489E+02 -0.89451394354E+02  0.92245869509E+02  0.00000000000E+00 0. -1.
        -12    1    3    3    0    0  0.40277880949E+01  0.68349880126E+02 -0.18452461430E+03  0.19681784084E+03  0.00000000000E+00 0.  1.
          5    1    4    4  501    0  0.64631904324E+02  0.47107132028E+02  0.85718236849E+01  0.80543860757E+02  0.41800000000E+01 0. -1.
         -5    1    4    4    0  501 -0.59094789182E+01 -0.38907981290E+02 -0.50379366048E+02  0.64064856766E+02  0.41800000000E+01 0. -1.
</event>
<event>
11    1  0.8041700E-009  0.1264157E+03  0.7561462E-02  0.1123753E+00
         22   -1    0    0    0    0  0.00000000000E+00  0.00000000000E+00  0.42452434475E+04  0.42452434475E+04  0.00000000000E+00 0.  1.
         22   -1    0    0    0    0 -0.00000000000E+00 -0.00000000000E+00 -0.84168413255E+02  0.84168413255E+02  0.00000000000E+00 0. -1.
        -24    2    1    2    0    0 -0.33559053992E+01 -0.17847026517E+02 -0.59664999897E+02  0.10036390699E+03  0.78633473509E+02 0.  0.
         25    2    1    2    0    0  0.91919280952E+01  0.22903938565E+02  0.11099471335E+04  0.11172461233E+04  0.12508868435E+03 0.  0.
         24    2    1    2    0    0 -0.58360226959E+01 -0.50569120479E+01  0.31107929007E+04  0.31118018305E+04  0.78857655432E+02 0.  0.
        -13    1    5    5    0    0  0.35432364916E+02  0.71545244279E+01  0.13650715394E+04  0.13655500531E+04  0.00000000000E+00 0.  1.
         14    1    5    5    0    0 -0.41268387612E+02 -0.12211436476E+02  0.17457213612E+04  0.17462517774E+04  0.00000000000E+00 0. -1.
         13    1    3    3    0    0  0.11982209309E+02 -0.46598965325E+02 -0.35321681742E+02  0.59688006420E+02  0.00000000000E+00 0. -1.
        -14    1    3    3    0    0 -0.15338114708E+02  0.28751938808E+02 -0.24343318155E+02  0.40675900565E+02  0.00000000000E+00 0.  1.
          5    1    4    4  501    0  0.27806754633E+02 -0.14174690453E+02  0.98541580934E+03  0.98591882381E+03  0.41800000000E+01 0. -1.
         -5    1    4    4    0  501 -0.18614826538E+02  0.37078629018E+02  0.12453132413E+03  0.13132729948E+03  0.41800000000E+01 0. -1.
</event>
<event>
11    1  0.8041700E-009  0.1291228E+03  0.7561462E-02  0.1120352E+00
         22   -1    0    0    0    0  0.00000000000E+00  0.00000000000E+00  0.45895448350E+03  0.45895448350E+03  0.00000000000E+00 0.  1.
         22   -1    0    0    0    0 -0.00000000000E+00 -0.00000000000E+00 -0.25390247609E+03  0.25390247609E+03  0.00000000000E+00 0.  1.
        -24    2    1    2    0    0 -0.35089788403E+02 -0.21732071032E+02 -0.16092848811E+03  0.18129315929E+03  0.72564834176E+02 0.  0.
         25    2    1    2    0    0  0.10273980998E+01  0.21509220628E+02 -0.26273111809E+02  0.12961874142E+03  0.12508812735E+03 0.  0.
         24    2    1    2    0    0  0.34062390303E+02  0.22285040433E+00  0.39225360733E+03  0.40194505888E+03  0.80849500940E+02 0.  0.
        -13    1    5    5    0    0 -0.15563110694E+02  0.22163082160E+02  0.21139553020E+03  0.21312316349E+03  0.00000000000E+00 0.  1.
         14    1    5    5    0    0  0.49625500997E+02 -0.21940231756E+02  0.18085807713E+03  0.18882189540E+03  0.00000000000E+00 0. -1.
         13    1    3    3    0    0 -0.38219072045E+02  0.52519605660E+01 -0.33786792532E+02  0.51281847738E+02  0.00000000000E+00 0. -1.
        -14    1    3    3    0    0  0.31292836425E+01 -0.26984031598E+02 -0.12714169558E+03  0.13001131156E+03  0.00000000000E+00 0.  1.
          5    1    4    4  501    0  0.41920292970E+02 -0.35186893229E+02 -0.22996411041E+02  0.59512483888E+02  0.41800000000E+01 0. -1.
         -5    1    4    4    0  501 -0.40892894870E+02  0.56696113857E+02 -0.32767007684E+01  0.70106257532E+02  0.41800000000E+01 0. -1.
</event>
<event>
11    1  0.8041700E-009  0.1677460E+03  0.7561462E-02  0.1080010E+00
         22   -1    0    0    0    0  0.00000000000E+00  0.00000000000E+00  0.11449653076E+03  0.11449653076E+03  0.00000000000E+00 0.  1.
         22   -1    0    0    0    0 -0.00000000000E+00 -0.00000000000E+00 -0.51372070658E+03  0.51372070658E+03  0.00000000000E+00 0. -1.
        -24    2    1    2    0    0  0.55318515153E+02  0.91842006608E+02 -0.29075757169E+03  0.31852415846E+03  0.73638181197E+02 0.  0.
         25    2    1    2    0    0 -0.31370640349E+02 -0.12859401195E+03 -0.11724402141E+03  0.21661684337E+03  0.12512457508E+03 0.  0.
         24    2    1    2    0    0 -0.23947874804E+02  0.36752005345E+02  0.87774172839E+01  0.93076235513E+02  0.81620658896E+02 0.  0.
        -13    1    5    5    0    0  0.23031423845E+02  0.26696275132E+02  0.24031750276E+02  0.42669223236E+02  0.00000000000E+00 0.  1.
         14    1    5    5    0    0 -0.46979298649E+02  0.10055730213E+02 -0.15254332992E+02  0.50407012277E+02  0.00000000000E+00 0. -1.
         11    1    3    3    0    0  0.43189464512E+02  0.39076989523E+02 -0.69206779623E+02  0.90453962328E+02  0.00000000000E+00 0. -1.
        -12    1    3    3    0    0  0.12129050640E+02  0.52765017084E+02 -0.22155079207E+03  0.22807019613E+03  0.00000000000E+00 0.  1.
          5    1    4    4  501    0 -0.18767856212E+02 -0.87756551890E+02  0.20164732537E+01  0.89860911362E+02  0.41800000000E+01 0. -1.
         -5    1    4    4    0  501 -0.12602784137E+02 -0.40837460062E+02 -0.11926049466E+03  0.12675593201E+03  0.41800000000E+01 0. -1.
</event>
<event>
11    1  0.8041700E-009  0.1313294E+03  0.7561462E-02  0.1117646E+00
         22   -1    0    0    0    0  0.00000000000E+00  0.00000000000E+00  0.69163217297E+02  0.69163217297E+02  0.00000000000E+00 0. -1.
         22   -1    0    0    0    0 -0.00000000000E+00 -0.00000000000E+00 -0.70566601007E+03  0.70566601007E+03  0.00000000000E+00 0. -1.
         24    2    1    2    0    0  0.37009622575E+01  0.35999240996E+02 -0.25554174086E+03  0.27022037919E+03  0.80048919649E+02 0.  0.
         25    2    1    2    0    0 -0.14068091825E+02  0.57790772900E+01 -0.39287590723E+03  0.41259146620E+03  0.12509568561E+03 0.  0.
        -24    2    1    2    0    0  0.10367129568E+02 -0.41778318286E+02  0.11914855317E+02  0.92017381970E+02  0.80450789637E+02 0.  0.
        -13    1    3    3    0    0 -0.22792171225E+02  0.39000920480E+02 -0.73757233785E+02  0.86490949833E+02  0.00000000000E+00 0.  1.
         14    1    3    3    0    0  0.26493133482E+02 -0.30016794844E+01 -0.18178450707E+03  0.18372942936E+03  0.00000000000E+00 0. -1.
         11    1    5    5    0    0  0.14639091546E+02 -0.28636641781E+02  0.45489364093E+02  0.55710344635E+02  0.00000000000E+00 0. -1.
        -12    1    5    5    0    0 -0.42719619790E+01 -0.13141676505E+02 -0.33574508776E+02  0.36307037335E+02  0.00000000000E+00 0.  1.
          5    1    4    4  501    0  0.41295926183E+02 -0.19383184427E+02 -0.28522312557E+03  0.28887846080E+03  0.41800000000E+01 0. -1.
         -5    1    4    4    0  501 -0.55364018008E+02  0.25162261717E+02 -0.10765278167E+03  0.12371300540E+03  0.41800000000E+01 0. -1.
</event>
<event>
11    1  0.8041700E-009  0.1772519E+03  0.7561462E-02  0.1071888E+00
         22   -1    0    0    0    0  0.00000000000E+00  0.00000000000E+00  0.28613289123E+04  0.28613289123E+04  0.00000000000E+00 0. -1.
         22   -1    0    0    0    0 -0.00000000000E+00 -0.00000000000E+00 -0.12074810862E+03  0.12074810862E+03  0.00000000000E+00 0. -1.
        -24    2    1    2    0    0 -0.44199903888E+02 -0.45544822867E+02 -0.68644162548E+02  0.12323440795E+03  0.80291567785E+02 0.  0.
         25    2    1    2    0    0  0.67205159934E+02  0.16402614322E+03  0.49936438289E+03  0.54445753560E+03  0.12509241380E+03 0.  0.
         24    2    1    2    0    0 -0.23005256046E+02 -0.11848132035E+03  0.23098605833E+04  0.23143850774E+04  0.79720178446E+02 0.  0.
        -11    1    5    5    0    0 -0.49204568273E+02 -0.60210207972E+02  0.10300912383E+04  0.10330219348E+04  0.00000000000E+00 0.  1.
         12    1    5    5    0    0  0.26199312227E+02 -0.58271112379E+02  0.12797693450E+04  0.12813631425E+04  0.00000000000E+00 0. -1.
         11    1    3    3    0    0 -0.54837493400E+02 -0.48592939863E+02 -0.79233453933E+02  0.10791832425E+03  0.00000000000E+00 0. -1.
        -12    1    3    3    0    0  0.10637589512E+02  0.30481169962E+01  0.10589291386E+02  0.15316083700E+02  0.00000000000E+00 0.  1.
          5    1    4    4  501    0  0.93183953446E+02  0.77499362745E+02  0.34319232123E+03  0.36398879400E+03  0.41800000000E+01 0. -1.
         -5    1    4    4    0  501 -0.25978793512E+02  0.86526780473E+02  0.15617206166E+03  0.18046874160E+03  0.41800000000E+01 0. -1.
</event>
<event>
11    1  0.8041700E-009  0.1263231E+03  0.7561462E-02  0.1123871E+00
         22   -1    0    0    0    0  0.00000000000E+00  0.00000000000E+00  0.99550083024E+03  0.99550083024E+03  0.00000000000E+00 0.  1.
         22   -1    0    0    0    0 -0.00000000000E+00 -0.00000000000E+00 -0.44011149808E+02  0.44011149808E+02  0.00000000000E+00 0.  1.
        -24    2    1    2    0    0 -0.70582163731E+01  0.16026720038E+02  0.23991088395E+02  0.85604935863E+02  0.80286727099E+02 0.  0.
         25    2    1    2    0    0 -0.11565836661E+02 -0.23522277751E+02  0.39249241056E+03  0.41277735946E+03  0.12509112680E+03 0.  0.
         24    2    1    2    0    0  0.18624053034E+02  0.74955577132E+01  0.53500618148E+03  0.54112968473E+03  0.78655468583E+02 0.  0.
        -11    1    5    5    0    0  0.23783730653E+02  0.29479008879E+02  0.48236408445E+03  0.48384893074E+03  0.00000000000E+00 0.  1.
         12    1    5    5    0    0 -0.51596776193E+01 -0.21983451166E+02  0.52642097026E+02  0.57280753990E+02  0.00000000000E+00 0. -1.
         11    1    3    3    0    0  0.25669052278E+02 -0.20287794238E+02  0.47166042448E+01  0.33056636179E+02  0.00000000000E+00 0. -1.
        -12    1    3    3    0    0 -0.32727268651E+02  0.36314514276E+02  0.19274484150E+02  0.52548299684E+02  0.00000000000E+00 0.  1.
          5    1    4    4  501    0  0.11180885258E+02 -0.69245673450E+02  0.16073026662E+03  0.17541854661E+03  0.41800000000E+01 0.  1.
         -5    1    4    4    0  501 -0.22746721918E+02  0.45723395699E+02  0.23176214395E+03  0.23735881285E+03  0.41800000000E+01 0.  1.
</event>
<event>
11    1  0.8041700E-009  0.3363857E+03  0.7561462E-02  0.9858688E-01
         22   -1    0    0    0    0  0.00000000000E+00  0.00000000000E+00  0.12042650435E+03  0.12042650435E+03  0.00000000000E+00 0. -1.
         22   -1    0    0    0    0 -0.00000000000E+00 -0.00000000000E+00 -0.31728811289E+04  0.31728811289E+04  0.00000000000E+00 0. -1.
        -24    2    1    2    0    0  0.23995670175E+03 -0.20775059450E+03 -0.26802053929E+04  0.27001729507E+04  0.81813732736E+02 0.  0.
         25    2    1    2    0    0 -0.16599530266E+03  0.23697892848E+03 -0.35994001110E+03  0.47845735138E+03  0.12510464600E+03 0.  0.
         24    2    1    2    0    0 -0.73961399094E+02 -0.29228333981E+02 -0.12309220544E+02  0.11467733125E+03  0.81699383894E+02 0.  0.
        -11    1    5    5    0    0 -0.27209910291E+01  0.11993899842E+01 -0.34080321941E+02  0.34209803742E+02  0.00000000000E+00 0.  1.
         12    1    5    5    0    0 -0.71240408065E+02 -0.30427723966E+02  0.21771101397E+02  0.80467527507E+02  0.00000000000E+00 0. -1.
         13    1    3    3    0    0  0.23588036750E+03 -0.20588614625E+03 -0.26751773688E+04  0.26934369507E+04  0.00000000000E+00 0. -1.
        -14    1    3    3    0    0  0.40763342574E+01 -0.18644482451E+01 -0.50280241251E+01  0.67359999139E+01  0.00000000000E+00 0.  1.
          5    1    4    4  501    0  0.10492250851E+02  0.93185425038E+01  0.31335821254E+01  0.14973787071E+02  0.41800000000E+01 0.  1.
         -5    1    4    4    0  501 -0.17648755351E+03  0.22766038598E+03 -0.36307359323E+03  0.46348356431E+03  0.41800000000E+01 0.  1.
</event>
<event>
11    1  0.8041700E-009  0.1321053E+03  0.7561462E-02  0.1116709E+00
         22   -1    0    0    0    0  0.00000000000E+00  0.00000000000E+00  0.72925159370E+03  0.72925159370E+03  0.00000000000E+00 0.  1.
         22   -1    0    0    0    0 -0.00000000000E+00 -0.00000000000E+00 -0.12244028463E+04  0.12244028463E+04  0.00000000000E+00 0. -1.
         24    2    1    2    0    0 -0.12355742905E+02  0.15783813944E+02 -0.11660753568E+04  0.11691160878E+04  0.81846782626E+02 0.  0.
         25    2    1    2    0    0  0.44002494434E+02 -0.42363990328E+02  0.37101807954E+02  0.14406598572E+03  0.12509011510E+03 0.  0.
        -24    2    1    2    0    0 -0.31646751529E+02  0.26580176384E+02  0.63382229627E+03  0.64047236647E+03  0.82256466610E+02 0.  0.
        -13    1    3    3    0    0 -0.35445502737E+02  0.17390437486E+01 -0.23648346145E+03  0.23913141884E+03  0.00000000000E+00 0.  1.
         14    1    3    3    0    0  0.23089759832E+02  0.14044770195E+02 -0.92959189534E+03  0.92998466894E+03  0.00000000000E+00 0. -1.
         11    1    5    5    0    0 -0.21202671792E+02  0.25340220554E+02  0.80056675575E+02  0.86606878324E+02  0.00000000000E+00 0. -1.
        -12    1    5    5    0    0 -0.10444079737E+02  0.12399558304E+01  0.55376562069E+03  0.55386548814E+03  0.00000000000E+00 0.  1.
          5    1    4    4  501    0  0.19049717561E+02 -0.78544403090E+02 -0.75405229622E+01  0.81280052181E+02  0.41800000000E+01 0. -1.
         -5    1    4    4    0  501  0.24952776873E+02  0.36180412763E+02  0.44642330916E+02  0.62785933544E+02  0.41800000000E+01 0. -1.
</event>
<event>
11    1  0.8041700E-009  0.3127748E+03  0.7561462E-02  0.9949250E-01
         22   -1    0    0    0    0  0.00000000000E+00  0.00000000000E+00  0.17515551240E+04  0.17515551240E+04  0.00000000000E+00 0.  1.
         22   -1    0    0    0    0 -0.00000000000E+00 -0.00000000000E+00 -0.29331083762E+03  0.29331083762E+03  0.00000000000E+00 0. -1.
         24    2    1    2    0    0  0.21473343043E+03 -0.19738937382E+03 -0.16953030704E+03  0.34787493176E+03  0.84873035163E+02 0.  0.
         25    2    1    2    0    0 -0.18541212393E+03  0.17137198519E+03  0.57705590459E+03  0.64217382214E+03  0.12509071834E+03 0.  0.
        -24    2    1    2    0    0 -0.29321306495E+02  0.26017388630E+02  0.10507186889E+04  0.10548172077E+04  0.84219564988E+02 0.  0.
        -11    1    3    3    0    0  0.93342479882E+02 -0.11522545583E+03 -0.43438033738E+02  0.15452050672E+03  0.00000000000E+00 0.  1.
         12    1    3    3    0    0  0.12139095054E+03 -0.82163917990E+02 -0.12609227330E+03  0.19335442503E+03  0.00000000000E+00 0. -1.
         11    1    5    5    0    0 -0.27239719681E+02  0.98807272819E+01  0.10406929511E+03  0.10802800232E+03  0.00000000000E+00 0. -1.
        -12    1    5    5    0    0 -0.20815868138E+01  0.16136661348E+02  0.94664939375E+03  0.94678920543E+03  0.00000000000E+00 0.  1.
          5    1    4    4  501    0 -0.34311283023E+02  0.11547568126E+03  0.25394973891E+03  0.28110467694E+03  0.41800000000E+01 0. -1.
         -5    1    4    4    0  501 -0.15110084091E+03  0.55896303931E+02  0.32310616568E+03  0.36106914520E+03  0.41800000000E+01 0. -1.
</event>
<event>
11    1  0.8041700E-009  0.1409222E+03  0.7561462E-02  0.1106533E+00
         22   -1    0    0    0    0  0.00000000000E+00  0.00000000000E+00  0.45173633967E+03  0.45173633967E+03  0.00000000000E+00 0.  1.
         22   -1    0    0    0    0 -0.00000000000E+00 -0.00000000000E+00 -0.27184560568E+03  0.27184560568E+03  0.00000000000E+00 0. -1.
        -24    2    1    2    0    0 -0.36299028583E+02 -0.16304768703E+02 -0.13381552700E+03  0.16124966349E+03  0.80693207595E+02 0.  0.
         25    2    1    2    0    0  0.96918241348E+02 -0.18175389697E+01 -0.64332705146E+02  0.17082160906E+03  0.12507947960E+03 0.  0.
         24    2    1    2    0    0 -0.60619212765E+02  0.18122307672E+02  0.37803896613E+03  0.39151067279E+03  0.79774933449E+02 0.  0.
        -11    1    5    5    0    0 -0.74238961913E+02  0.26759850888E+02  0.35310248447E+03  0.36181331875E+03  0.00000000000E+00 0.  1.
         12    1    5    5    0    0  0.13619749148E+02 -0.86375432155E+01  0.24936481661E+02  0.29697354045E+02  0.00000000000E+00 0. -1.
         11    1    3    3    0    0 -0.57060040205E+02 -0.26275433530E+02 -0.73506212432E+02  0.96692346447E+02  0.00000000000E+00 0. -1.
        -12    1    3    3    0    0  0.20761011621E+02  0.99706648269E+01 -0.60309314567E+02  0.64557317046E+02  0.00000000000E+00 0.  1.
          5    1    4    4  501    0  0.12023294425E+03  0.21158542526E+02 -0.63818421737E+02  0.13781838832E+03  0.41800000000E+01 0.  1.
         -5    1    4    4    0  501 -0.23314702902E+02 -0.22976081496E+02 -0.51428340912E+00  0.33003220748E+02  0.41800000000E+01 0.  1.
</event>
<event>
11    1  0.8041700E-009  0.1536828E+03  0.7561462E-02  0.1093174E+00
         22   -1    0    0    0    0  0.00000000000E+00  0.00000000000E+00  0.60057107330E+03  0.60057107330E+03  0.00000000000E+00 0.  1.
         22   -1    0    0    0    0 -0.00000000000E+00 -0.00000000000E+00 -0.14576368217E+04  0.14576368217E+04  0.00000000000E+00 0. -1.
        -24    2    1    2    0    0  0.17221617640E+02 -0.31206501863E+02 -0.79620026664E+03  0.80105566801E+03  0.80528807193E+02 0.  0.
         25    2    1    2    0    0 -0.59264829454E+02 -0.47747614474E+02 -0.64468849100E+03  0.66110858801E+03  0.12509660275E+03 0.  0.
         24    2    1    2    0    0  0.42043211814E+02  0.78954116337E+02  0.58382300927E+03  0.59604363894E+03  0.80108234434E+02 0.  0.
        -13    1    5    5    0    0  0.44838223637E+02  0.68950923958E+02  0.57860273292E+03  0.58441921491E+03  0.00000000000E+00 0.  1.
         14    1    5    5    0    0 -0.27950118230E+01  0.10003192379E+02  0.52202763458E+01  0.11624424028E+02  0.00000000000E+00 0. -1.
         13    1    3    3    0    0  0.37034932515E+02 -0.48941585441E+02 -0.57253163092E+03  0.57581189065E+03  0.00000000000E+00 0. -1.
        -14    1    3    3    0    0 -0.19813314875E+02  0.17735083578E+02 -0.22366863572E+03  0.22524377736E+03  0.00000000000E+00 0.  1.
          5    1    4    4  501    0 -0.64291447693E+02 -0.59886024514E+02 -0.64076490237E+03  0.64677419452E+03  0.41800000000E+01 0.  1.
         -5    1    4    4    0  501  0.50266182391E+01  0.12138410040E+02 -0.39235886266E+01  0.14334393497E+02  0.41800000000E+01 0.  1.
</event>
<event>
11    1  0.8041700E-009  0.1304486E+03  0.7561462E-02  0.1118719E+00
         22   -1    0    0    0    0  0.00000000000E+00  0.00000000000E+00  0.56942370415E+03  0.56942370415E+03  0.00000000000E+00 0.  1.
         22   -1    0    0    0    0 -0.00000000000E+00 -0.00000000000E+00 -0.38288777387E+03  0.38288777387E+03  0.00000000000E+00 0. -1.
         24    2    1    2    0    0 -0.15100082033E+02 -0.35452873074E+02 -0.34200336814E+03  0.35295598357E+03  0.78273263829E+02 0.  0.
         25    2    1    2    0    0  0.43681458000E+02  0.98850672511E+01  0.11363086755E+03  0.17483012497E+03  0.12509122355E+03 0.  0.
        -24    2    1    2    0    0 -0.28581375966E+02  0.25567805823E+02  0.41490843087E+03  0.42452536948E+03  0.81253772697E+02 0.  0.
        -11    1    3    3    0    0 -0.29367557785E+02  0.82007080915E+01 -0.60695367391E+02  0.67923726975E+02  0.00000000000E+00 0.  1.
         12    1    3    3    0    0  0.14267475751E+02 -0.43653581165E+02 -0.28130800075E+03  0.28503225659E+03  0.00000000000E+00 0. -1.
         13    1    5    5    0    0 -0.10858074897E+02 -0.23782224884E+02  0.55943647512E+02  0.61750981433E+02  0.00000000000E+00 0. -1.
        -14    1    5    5    0    0 -0.17723301070E+02  0.49350030706E+02  0.35896478336E+03  0.36277438805E+03  0.00000000000E+00 0.  1.
          5    1    4    4  501    0 -0.29559963924E+02  0.37896062743E+02  0.18971500791E+02  0.51839109569E+02  0.41800000000E+01 0.  1.
         -5    1    4    4    0  501  0.73241421924E+02 -0.28010995492E+02  0.94659366758E+02  0.12299101540E+03  0.41800000000E+01 0.  1.
</event>
<event>
11    1  0.8041700E-009  0.1445211E+03  0.7561462E-02  0.1102612E+00
         22   -1    0    0    0    0  0.00000000000E+00  0.00000000000E+00  0.27146285148E+03  0.27146285148E+03  0.00000000000E+00 0. -1.
         22   -1    0    0    0    0 -0.00000000000E+00 -0.00000000000E+00 -0.10511599685E+04  0.10511599685E+04  0.00000000000E+00 0.  1.
        -24    2    1    2    0    0  0.75760292805E+00  0.73016709325E+02 -0.97445882885E+03  0.98052569701E+03  0.80799873570E+02 0.  0.
         25    2    1    2    0    0  0.22256259846E+02 -0.56219458049E+02  0.10399640885E+02  0.13933453648E+03  0.12509992790E+03 0.  0.
         24    2    1    2    0    0 -0.23013862774E+02 -0.16797251276E+02  0.18436207090E+03  0.20276258653E+03  0.79444998462E+02 0.  0.
        -11    1    5    5    0    0 -0.26720277706E+02  0.27860999180E+02  0.70080514573E+02  0.80009293452E+02  0.00000000000E+00 0.  1.
         12    1    5    5    0    0  0.37064149320E+01 -0.44658250456E+02  0.11428155633E+03  0.12275329308E+03  0.00000000000E+00 0. -1.
         11    1    3    3    0    0 -0.37413842546E+02  0.22427239646E+02 -0.31048196052E+03  0.31353121775E+03  0.00000000000E+00 0. -1.
        -12    1    3    3    0    0  0.38171445474E+02  0.50589469678E+02 -0.66397686833E+03  0.66699447926E+03  0.00000000000E+00 0.  1.
          5    1    4    4  501    0  0.32224801032E+02 -0.46775758360E+01  0.59099181814E+02  0.67605496880E+02  0.41800000000E+01 0.  1.
         -5    1    4    4    0  501 -0.99685411862E+01 -0.51541882213E+02 -0.48699540929E+02  0.71729039601E+02  0.41800000000E+01 0.  1.
</event>
<event>
11    1  0.8041700E-009  0.1541891E+03  0.7561462E-02  0.1092674E+00
         22   -1    0    0    0    0  0.00000000000E+00  0.00000000000E+00  0.23932278720E+03  0.23932278720E+03  0.00000000000E+00 0. -1.
         22   -1    0    0    0    0 -0.00000000000E+00 -0.00000000000E+00 -0.19185054480E+03  0.19185054480E+03  0.00000000000E+00 0.  1.
         24    2    1    2    0    0 -0.77912356487E+02 -0.60753837491E+02 -0.21769855665E+02  0.12810704003E+03  0.78588313549E+02 0.  0.
         25    2    1    2    0    0 -0.50859915406E+02  0.31894508495E+02  0.22710253181E+02  0.14059562480E+03  0.12508950174E+03 0.  0.
        -24    2    1    2    0    0  0.12877227189E+03  0.28859328996E+02  0.46531844878E+02  0.16247066717E+03  0.82561166563E+02 0.  0.
        -13    1    3    3    0    0 -0.93827590994E+02 -0.46731534287E+02 -0.20857993896E+02  0.10687613877E+03  0.00000000000E+00 0.  1.
         14    1    3    3    0    0  0.15915234507E+02 -0.14022303204E+02 -0.91186176900E+00  0.21230901263E+02  0.00000000000E+00 0. -1.
         13    1    5    5    0    0  0.11326266018E+03  0.72376402534E+01  0.64330331651E+02  0.13045767589E+03  0.00000000000E+00 0. -1.
        -14    1    5    5    0    0  0.15509611715E+02  0.21621688742E+02 -0.17798486772E+02  0.32012991285E+02  0.00000000000E+00 0.  1.
          5    1    4    4  501    0 -0.41502784148E+01 -0.24934469545E+02 -0.37517871115E+02  0.45431438843E+02  0.41800000000E+01 0. -1.
         -5    1    4    4    0  501 -0.46709636992E+02  0.56828978040E+02  0.60228124295E+02  0.95164185958E+02  0.41800000000E+01 0. -1.
</event>
<event>
11    1  0.8041700E-009  0.1967240E+03  0.7561462E-02  0.1056865E+00
         22   -1    0    0    0    0  0.00000000000E+00  0.00000000000E+00  0.28802546863E+03  0.28802546863E+03  0.00000000000E+00 0. -1.
         22   -1    0    0    0    0 -0.00000000000E+00 -0.00000000000E+00 -0.91497984431E+03  0.91497984431E+03  0.00000000000E+00 0.  1.
        -24    2    1    2    0    0  0.40084278303E+02 -0.14229850068E+02 -0.79163977386E+03  0.79674005448E+03  0.79321780494E+02 0.  0.
         25    2    1    2    0    0 -0.17163640663E+03 -0.17129257899E+02  0.10643682624E+03  0.23817835252E+03  0.12509061545E+03 0.  0.
         24    2    1    2    0    0  0.13155212833E+03  0.31359107967E+02  0.58248571947E+02  0.16808690593E+03  0.81061431591E+02 0.  0.
        -11    1    5    5    0    0  0.12918093885E+03  0.10075393742E+02  0.30640838528E+02  0.13314687194E+03  0.00000000000E+00 0.  1.
         12    1    5    5    0    0  0.23711894757E+01  0.21283714225E+02  0.27607733419E+02  0.34940033990E+02  0.00000000000E+00 0. -1.
         11    1    3    3    0    0  0.18889747794E+02 -0.46995328078E+02 -0.41275641228E+03  0.41585242492E+03  0.00000000000E+00 0. -1.
        -12    1    3    3    0    0  0.21194530509E+02  0.32765478010E+02 -0.37888336158E+03  0.38088762956E+03  0.00000000000E+00 0.  1.
          5    1    4    4  501    0 -0.10811146312E+03 -0.46269133493E+02  0.11865142945E+03  0.16710641904E+03  0.41800000000E+01 0.  1.
         -5    1    4    4    0  501 -0.63524943511E+02  0.29139875594E+02 -0.12214603215E+02  0.71071933486E+02  0.41800000000E+01 0.  1.
</event>
<event>
11    1  0.8041700E-009  0.1297370E+03  0.7561462E-02  0.1119593E+00
         22   -1    0    0    0    0  0.00000000000E+00  0.00000000000E+00  0.66207658083E+02  0.66207658083E+02  0.00000000000E+00 0.  1.
         22   -1    0    0    0    0 -0.00000000000E+00 -0.00000000000E+00 -0.16474793591E+04  0.16474793591E+04  0.00000000000E+00 0. -1.
        -24    2    1    2    0    0  0.95014765645E+01  0.59126867071E+01 -0.14640120511E+04  0.14662561428E+04  0.80315331460E+02 0.  0.
         25    2    1    2    0    0  0.28532505392E+02 -0.88106308052E+01 -0.64779609234E+02  0.14400095337E+03  0.12509254862E+03 0.  0.
         24    2    1    2    0    0 -0.38033981957E+02  0.28979440981E+01 -0.52480040704E+02  0.10342992108E+03  0.80551921387E+02 0.  0.
        -13    1    5    5    0    0 -0.46676836600E+02 -0.49646376063E+01  0.27084030752E+01  0.47018189552E+02  0.00000000000E+00 0.  1.
         14    1    5    5    0    0  0.86428546429E+01  0.78625817044E+01 -0.55188443779E+02  0.56411731530E+02  0.00000000000E+00 0. -1.
         11    1    3    3    0    0  0.11843794210E+02  0.48664199320E+01 -0.14636022337E+04  0.14636582443E+04  0.00000000000E+00 0. -1.
        -12    1    3    3    0    0 -0.23423176454E+01  0.10462667752E+01 -0.40981736785E+00  0.25978984568E+01  0.00000000000E+00 0.  1.
          5    1    4    4  501    0 -0.45923691328E+02 -0.88463671206E+00 -0.49139704247E+02  0.67393997809E+02  0.41800000000E+01 0. -1.
         -5    1    4    4    0  501  0.74456196720E+02 -0.79259940932E+01 -0.15639904987E+02  0.76606955561E+02  0.41800000000E+01 0. -1.
</event>
<event>
11    1  0.8041700E-009  0.2052938E+03  0.7561462E-02  0.1050842E+00
         22   -1    0    0    0    0  0.00000000000E+00  0.00000000000E+00  0.70996317303E+03  0.70996317303E+03  0.00000000000E+00 0. -1.
         22   -1    0    0    0    0 -0.00000000000E+00 -0.00000000000E+00 -0.89914077929E+02  0.89914077929E+02  0.00000000000E+00 0.  1.
        -24    2    1    2    0    0 -0.11820412836E+03 -0.11751242293E+03  0.17515263637E+03  0.25394690526E+03  0.77647917914E+02 0.  0.
         25    2    1    2    0    0  0.70033547263E+02  0.14763055867E+03  0.22387129385E+03  0.30408113920E+03  0.12508998127E+03 0.  0.
         24    2    1    2    0    0  0.48170581097E+02 -0.30118135733E+02  0.22102516488E+03  0.24184920650E+03  0.80071269455E+02 0.  0.
        -11    1    5    5    0    0  0.52027219491E+02 -0.51338846117E+02  0.13912740627E+03  0.15715897640E+03  0.00000000000E+00 0.  1.
         12    1    5    5    0    0 -0.38566383934E+01  0.21220710384E+02  0.81897758610E+02  0.84690230099E+02  0.00000000000E+00 0. -1.
         11    1    3    3    0    0  0.33261640272E+01 -0.30042030643E+02  0.12060552395E+02  0.32542954635E+02  0.00000000000E+00 0. -1.
        -12    1    3    3    0    0 -0.12153029239E+03 -0.87470392291E+02  0.16309208398E+03  0.22140395062E+03  0.00000000000E+00 0.  1.
          5    1    4    4  501    0  0.74098104678E+02  0.33301635470E+02  0.14090735825E+03  0.16270182560E+03  0.41800000000E+01 0.  1.
         -5    1    4    4    0  501 -0.40645574152E+01  0.11432892320E+03  0.82963935598E+02  0.14137931361E+03  0.41800000000E+01 0.  1.
</event>
<event>
11    1  0.8041700E-009  0.1319733E+03  0.7561462E-02  0.1116868E+00
         22   -1    0    0    0    0  0.00000000000E+00  0.00000000000E+00  0.39329682341E+03  0.39329682341E+03  0.00000000000E+00 0.  1.
         22   -1    0    0    0    0 -0.00000000000E+00 -0.00000000000E+00 -0.63857596396E+03  0.63857596396E+03  0.00000000000E+00 0.  1.
        -24    2    1    2    0    0  0.55776911194E+01  0.50749405584E+01 -0.60384146252E+03  0.60964451166E+03  0.83576629955E+02 0.  0.
         25    2    1    2    0    0  0.32777752051E+02  0.19040684623E+02  0.22123195943E+03  0.25696103273E+03  0.12509381987E+03 0.  0.
         24    2    1    2    0    0 -0.38355443170E+02 -0.24115625181E+02  0.13733036254E+03  0.16526724299E+03  0.80005810597E+02 0.  0.
        -11    1    5    5    0    0 -0.22555082456E+02 -0.43813081228E+02  0.12991891707E+03  0.13895050502E+03  0.00000000000E+00 0.  1.
         12    1    5    5    0    0 -0.15800360714E+02  0.19697456047E+02  0.74114454737E+01  0.26316737971E+02  0.00000000000E+00 0. -1.
         13    1    3    3    0    0  0.33867549634E+02 -0.25399444228E+02 -0.30621539053E+03  0.30912781835E+03  0.00000000000E+00 0. -1.
        -14    1    3    3    0    0 -0.28289858514E+02  0.30474384787E+02 -0.29762607200E+03  0.30051669331E+03  0.00000000000E+00 0.  1.
          5    1    4    4  501    0 -0.16727224602E+02  0.86011957031E+01 -0.89516005571E+01  0.21245803420E+02  0.41800000000E+01 0. -1.
         -5    1    4    4    0  501  0.49504976653E+02  0.10439488920E+02  0.23018355998E+03  0.23571522931E+03  0.41800000000E+01 0. -1.
</event>
<event>
11    1  0.8041700E-009  0.1798913E+03  0.7561462E-02  0.1069731E+00
         22   -1    0    0    0    0  0.00000000000E+00  0.00000000000E+00  0.46733922937E+03  0.46733922937E+03  0.00000000000E+00 0. -1.
         22   -1    0    0    0    0 -0.00000000000E+00 -0.00000000000E+00 -0.47291593012E+03  0.47291593012E+03  0.00000000000E+00 0. -1.
         24    2    1    2    0    0 -0.80482728797E+01 -0.71995916282E+02 -0.32565124594E+03  0.34453456842E+03  0.86064790666E+02 0.  0.
         25    2    1    2    0    0 -0.34959646589E+02 -0.58403321276E+02 -0.80710464066E+02  0.16368885941E+03  0.12508692522E+03 0.  0.
        -24    2    1    2    0    0  0.43007919468E+02  0.13039923756E+03  0.40078500926E+03  0.43203173167E+03  0.84670840483E+02 0.  0.
        -11    1    3    3    0    0 -0.97572512568E+01 -0.11854560504E+02 -0.21706819580E+01  0.15506334738E+02  0.00000000000E+00 0.  1.
         12    1    3    3    0    0  0.17089783771E+01 -0.60141355777E+02 -0.32348056398E+03  0.32902823368E+03  0.00000000000E+00 0. -1.
         11    1    5    5    0    0  0.54075512049E+02  0.77123523454E+02  0.32736390221E+03  0.34064545108E+03  0.00000000000E+00 0. -1.
        -12    1    5    5    0    0 -0.11067592580E+02  0.53275714103E+02  0.73421107049E+02  0.91386280584E+02  0.00000000000E+00 0.  1.
          5    1    4    4  501    0  0.29213341860E+02 -0.42186010865E+02 -0.82609943429E+02  0.97339375428E+02  0.41800000000E+01 0.  1.
         -5    1    4    4    0  501 -0.64172988448E+02 -0.16217310410E+02  0.18994793636E+01  0.66349483986E+02  0.41800000000E+01 0.  1.
</event>
<event>
11    1  0.8041700E-009  0.1274487E+03  0.7561462E-02  0.1122444E+00
         22   -1    0    0    0    0  0.00000000000E+00  0.00000000000E+00  0.14983319988E+03  0.14983319988E+03  0.00000000000E+00 0.  1.
         22   -1    0    0    0    0 -0.00000000000E+00 -0.00000000000E+00 -0.72964132662E+03  0.72964132662E+03  0.00000000000E+00 0.  1.
         24    2    1    2    0    0 -0.36535286211E+01 -0.24362734403E+02 -0.63197608893E+03  0.63760895697E+03  0.80898170074E+02 0.  0.
         25    2    1    2    0    0 -0.22236590279E+01  0.20612340998E+02 -0.26843223095E+02  0.12960810250E+03  0.12509151988E+03 0.  0.
        -24    2    1    2    0    0  0.58771876490E+01  0.37503934054E+01  0.79011185284E+02  0.11225746704E+03  0.79437804101E+02 0.  0.
        -13    1    3    3    0    0  0.14818308119E+02 -0.70894165756E+01 -0.57543827742E+03  0.57567269625E+03  0.00000000000E+00 0.  1.
         14    1    3    3    0    0 -0.18471836740E+02 -0.17273317828E+02 -0.56537811514E+02  0.61936260722E+02  0.00000000000E+00 0. -1.
         11    1    5    5    0    0  0.19002153971E+02  0.38251480815E+02  0.39322303781E+02  0.58056017903E+02  0.00000000000E+00 0. -1.
        -12    1    5    5    0    0 -0.13124966322E+02 -0.34501087409E+02  0.39688881503E+02  0.54201449135E+02  0.00000000000E+00 0.  1.
          5    1    4    4  501    0 -0.15045305313E+02  0.58833625688E+02  0.23260444160E+02  0.65163466652E+02  0.41800000000E+01 0. -1.
         -5    1    4    4    0  501  0.12821646285E+02 -0.38221284690E+02 -0.50103667254E+02  0.64444635845E+02  0.41800000000E+01 0. -1.
</event>
<event>
11    1  0.8041700E-009  0.1658665E+03  0.7561462E-02  0.1081686E+00
         22   -1    0    0    0    0  0.00000000000E+00  0.00000000000E+00  0.34678197145E+03  0.34678197145E+03  0.00000000000E+00 0. -1.
         22   -1    0    0    0    0 -0.00000000000E+00 -0.00000000000E+00 -0.24098678717E+03  0.24098678717E+03  0.00000000000E+00 0. -1.
        -24    2    1    2    0    0  0.87684852823E+02  0.61708499393E+02 -0.12519356530E+03  0.18318135438E+03  0.79908744735E+02 0.  0.
         25    2    1    2    0    0 -0.88877379785E+02 -0.71993752455E+02  0.10710159437E+02  0.16984215426E+03  0.12509740533E+03 0.  0.
         24    2    1    2    0    0  0.11925269625E+01  0.10285253062E+02  0.22027859015E+03  0.23474524999E+03  0.80470283734E+02 0.  0.
        -13    1    5    5    0    0 -0.13079058581E+02  0.43238869202E+02  0.12674666630E+03  0.13455622989E+03  0.00000000000E+00 0.  1.
         14    1    5    5    0    0  0.14271585543E+02 -0.32953616139E+02  0.93531923847E+02  0.10018902010E+03  0.00000000000E+00 0. -1.
         13    1    3    3    0    0 -0.30273152215E+01  0.11517877443E+02 -0.58977095172E+02  0.60167465404E+02  0.00000000000E+00 0. -1.
        -14    1    3    3    0    0  0.90712168044E+02  0.50190621949E+02 -0.66216470133E+02  0.12301388897E+03  0.00000000000E+00 0.  1.
          5    1    4    4  501    0 -0.87757782856E+02 -0.58374196604E+02  0.58044456479E+02  0.12039770184E+03  0.41800000000E+01 0. -1.
         -5    1    4    4    0  501 -0.11195969290E+01 -0.13619555851E+02 -0.47334297042E+02  0.49444452422E+02  0.41800000000E+01 0. -1.
</event>
<event>
11    1  0.8041700E-009  0.1806437E+03  0.7561462E-02  0.1069123E+00
         22   -1    0    0    0    0  0.00000000000E+00  0.00000000000E+00  0.30873842924E+03  0.30873842924E+03  0.00000000000E+00 0. -1.
         22   -1    0    0    0    0 -0.00000000000E+00 -0.00000000000E+00 -0.13807237554E+04  0.13807237554E+04  0.00000000000E+00 0. -1.
        -24    2    1    2    0    0 -0.10053413570E+03  0.68407634929E+02 -0.11675724168E+04  0.11766165920E+04  0.80090818418E+02 0.  0.
         25    2    1    2    0    0 -0.16468541647E+02 -0.13707763001E+03 -0.13780420542E+03  0.23173486648E+03  0.12509820061E+03 0.  0.
         24    2    1    2    0    0  0.11700267734E+03  0.68669995079E+02  0.23339129604E+03  0.28111072616E+03  0.78399927067E+02 0.  0.
        -11    1    5    5    0    0  0.92756693433E+02  0.21445264174E+02  0.10264677770E+03  0.14000023037E+03  0.00000000000E+00 0.  1.
         12    1    5    5    0    0  0.24245983911E+02  0.47224730905E+02  0.13074451834E+03  0.14111049579E+03  0.00000000000E+00 0. -1.
         11    1    3    3    0    0 -0.11052172752E+03  0.48215908892E+02 -0.88995172442E+03  0.89808345822E+03  0.00000000000E+00 0. -1.
        -12    1    3    3    0    0  0.99875918196E+01  0.20191726036E+02 -0.27762069238E+03  0.27853313381E+03  0.00000000000E+00 0.  1.
          5    1    4    4  501    0 -0.42985485216E+02 -0.13610967797E+03 -0.14542553206E+03  0.20381279193E+03  0.41800000000E+01 0.  1.
         -5    1    4    4    0  501  0.26516943569E+02 -0.96795203336E+00  0.76213266423E+01  0.27922074550E+02  0.41800000000E+01 0.  1.
</event>
<event>
11    1  0.8041700E-009  0.2228460E+03  0.7561462E-02  0.1039449E+00
         22   -1    0    0    0    0  0.00000000000E+00  0.00000000000E+00  0.31357706693E+03  0.31357706693E+03  0.00000000000E+00 0. -1.
         22   -1    0    0    0    0 -0.00000000000E+00 -0.00000000000E+00 -0.86379040875E+03  0.86379040875E+03  0.00000000000E+00 0. -1.
        -24    2    1    2    0    0  0.19493828807E+03 -0.44755561342E+02 -0.64071015642E+03  0.67611873802E+03  0.81382104508E+02 0.  0.
         25    2    1    2    0    0 -0.14435995901E+03  0.88552802841E+01 -0.14773859463E+03  0.24164479183E+03  0.12508916548E+03 0.  0.
         24    2    1    2    0    0 -0.50578329062E+02  0.35900281058E+02  0.23823540923E+03  0.25960394584E+03  0.82408136314E+02 0.  0.
        -13    1    5    5    0    0 -0.61398245599E+02  0.15324324374E+02  0.92803652812E+02  0.11232585390E+03  0.00000000000E+00 0.  1.
         14    1    5    5    0    0  0.10819916537E+02  0.20575956684E+02  0.14543175642E+03  0.14727809193E+03  0.00000000000E+00 0. -1.
         13    1    3    3    0    0  0.15977904094E+03 -0.67991339603E+02 -0.50546739567E+03  0.53446183425E+03  0.00000000000E+00 0. -1.
        -14    1    3    3    0    0  0.35159247134E+02  0.23235778261E+02 -0.13524276075E+03  0.14165690377E+03  0.00000000000E+00 0.  1.
          5    1    4    4  501    0 -0.16674753163E+03  0.15425151082E+02 -0.12877292529E+03  0.21128798660E+03  0.41800000000E+01 0. -1.
         -5    1    4    4    0  501  0.22387572626E+02 -0.65698707974E+01 -0.18965669334E+02  0.30356805228E+02  0.41800000000E+01 0. -1.
</event>
<event>
11    1  0.8041700E-009  0.1323888E+03  0.7561462E-02  0.1116368E+00
         22   -1    0    0    0    0  0.00000000000E+00  0.00000000000E+00  0.43336434068E+03  0.43336434068E+03  0.00000000000E+00 0. -1.
         22   -1    0    0    0    0 -0.00000000000E+00 -0.00000000000E+00 -0.62002995200E+03  0.62002995200E+03  0.00000000000E+00 0.  1.
         24    2    1    2    0    0 -0.10626676911E+01 -0.44190997433E+02 -0.50051389660E+03  0.50911224121E+03  0.82019143782E+02 0.  0.
         25    2    1    2    0    0 -0.13367625821E+02  0.35853441848E+02 -0.72285420862E+02  0.14945339036E+03  0.12508785356E+03 0.  0.
        -24    2    1    2    0    0  0.14430293512E+02  0.83375555846E+01  0.38613370614E+03  0.39482866111E+03  0.80701204523E+02 0.  0.
        -13    1    3    3    0    0  0.32823579697E+02  0.48190153162E+01 -0.20259844649E+03  0.20529671409E+03  0.00000000000E+00 0.  1.
         14    1    3    3    0    0 -0.33886247388E+02 -0.49010012749E+02 -0.29791545010E+03  0.30381552712E+03  0.00000000000E+00 0. -1.
         11    1    5    5    0    0  0.33712933432E+02 -0.24163187265E+02  0.25526384781E+03  0.25861178144E+03  0.00000000000E+00 0. -1.
        -12    1    5    5    0    0 -0.19282639919E+02  0.32500742850E+02  0.13086985833E+03  0.13621687967E+03  0.00000000000E+00 0.  1.
          5    1    4    4  501    0 -0.40445339716E+02 -0.17489190981E+02  0.12140579828E+02  0.45897313477E+02  0.41800000000E+01 0.  1.
         -5    1    4    4    0  501  0.27077713894E+02  0.53342632829E+02 -0.84426000690E+02  0.10355607688E+03  0.41800000000E+01 0.  1.
</event>
<event>
11    1  0.8041700E-009  0.1259013E+03  0.7561462E-02  0.1124410E+00
         22   -1    0    0    0    0  0.00000000000E+00  0.00000000000E+00  0.17932073410E+04  0.17932073410E+04  0.00000000000E+00 0.  1.
         22   -1    0    0    0    0 -0.00000000000E+00 -0.00000000000E+00 -0.49302182011E+03  0.49302182011E+03  0.00000000000E+00 0. -1.
         24    2    1    2    0    0 -0.14964736371E+02 -0.27112250229E+01 -0.43754317237E+03  0.44524645879E+03  0.81049906214E+02 0.  0.
         25    2    1    2    0    0 -0.48239818410E+00 -0.17203041265E+01  0.26590104936E+02  0.12787722324E+03  0.12506941428E+03 0.  0.
        -24    2    1    2    0    0  0.15447134555E+02  0.44315291494E+01  0.17111385883E+04  0.17131054791E+04  0.80478951180E+02 0.  0.
        -11    1    3    3    0    0  0.24179306260E+02 -0.11898993592E+02 -0.62607458202E+02  0.68160976535E+02  0.00000000000E+00 0.  1.
         12    1    3    3    0    0 -0.39144042631E+02  0.91877685693E+01 -0.37493571417E+03  0.37708548225E+03  0.00000000000E+00 0. -1.
         13    1    5    5    0    0 -0.12777856088E+02 -0.95377775553E+01  0.75575931988E+02  0.77239654989E+02  0.00000000000E+00 0. -1.
        -14    1    5    5    0    0  0.28224990643E+02  0.13969306705E+02  0.16355626563E+04  0.16358658241E+04  0.00000000000E+00 0.  1.
          5    1    4    4  501    0  0.26943836333E+02 -0.39425062964E+02  0.55127026923E+02  0.73053182022E+02  0.41800000000E+01 0.  1.
         -5    1    4    4    0  501 -0.27426234517E+02  0.37704758838E+02 -0.28536921987E+02  0.54824041216E+02  0.41800000000E+01 0.  1.
</event>
<event>
11    1  0.8041700E-009  0.1841477E+03  0.7561462E-02  0.1066336E+00
         22   -1    0    0    0    0  0.00000000000E+00  0.00000000000E+00  0.12396112303E+03  0.12396112303E+03  0.00000000000E+00 0.  1.
         22   -1    0    0    0    0 -0.00000000000E+00 -0.00000000000E+00 -0.59587610735E+03  0.59587610735E+03  0.00000000000E+00 0. -1.
         24    2    1    2    0    0  0.93631313283E+02  0.61525416789E+02 -0.27894335864E+03  0.31098536809E+03  0.79688782781E+02 0.  0.
         25    2    1    2    0    0  0.42443288418E+00 -0.15922387983E+03 -0.11537087897E+03  0.23304630464E+03  0.12509083236E+03 0.  0.
        -24    2    1    2    0    0 -0.94055746168E+02  0.97698463041E+02 -0.77600746702E+02  0.17580555764E+03  0.80586879468E+02 0.  0.
        -13    1    3    3    0    0 -0.78719371954E+01 -0.36870509648E+01 -0.63239572990E+02  0.63834201899E+02  0.00000000000E+00 0.  1.
         14    1    3    3    0    0  0.10150325048E+03  0.65212467753E+02 -0.21570378565E+03  0.24715116619E+03  0.00000000000E+00 0. -1.
         13    1    5    5    0    0 -0.89989044967E+02  0.43247547530E+02 -0.66848269774E+02  0.12015435803E+03  0.00000000000E+00 0. -1.
        -14    1    5    5    0    0 -0.40667012009E+01  0.54450915512E+02 -0.10752476928E+02  0.55651199617E+02  0.00000000000E+00 0.  1.
          5    1    4    4  501    0  0.38716591951E+02 -0.59680173275E+02 -0.10348826405E+03  0.12565027167E+03  0.41800000000E+01 0.  1.
         -5    1    4    4    0  501 -0.38292159067E+02 -0.99543706555E+02 -0.11882614921E+02  0.10739603297E+03  0.41800000000E+01 0.  1.
</event>
<event>
11    1  0.8041700E-009  0.1302713E+03  0.7561462E-02  0.1118936E+00
         22   -1    0    0    0    0  0.00000000000E+00  0.00000000000E+00  0.11580931066E+03  0.11580931066E+03  0.00000000000E+00 0.  1.
         22   -1    0    0    0    0 -0.00000000000E+00 -0.00000000000E+00 -0.11694841628E+04  0.11694841628E+04  0.00000000000E+00 0.  1.
         24    2    1    2    0    0 -0.71500448656E+01 -0.30287373261E+02 -0.10389008516E+04  0.10423736982E+04  0.79116995846E+02 0.  0.
         25    2    1    2    0    0  0.35937886864E+02  0.19704595038E+01 -0.42217268759E+02  0.13684060990E+03  0.12509052847E+03 0.  0.
        -24    2    1    2    0    0 -0.28787841998E+02  0.28316913757E+02  0.27443268187E+02  0.10607916544E+03  0.94175734243E+02 0.  0.
        -11    1    3    3    0    0  0.59753622269E+01 -0.45796943260E+02 -0.95237891640E+03  0.95349812028E+03  0.00000000000E+00 0.  1.
         12    1    3    3    0    0 -0.13125407093E+02  0.15509569999E+02 -0.86521935212E+02  0.88875577892E+02  0.00000000000E+00 0. -1.
         11    1    5    5    0    0  0.26380627834E+02  0.15801006426E+02  0.37632483896E+02  0.48598489412E+02  0.00000000000E+00 0. -1.
        -12    1    5    5    0    0 -0.55168469832E+02  0.12515907331E+02 -0.10189215710E+02  0.57480676029E+02  0.00000000000E+00 0.  1.
          5    1    4    4  501    0  0.59463725262E+02 -0.15144336753E+02 -0.72206478724E+02  0.94850058132E+02  0.41800000000E+01 0.  1.
         -5    1    4    4    0  501 -0.23525838398E+02  0.17114796257E+02  0.29989209965E+02  0.41990551766E+02  0.41800000000E+01 0.  1.
</event>
<event>
11    1  0.8041700E-009  0.1280188E+03  0.7561462E-02  0.1121727E+00
         22   -1    0    0    0    0  0.00000000000E+00  0.00000000000E+00  0.32568066316E+03  0.32568066316E+03  0.00000000000E+00 0.  1.
         22   -1    0    0    0    0 -0.00000000000E+00 -0.00000000000E+00 -0.75490297277E+03  0.75490297277E+03  0.00000000000E+00 0.  1.
         24    2    1    2    0    0  0.96775755697E+00 -0.17954454046E+02 -0.69256428140E+03  0.69753080953E+03  0.81121189585E+02 0.  0.
         25    2    1    2    0    0 -0.25750552610E+02  0.26618924679E+02  0.29637124343E+02  0.13378122853E+03  0.12508956734E+03 0.  0.
        -24    2    1    2    0    0  0.24782795053E+02 -0.86644706323E+01  0.23370484745E+03  0.24927159786E+03  0.82638452301E+02 0.  0.
        -11    1    3    3    0    0  0.14124330198E+02 -0.33101703997E+02 -0.64373648565E+03  0.64474171764E+03  0.00000000000E+00 0.  1.
         12    1    3    3    0    0 -0.13156572641E+02  0.15147249950E+02 -0.48827795752E+02  0.52789091891E+02  0.00000000000E+00 0. -1.
         13    1    5    5    0    0  0.26477249776E+01 -0.44083546767E+02  0.10339289697E+03  0.11242980337E+03  0.00000000000E+00 0. -1.
        -14    1    5    5    0    0  0.22135070076E+02  0.35419076134E+02  0.13031195048E+03  0.13684179449E+03  0.00000000000E+00 0.  1.
          5    1    4    4  501    0 -0.40019554684E+02 -0.16905942438E+02  0.63226560497E+02  0.76827377926E+02  0.41800000000E+01 0. -1.
         -5    1    4    4    0  501  0.14269002074E+02  0.43524867116E+02 -0.33589436153E+02  0.56953850605E+02  0.41800000000E+01 0. -1.
</event>
<event>
11    1  0.8041700E-009  0.1453946E+03  0.7561462E-02  0.1101680E+00
         22   -1    0    0    0    0  0.00000000000E+00  0.00000000000E+00  0.64821920674E+03  0.64821920674E+03  0.00000000000E+00 0. -1.
         22   -1    0    0    0    0 -0.00000000000E+00 -0.00000000000E+00 -0.30692946632E+03  0.30692946632E+03  0.00000000000E+00 0.  1.
         24    2    1    2    0    0 -0.19353095034E+02  0.72783314348E+02 -0.26751535127E+03  0.28891602244E+03  0.78968675584E+02 0.  0.
         25    2    1    2    0    0  0.40003289966E+02 -0.43117095760E+02  0.16960172700E+03  0.21879654895E+03  0.12509131415E+03 0.  0.
        -24    2    1    2    0    0 -0.20650194932E+02 -0.29666218588E+02  0.43920336469E+03  0.44743610166E+03  0.77414174685E+02 0.  0.
        -13    1    3    3    0    0 -0.44121777498E+02  0.70850379133E+02 -0.19022013220E+03  0.20772627702E+03  0.00000000000E+00 0.  1.
         14    1    3    3    0    0  0.24768682465E+02  0.19329352154E+01 -0.77295219074E+02  0.81189745420E+02  0.00000000000E+00 0. -1.
         13    1    5    5    0    0 -0.19805289777E+02  0.16041228110E+02  0.29640179912E+03  0.29749554118E+03  0.00000000000E+00 0. -1.
        -14    1    5    5    0    0 -0.84490515547E+00 -0.45707446698E+02  0.14280156557E+03  0.14994056048E+03  0.00000000000E+00 0.  1.
          5    1    4    4  501    0  0.54474843022E+02  0.29722907304E+02  0.60624028576E+02  0.86854504672E+02  0.41800000000E+01 0.  1.
         -5    1    4    4    0  501 -0.14471553057E+02 -0.72840003065E+02  0.10897769843E+03  0.13194204428E+03  0.41800000000E+01 0.  1.
</event>
<event>
11    1  0.8041700E-009  0.1263401E+03  0.7561462E-02  0.1123849E+00
         22   -1    0    0    0    0  0.00000000000E+00  0.00000000000E+00  0.10073798094E+03  0.10073798094E+03  0.00000000000E+00 0.  1.
         22   -1    0    0    0    0 -0.00000000000E+00 -0.00000000000E+00 -0.64182703083E+03  0.64182703083E+03  0.00000000000E+00 0. -1.
        -24    2    1    2    0    0  0.60109737691E+01 -0.50518078680E+00 -0.46297374781E+03  0.46997564462E+03  0.80597942678E+02 0.  0.
         25    2    1    2    0    0  0.10244455852E+02 -0.82892510495E+01 -0.12536391824E+03  0.17758700742E+03  0.12508945858E+03 0.  0.
         24    2    1    2    0    0 -0.16255429621E+02  0.87944318363E+01  0.47248616155E+02  0.95002359730E+02  0.80320829193E+02 0.  0.
        -13    1    5    5    0    0 -0.13982716842E+02  0.15734319959E+02  0.68957212166E+02  0.72098420957E+02  0.00000000000E+00 0.  1.
         14    1    5    5    0    0 -0.22727127794E+01 -0.69398881223E+01 -0.21708596011E+02  0.22903938773E+02  0.00000000000E+00 0. -1.
         13    1    3    3    0    0  0.35839289673E+01  0.12879594984E+02 -0.45277908848E+03  0.45297641382E+03  0.00000000000E+00 0. -1.
        -14    1    3    3    0    0  0.24270448018E+01 -0.13384775771E+02 -0.10194659324E+02  0.16999230795E+02  0.00000000000E+00 0.  1.
          5    1    4    4  501    0  0.64425854398E+02  0.67300499188E+01 -0.90242157531E+02  0.11116251024E+03  0.41800000000E+01 0. -1.
         -5    1    4    4    0  501 -0.54181398546E+02 -0.15019300968E+02 -0.35121760713E+02  0.66424497179E+02  0.41800000000E+01 0. -1.
</event>
<event>
11    1  0.8041700E-009  0.1900414E+03  0.7561462E-02  0.1061798E+00
         22   -1    0    0    0    0  0.00000000000E+00  0.00000000000E+00  0.11535271959E+04  0.11535271959E+04  0.00000000000E+00 0.  1.
         22   -1    0    0    0    0 -0.00000000000E+00 -0.00000000000E+00 -0.19396643753E+04  0.19396643753E+04  0.00000000000E+00 0. -1.
        -24    2    1    2    0    0 -0.77954414228E+02  0.11941798173E+03 -0.18240444249E+04  0.18315052702E+04  0.83282324306E+02 0.  0.
         25    2    1    2    0    0  0.11408902740E+03 -0.10954811640E+03 -0.18069052782E+02  0.20246538390E+03  0.12509454437E+03 0.  0.
         24    2    1    2    0    0 -0.36134613168E+02 -0.98698653359E+01  0.10559762983E+04  0.10592209171E+04  0.73891029857E+02 0.  0.
        -11    1    5    5    0    0  0.44943860884E+00  0.16987491587E+02  0.71916116679E+03  0.71936191217E+03  0.00000000000E+00 0.  1.
         12    1    5    5    0    0 -0.36584051777E+02 -0.26857356923E+02  0.33681513147E+03  0.33985900496E+03  0.00000000000E+00 0. -1.
         11    1    3    3    0    0 -0.25790315319E+02  0.12974251259E+02 -0.81674142780E+03  0.81725151052E+03  0.00000000000E+00 0. -1.
        -12    1    3    3    0    0 -0.52164098910E+02  0.10644373048E+03 -0.10073029971E+04  0.10142537596E+04  0.00000000000E+00 0.  1.
          5    1    4    4  501    0  0.42627275383E+02 -0.39052691420E+02  0.53685087262E+02  0.79004799273E+02  0.41800000000E+01 0. -1.
         -5    1    4    4    0  501  0.71461752013E+02 -0.70495424978E+02 -0.71754140044E+02  0.12346058463E+03  0.41800000000E+01 0. -1.
</event>
<event>
11    1  0.8041700E-009  0.1315969E+03  0.7561462E-02  0.1117322E+00
         22   -1    0    0    0    0  0.00000000000E+00  0.00000000000E+00  0.10016261550E+03  0.10016261550E+03  0.00000000000E+00 0.  1.
         22   -1    0    0    0    0 -0.00000000000E+00 -0.00000000000E+00 -0.16839308435E+04  0.16839308435E+04  0.00000000000E+00 0. -1.
        -24    2    1    2    0    0 -0.26419267351E+02 -0.41703608906E+02 -0.64681034142E+03  0.65381985410E+03  0.81728912661E+02 0.  0.
         25    2    1    2    0    0  0.54873129696E+01  0.32057596111E+02 -0.10104142374E+04  0.10186469375E+04  0.12508737760E+03 0.  0.
         24    2    1    2    0    0  0.20931954381E+02  0.96460127948E+01  0.73456350849E+02  0.11162666740E+03  0.80829976597E+02 0.  0.
        -11    1    5    5    0    0 -0.35535931966E+01  0.13963573897E+02  0.83556840459E+02  0.84790064324E+02  0.00000000000E+00 0.  1.
         12    1    5    5    0    0  0.24485547578E+02 -0.43175611019E+01 -0.10100489610E+02  0.26836603071E+02  0.00000000000E+00 0. -1.
         13    1    3    3    0    0  0.95562592216E+00 -0.61136507423E+02 -0.45563076831E+03  0.45971511047E+03  0.00000000000E+00 0. -1.
        -14    1    3    3    0    0 -0.27374893273E+02  0.19432898517E+02 -0.19117957311E+03  0.19410474364E+03  0.00000000000E+00 0.  1.
          5    1    4    4  501    0  0.23295970534E+02  0.60557714660E+02 -0.91667373189E+03  0.91897668206E+03  0.41800000000E+01 0. -1.
         -5    1    4    4    0  501 -0.17808657564E+02 -0.28500118548E+02 -0.93740505494E+02  0.99670255402E+02  0.41800000000E+01 0. -1.
</event>
<event>
11    1  0.8041700E-009  0.1294119E+03  0.7561462E-02  0.1119994E+00
         22   -1    0    0    0    0  0.00000000000E+00  0.00000000000E+00  0.72808370074E+03  0.72808370074E+03  0.00000000000E+00 0. -1.
         22   -1    0    0    0    0 -0.00000000000E+00 -0.00000000000E+00 -0.26605644431E+03  0.26605644431E+03  0.00000000000E+00 0. -1.
         24    2    1    2    0    0  0.24525312020E+02  0.21435777212E+02 -0.23958171183E+03  0.25433896970E+03  0.78917243922E+02 0.  0.
         25    2    1    2    0    0 -0.44063408132E+02 -0.40319446465E+02  0.30843946721E+03  0.33815496871E+03  0.12508651498E+03 0.  0.
        -24    2    1    2    0    0  0.19538096112E+02  0.18883669252E+02  0.39316950105E+03  0.40164620664E+03  0.77453783535E+02 0.  0.
        -11    1    3    3    0    0  0.49826946721E+01  0.21540726416E+02 -0.10590024942E+02  0.24514868325E+02  0.00000000000E+00 0.  1.
         12    1    3    3    0    0  0.19542617347E+02 -0.10494920358E+00 -0.22899168689E+03  0.22982410137E+03  0.00000000000E+00 0. -1.
         13    1    5    5    0    0  0.15498713455E+02 -0.80847790280E+01  0.35095504461E+03  0.35139012096E+03  0.00000000000E+00 0. -1.
        -14    1    5    5    0    0  0.40393826573E+01  0.26968448280E+02  0.42214456443E+02  0.50256085678E+02  0.00000000000E+00 0.  1.
          5    1    4    4  501    0  0.93496486708E+01 -0.91058798319E+01 -0.78849347346E+01  0.15810679098E+02  0.41800000000E+01 0. -1.
         -5    1    4    4    0  501 -0.53413056802E+02 -0.31213566633E+02  0.31632440195E+03  0.32234428962E+03  0.41800000000E+01 0. -1.
</event>
<event>
11    1  0.8041700E-009  0.1736650E+03  0.7561462E-02  0.1074886E+00
         22   -1    0    0    0    0  0.00000000000E+00  0.00000000000E+00  0.12638924060E+04  0.12638924060E+04  0.00000000000E+00 0. -1.
         22   -1    0    0    0    0 -0.00000000000E+00 -0.00000000000E+00 -0.27017929048E+03  0.27017929048E+03  0.00000000000E+00 0. -1.
        -24    2    1    2    0    0 -0.31985862814E+02 -0.60394094902E+02 -0.21340871968E+03  0.23804082997E+03  0.80309482496E+02 0.  0.
         25    2    1    2    0    0 -0.73839459927E+02 -0.10262462722E+02  0.95147391900E+02  0.17394902701E+03  0.12509058250E+03 0.  0.
         24    2    1    2    0    0  0.10582532274E+03  0.70656557624E+02  0.11119744433E+04  0.11220818395E+04  0.79932120646E+02 0.  0.
        -13    1    5    5    0    0  0.92246487231E+01  0.44033981834E+02  0.22412599322E+03  0.22859690841E+03  0.00000000000E+00 0.  1.
         14    1    5    5    0    0  0.96600674018E+02  0.26622575790E+02  0.88784845012E+03  0.89348493112E+03  0.00000000000E+00 0. -1.
         13    1    3    3    0    0 -0.30867740997E+02 -0.80008692680E+02 -0.17074140864E+03  0.19106762406E+03  0.00000000000E+00 0. -1.
        -14    1    3    3    0    0 -0.11181218174E+01  0.19614597778E+02 -0.42667311039E+02  0.46973205913E+02  0.00000000000E+00 0.  1.
          5    1    4    4  501    0 -0.54098450102E+01 -0.54047624254E+02  0.85644586018E+01  0.55147388530E+02  0.41800000000E+01 0. -1.
         -5    1    4    4    0  501 -0.68429614917E+02  0.43785161532E+02  0.86582933298E+02  0.11880163848E+03  0.41800000000E+01 0. -1.
</event>
<event>
11    1  0.8041700E-009  0.1606928E+03  0.7561462E-02  0.1086427E+00
         22   -1    0    0    0    0  0.00000000000E+00  0.00000000000E+00  0.28059569095E+04  0.28059569095E+04  0.00000000000E+00 0.  1.
         22   -1    0    0    0    0 -0.00000000000E+00 -0.00000000000E+00 -0.97100482287E+02  0.97100482287E+02  0.00000000000E+00 0. -1.
         24    2    1    2    0    0 -0.24197965886E+02 -0.58635138349E+02 -0.31237964002E+02  0.10591882858E+03  0.78862962471E+02 0.  0.
         25    2    1    2    0    0  0.11546503804E+03  0.95148286077E+02  0.32672958392E+03  0.38050691593E+03  0.12509164924E+03 0.  0.
        -24    2    1    2    0    0 -0.91267072156E+02 -0.36513147728E+02  0.24133648073E+04  0.24166316473E+04  0.78204457203E+02 0.  0.
        -13    1    3    3    0    0 -0.38223116396E+02  0.26650593116E+01 -0.11199699739E+02  0.39919198920E+02  0.00000000000E+00 0.  1.
         14    1    3    3    0    0  0.14025150511E+02 -0.61300197661E+02 -0.20038264263E+02  0.65999629656E+02  0.00000000000E+00 0. -1.
         11    1    5    5    0    0  0.23825428508E+01 -0.25428945138E+02  0.27351278479E+03  0.27470265962E+03  0.00000000000E+00 0. -1.
        -12    1    5    5    0    0 -0.93649615007E+02 -0.11084202590E+02  0.21398520225E+04  0.21419289877E+04  0.00000000000E+00 0.  1.
          5    1    4    4  501    0  0.13298711751E+03  0.10896140459E+03  0.28090443590E+03  0.32936747809E+03  0.41800000000E+01 0.  1.
         -5    1    4    4    0  501 -0.17522079471E+02 -0.13813118509E+02  0.45825148018E+02  0.51139437842E+02  0.41800000000E+01 0.  1.
</event>
<event>
11    1  0.1150800E-008  0.1831848E+03  0.7561462E-02  0.1067095E+00
         22   -1    0    0    0    0  0.00000000000E+00  0.00000000000E+00  0.24707847258E+03  0.24707847258E+03  0.00000000000E+00 0. -1.
         22   -1    0    0    0    0 -0.00000000000E+00 -0.00000000000E+00 -0.12363973336E+04  0.12363973336E+04  0.00000000000E+00 0. -1.
         24    2    1    2    0    0 -0.14970245145E+02 -0.43395521019E+02 -0.84020706182E+03  0.84530011646E+03  0.80480436640E+02 0.  0.
         25    2    1    2    0    0 -0.11969800991E+03  0.33105889486E+02 -0.34508754336E+03  0.38750005073E+03  0.12508902125E+03 0.  0.
        -24    2    1    2    0    0  0.13466825506E+03  0.10289631533E+02  0.19597574413E+03  0.25067563902E+03  0.78678893438E+02 0.  0.
        -13    1    3    3    0    0 -0.26238682044E+02 -0.40988246117E+02 -0.23515036860E+03  0.24013371402E+03  0.00000000000E+00 0.  1.
         14    1    3    3    0    0  0.11268436900E+02 -0.24072749023E+01 -0.60505669322E+03  0.60516640245E+03  0.00000000000E+00 0. -1.
         11    1    5    5    0    0  0.13800785215E+03  0.23721529525E+02  0.18886639492E+03  0.23511570205E+03  0.00000000000E+00 0. -1.
        -12    1    5    5    0    0 -0.33395970928E+01 -0.13431897991E+02  0.71093492075E+01  0.15559936971E+02  0.00000000000E+00 0.  1.
          5    1    4    4  501    0  0.11346996336E+02  0.43035010358E+02 -0.92730060509E+02  0.10294223120E+03  0.41800000000E+01 0. -1.
         -5    1    4    4    0  501 -0.13104500625E+03 -0.99291208719E+01 -0.25235748285E+03  0.28455781953E+03  0.41800000000E+01 0. -1.
</event>
<event>
11    1  0.8041700E-009  0.1422772E+03  0.7561462E-02  0.1105042E+00
         22   -1    0    0    0    0  0.00000000000E+00  0.00000000000E+00  0.80888372657E+03  0.80888372657E+03  0.00000000000E+00 0. -1.
         22   -1    0    0    0    0 -0.00000000000E+00 -0.00000000000E+00 -0.24736493374E+04  0.24736493374E+04  0.00000000000E+00 0. -1.
        -24    2    1    2    0    0 -0.20655001593E+02 -0.22322925499E+02 -0.23797368775E+04  0.23813251317E+04  0.81466770148E+02 0.  0.
         25    2    1    2    0    0 -0.53455986865E+01  0.84377486449E+02 -0.25710966325E+02  0.15315549973E+03  0.12508963851E+03 0.  0.
         24    2    1    2    0    0  0.26000600280E+02 -0.62054560950E+02  0.74068223300E+03  0.74805243254E+03  0.80283695724E+02 0.  0.
        -11    1    5    5    0    0  0.49327910543E+01  0.18216973330E+02  0.80954944554E+02  0.83125769727E+02  0.00000000000E+00 0.  1.
         12    1    5    5    0    0  0.21067809226E+02 -0.80271534281E+02  0.65972728844E+03  0.66492666281E+03  0.00000000000E+00 0. -1.
         13    1    3    3    0    0  0.72225269547E+01  0.20149628725E+02 -0.14801791224E+04  0.14803338836E+04  0.00000000000E+00 0. -1.
        -14    1    3    3    0    0 -0.27877528548E+02 -0.42472554223E+02 -0.89955775512E+03  0.90099124816E+03  0.00000000000E+00 0.  1.
          5    1    4    4  501    0 -0.48240508386E+02  0.23692808703E+02 -0.51332057641E+02  0.74437546811E+02  0.41800000000E+01 0. -1.
         -5    1    4    4    0  501  0.42894909700E+02  0.60684677746E+02  0.25621091316E+02  0.78717952918E+02  0.41800000000E+01 0. -1.
</event>
<event>
11    1  0.8041700E-009  0.1315370E+03  0.7561462E-02  0.1117395E+00
         22   -1    0    0    0    0  0.00000000000E+00  0.00000000000E+00  0.36713032221E+03  0.36713032221E+03  0.00000000000E+00 0. -1.
         22   -1    0    0    0    0 -0.00000000000E+00 -0.00000000000E+00 -0.23537708786E+04  0.23537708786E+04  0.00000000000E+00 0.  1.
         24    2    1    2    0    0  0.57382300758E+01 -0.15867262586E+02 -0.22853517611E+04  0.22868604882E+04  0.81323568915E+02 0.  0.
         25    2    1    2    0    0 -0.30154314121E+02 -0.17740191747E+02  0.78696237959E+01  0.13013663652E+03  0.12509842574E+03 0.  0.
        -24    2    1    2    0    0  0.24416084045E+02  0.33607454333E+02  0.29084158100E+03  0.30390407608E+03  0.77738382211E+02 0.  0.
        -13    1    3    3    0    0 -0.23026749819E+01  0.13219217496E+01 -0.21666294358E+04  0.21666310627E+04  0.00000000000E+00 0.  1.
         14    1    3    3    0    0  0.80409050577E+01 -0.17189184336E+02 -0.11872232537E+03  0.12022942549E+03  0.00000000000E+00 0. -1.
         13    1    5    5    0    0  0.27644527146E+02  0.30953313982E+02  0.29506091257E+03  0.29796521552E+03  0.00000000000E+00 0. -1.
        -14    1    5    5    0    0 -0.32284431013E+01  0.26541403508E+01 -0.42193315715E+01  0.59388605616E+01  0.00000000000E+00 0.  1.
          5    1    4    4  501    0  0.17246716997E+02 -0.48503784509E+02 -0.32085482522E+02  0.60803099819E+02  0.41800000000E+01 0. -1.
         -5    1    4    4    0  501 -0.47401031118E+02  0.30763592762E+02  0.39955106318E+02  0.69333536702E+02  0.41800000000E+01 0. -1.
</event>
<event>
11    1  0.8041700E-009  0.1551478E+03  0.7561462E-02  0.1091732E+00
         22   -1    0    0    0    0  0.00000000000E+00  0.00000000000E+00  0.36155623032E+03  0.36155623032E+03  0.00000000000E+00 0. -1.
         22   -1    0    0    0    0 -0.00000000000E+00 -0.00000000000E+00 -0.64015699560E+03  0.64015699560E+03  0.00000000000E+00 0. -1.
        -24    2    1    2    0    0  0.25571190579E+01  0.40644355799E+02 -0.57253669590E+03  0.58316210659E+03  0.10305955509E+03 0.  0.
         25    2    1    2    0    0  0.69846745271E+02  0.27943724054E+02  0.73372956169E+02  0.16337318951E+03  0.12509112205E+03 0.  0.
         24    2    1    2    0    0 -0.72403864329E+02 -0.68588079853E+02  0.22056297444E+03  0.25517792982E+03  0.80753364650E+02 0.  0.
        -13    1    5    5    0    0  0.81684206025E+01 -0.36615182449E+02  0.39737181936E+02  0.54648314788E+02  0.00000000000E+00 0.  1.
         14    1    5    5    0    0 -0.80572284932E+02 -0.31972897404E+02  0.18082579251E+03  0.20052961503E+03  0.00000000000E+00 0. -1.
         13    1    3    3    0    0 -0.26532288302E+02 -0.12948003321E+02 -0.38124694929E+03  0.38238834901E+03  0.00000000000E+00 0. -1.
        -14    1    3    3    0    0  0.29089407360E+02  0.53592359121E+02 -0.19128974661E+03  0.20077375758E+03  0.00000000000E+00 0.  1.
          5    1    4    4  501    0  0.38863251424E+02  0.76152136236E+02  0.59551971617E+02  0.10427564379E+03  0.41800000000E+01 0.  1.
         -5    1    4    4    0  501  0.30983493848E+02 -0.48208412183E+02  0.13820984552E+02  0.59097545720E+02  0.41800000000E+01 0.  1.
</event>
<event>
11    1  0.8041700E-009  0.1388487E+03  0.7561462E-02  0.1108851E+00
         22   -1    0    0    0    0  0.00000000000E+00  0.00000000000E+00  0.12004723434E+04  0.12004723434E+04  0.00000000000E+00 0.  1.
         22   -1    0    0    0    0 -0.00000000000E+00 -0.00000000000E+00 -0.35480094526E+03  0.35480094526E+03  0.00000000000E+00 0.  1.
         24    2    1    2    0    0  0.26573412648E+02 -0.21445597376E+02 -0.33236229030E+03  0.34386176586E+03  0.81302903376E+02 0.  0.
         25    2    1    2    0    0  0.38066527510E+02  0.23552899210E+02  0.30721513973E+03  0.33471489845E+03  0.12509644912E+03 0.  0.
        -24    2    1    2    0    0 -0.64639940157E+02 -0.21073018347E+01  0.87081854873E+03  0.87669662437E+03  0.78033734920E+02 0.  0.
        -11    1    3    3    0    0  0.20484199267E+01 -0.41404545322E+02 -0.27717336471E+03  0.28025632286E+03  0.00000000000E+00 0.  1.
         12    1    3    3    0    0  0.24524992721E+02  0.19958947947E+02 -0.55188925592E+02  0.63605442999E+02  0.00000000000E+00 0. -1.
         13    1    5    5    0    0 -0.11176648737E+02  0.35233620244E+01  0.14281143468E+02  0.18473835977E+02  0.00000000000E+00 0. -1.
        -14    1    5    5    0    0 -0.53463291420E+02 -0.56306638591E+01  0.85653740526E+03  0.85822278840E+03  0.00000000000E+00 0.  1.
          5    1    4    4  501    0 -0.59673349822E+01 -0.44821969539E+02  0.16178424297E+03  0.16803639997E+03  0.41800000000E+01 0.  1.
         -5    1    4    4    0  501  0.44033862492E+02  0.68374868749E+02  0.14543089676E+03  0.16667849847E+03  0.41800000000E+01 0.  1.
</event>
<event>
11    1  0.8041700E-009  0.1889067E+03  0.7561462E-02  0.1062658E+00
         22   -1    0    0    0    0  0.00000000000E+00  0.00000000000E+00  0.56994474095E+03  0.56994474095E+03  0.00000000000E+00 0.  1.
         22   -1    0    0    0    0 -0.00000000000E+00 -0.00000000000E+00 -0.43425811033E+03  0.43425811033E+03  0.00000000000E+00 0.  1.
        -24    2    1    2    0    0 -0.94911433666E+01  0.99308708543E+01 -0.32828571156E+03  0.33838778349E+03  0.80907846390E+02 0.  0.
         25    2    1    2    0    0  0.13979452303E+03  0.43486546330E+02  0.20480445645E+02  0.19365417713E+03  0.12509557660E+03 0.  0.
         24    2    1    2    0    0 -0.13030337967E+03 -0.53417417184E+02  0.44349189652E+03  0.47216089065E+03  0.80115249290E+02 0.  0.
        -13    1    5    5    0    0 -0.13976499321E+03 -0.53632100874E+02  0.38819791010E+03  0.41606282336E+03  0.00000000000E+00 0.  1.
         14    1    5    5    0    0  0.94616135460E+01  0.21468368960E+00  0.55293986423E+02  0.56098067298E+02  0.00000000000E+00 0. -1.
         11    1    3    3    0    0  0.19355876773E+02 -0.15233861057E+02 -0.36086022295E+02  0.43691206134E+02  0.00000000000E+00 0. -1.
        -12    1    3    3    0    0 -0.28847020140E+02  0.25164731912E+02 -0.29219968926E+03  0.29469657736E+03  0.00000000000E+00 0.  1.
          5    1    4    4  501    0  0.15114283854E+01  0.22960112015E+02  0.45888626166E+02  0.51504267502E+02  0.41800000000E+01 0.  1.
         -5    1    4    4    0  501  0.13828309465E+03  0.20526434315E+02 -0.25408180521E+02  0.14214990963E+03  0.41800000000E+01 0.  1.
</event>
<event>
11    1  0.8041700E-009  0.1369019E+03  0.7561462E-02  0.1111068E+00
         22   -1    0    0    0    0  0.00000000000E+00  0.00000000000E+00  0.44724154032E+03  0.44724154032E+03  0.00000000000E+00 0.  1.
         22   -1    0    0    0    0 -0.00000000000E+00 -0.00000000000E+00 -0.14109975795E+03  0.14109975795E+03  0.00000000000E+00 0. -1.
         24    2    1    2    0    0  0.21980689928E+02  0.29569799489E+02 -0.77520649528E+02  0.11748211600E+03  0.80218904905E+02 0.  0.
         25    2    1    2    0    0 -0.70037955001E+02 -0.48072628784E+01  0.11020720552E+03  0.18089243259E+03  0.12509204252E+03 0.  0.
        -24    2    1    2    0    0  0.48057265073E+02 -0.24762536611E+02  0.27345522637E+03  0.28996674969E+03  0.79876599496E+02 0.  0.
        -11    1    3    3    0    0  0.85647134943E-01 -0.17640093138E+02  0.63751012271E+01  0.18756922375E+02  0.00000000000E+00 0.  1.
         12    1    3    3    0    0  0.21895042793E+02  0.47209892627E+02 -0.83895750755E+02  0.98725193621E+02  0.00000000000E+00 0. -1.
         11    1    5    5    0    0  0.20125616722E+02  0.17398350260E+02  0.25308109023E+02  0.36718434370E+02  0.00000000000E+00 0. -1.
        -12    1    5    5    0    0  0.27931648351E+02 -0.42160886871E+02  0.24814711735E+03  0.25324831532E+03  0.00000000000E+00 0.  1.
          5    1    4    4  501    0  0.26990779239E+02  0.28382318477E+02  0.19646723017E+02  0.44017318084E+02  0.41800000000E+01 0. -1.
         -5    1    4    4    0  501 -0.97028734239E+02 -0.33189581355E+02  0.90560482506E+02  0.13687511450E+03  0.41800000000E+01 0. -1.
</event>
<event>
11    1  0.8041700E-009  0.1942395E+03  0.7561462E-02  0.1058674E+00
         22   -1    0    0    0    0  0.00000000000E+00  0.00000000000E+00  0.82233419600E+02  0.82233419600E+02  0.00000000000E+00 0. -1.
         22   -1    0    0    0    0 -0.00000000000E+00 -0.00000000000E+00 -0.14669778194E+04  0.14669778194E+04  0.00000000000E+00 0. -1.
         24    2    1    2    0    0  0.13558350334E+03 -0.88558079097E+02 -0.12039643209E+04  0.12174464248E+04  0.80126721078E+02 0.  0.
         25    2    1    2    0    0 -0.78193507380E+02  0.37766244065E+02 -0.15239953638E+03  0.21543956788E+03  0.12509226567E+03 0.  0.
        -24    2    1    2    0    0 -0.57389995962E+02  0.50791835033E+02 -0.28380542539E+02  0.11632524638E+03  0.82780949541E+02 0.  0.
        -11    1    3    3    0    0  0.63186214126E+02  0.30366746986E+01 -0.47445971583E+03  0.47865827162E+03  0.00000000000E+00 0.  1.
         12    1    3    3    0    0  0.72397289217E+02 -0.91594753796E+02 -0.72950460507E+03  0.73878815314E+03  0.00000000000E+00 0. -1.
         11    1    5    5    0    0  0.17987350623E+02  0.29254073433E+02 -0.10597585644E+02  0.35939593992E+02  0.00000000000E+00 0. -1.
        -12    1    5    5    0    0 -0.75377346586E+02  0.21537761600E+02 -0.17782956895E+02  0.80385652383E+02  0.00000000000E+00 0.  1.
          5    1    4    4  501    0 -0.96661099018E+02  0.27580293186E+02 -0.52943605625E+02  0.11368613993E+03  0.41800000000E+01 0.  1.
         -5    1    4    4    0  501  0.18467591638E+02  0.10185950878E+02 -0.99455930756E+02  0.10175342795E+03  0.41800000000E+01 0.  1.
</event>
<event>
11    1  0.8041700E-009  0.1508220E+03  0.7561462E-02  0.1096042E+00
         22   -1    0    0    0    0  0.00000000000E+00  0.00000000000E+00  0.51864115501E+02  0.51864115501E+02  0.00000000000E+00 0.  1.
         22   -1    0    0    0    0 -0.00000000000E+00 -0.00000000000E+00 -0.17789860714E+04  0.17789860714E+04  0.00000000000E+00 0.  1.
        -24    2    1    2    0    0 -0.36606233817E+02 -0.53592280334E+02 -0.12895194709E+04  0.12936507926E+04  0.80372622829E+02 0.  0.
         25    2    1    2    0    0 -0.55372554151E+02  0.53893173201E+02 -0.35645884422E+03  0.38559123904E+03  0.12508837726E+03 0.  0.
         24    2    1    2    0    0  0.91978787968E+02 -0.30089286719E+00 -0.81143640707E+02  0.15160815519E+03  0.89109788025E+02 0.  0.
        -13    1    5    5    0    0  0.35997640906E+02  0.41916694252E+02 -0.20591261511E+02  0.58964730631E+02  0.00000000000E+00 0.  1.
         14    1    5    5    0    0  0.55981147063E+02 -0.42217587119E+02 -0.60552379196E+02  0.92643424564E+02  0.00000000000E+00 0. -1.
         11    1    3    3    0    0 -0.21597109091E+02  0.11776344402E+02 -0.13767894757E+03  0.13985925072E+03  0.00000000000E+00 0. -1.
        -12    1    3    3    0    0 -0.15009124726E+02 -0.65368624736E+02 -0.11518405234E+04  0.11537915419E+04  0.00000000000E+00 0.  1.
          5    1    4    4  501    0  0.37077094866E+02  0.28533136124E+02 -0.77867277465E+02  0.90937539667E+02  0.41800000000E+01 0.  1.
         -5    1    4    4    0  501 -0.92449649017E+02  0.25360037077E+02 -0.27859156676E+03  0.29465369937E+03  0.41800000000E+01 0.  1.
</event>
<event>
11    1  0.8041700E-009  0.1342617E+03  0.7561462E-02  0.1114141E+00
         22   -1    0    0    0    0  0.00000000000E+00  0.00000000000E+00  0.40733589980E+03  0.40733589980E+03  0.00000000000E+00 0.  1.
         22   -1    0    0    0    0 -0.00000000000E+00 -0.00000000000E+00 -0.10016247691E+04  0.10016247691E+04  0.00000000000E+00 0.  1.
        -24    2    1    2    0    0  0.44780534499E+02 -0.20507208681E+02 -0.95304399063E+03  0.95758635363E+03  0.79075500027E+02 0.  0.
         25    2    1    2    0    0 -0.10238998078E+02  0.41612953680E+02  0.71151395141E+02  0.15014498216E+03  0.12507805420E+03 0.  0.
         24    2    1    2    0    0 -0.34541536421E+02 -0.21105745000E+02  0.28760372614E+03  0.30122933316E+03  0.79903927665E+02 0.  0.
        -11    1    5    5    0    0 -0.37780059474E+02 -0.46846985331E+02  0.23488456224E+03  0.24247212315E+03  0.00000000000E+00 0.  1.
         12    1    5    5    0    0  0.32385230530E+01  0.25741240331E+02  0.52719163903E+02  0.58757210009E+02  0.00000000000E+00 0. -1.
         13    1    3    3    0    0  0.25721012014E+02 -0.40546776287E+02 -0.28861202598E+03  0.29257907147E+03  0.00000000000E+00 0. -1.
        -14    1    3    3    0    0  0.19059522485E+02  0.20039567607E+02 -0.66443196465E+03  0.66500728215E+03  0.00000000000E+00 0.  1.
          5    1    4    4  501    0 -0.58981131374E+02  0.28869381495E+02  0.74601275446E+02  0.99473804311E+02  0.41800000000E+01 0.  1.
         -5    1    4    4    0  501  0.48742133297E+02  0.12743572186E+02 -0.34498803046E+01  0.50671177848E+02  0.41800000000E+01 0.  1.
</event>
<event>
11    1  0.8041700E-009  0.1546784E+03  0.7561462E-02  0.1092192E+00
         22   -1    0    0    0    0  0.00000000000E+00  0.00000000000E+00  0.21192133518E+03  0.21192133518E+03  0.00000000000E+00 0.  1.
         22   -1    0    0    0    0 -0.00000000000E+00 -0.00000000000E+00 -0.66979806078E+03  0.66979806078E+03  0.00000000000E+00 0. -1.
        -24    2    1    2    0    0  0.46271770322E+01  0.27902079164E+02 -0.56849852039E+03  0.57512743040E+03  0.82347171930E+02 0.  0.
         25    2    1    2    0    0 -0.74417338233E+02  0.37753459442E+02  0.19955342074E+02  0.15168691771E+03  0.12508973338E+03 0.  0.
         24    2    1    2    0    0  0.69790161201E+02 -0.65655538606E+02  0.90666452710E+02  0.15490504785E+03  0.81202536005E+02 0.  0.
        -11    1    5    5    0    0 -0.57049132192E+01 -0.97606268197E+01  0.52181693219E+02  0.53392368162E+02  0.00000000000E+00 0.  1.
         12    1    5    5    0    0  0.75495074420E+02 -0.55894911786E+02  0.38484759491E+02  0.10151267969E+03  0.00000000000E+00 0. -1.
         11    1    3    3    0    0 -0.70527257251E+01  0.39687451812E+02 -0.54427716661E+03  0.54576777925E+03  0.00000000000E+00 0. -1.
        -12    1    3    3    0    0  0.11679902757E+02 -0.11785372648E+02 -0.24221353775E+02  0.29359651149E+02  0.00000000000E+00 0.  1.
          5    1    4    4  501    0 -0.17898756109E+02 -0.40736404659E+02  0.30790260544E+02  0.54270919277E+02  0.41800000000E+01 0.  1.
         -5    1    4    4    0  501 -0.56518582124E+02  0.78489864101E+02 -0.10834918470E+02  0.97415998430E+02  0.41800000000E+01 0.  1.
</event>
<event>
11    1  0.8041700E-009  0.1756309E+03  0.7561462E-02  0.1073233E+00
         22   -1    0    0    0    0  0.00000000000E+00  0.00000000000E+00  0.59228039236E+03  0.59228039236E+03  0.00000000000E+00 0. -1.
         22   -1    0    0    0    0 -0.00000000000E+00 -0.00000000000E+00 -0.31771615848E+03  0.31771615848E+03  0.00000000000E+00 0.  1.
        -24    2    1    2    0    0 -0.12766129346E+02  0.43304498267E+02 -0.24697339914E+03  0.26476703005E+03  0.84068226391E+02 0.  0.
         25    2    1    2    0    0 -0.96104749286E+02 -0.97527035590E+02  0.11812270549E+03  0.21988651129E+03  0.12509779690E+03 0.  0.
         24    2    1    2    0    0  0.10887087863E+03  0.54222537323E+02  0.40341492753E+03  0.42534300949E+03  0.58138801173E+02 0.  0.
        -13    1    5    5    0    0  0.11134434578E+02 -0.11600030520E+02  0.34427160130E+02  0.37996916928E+02  0.00000000000E+00 0.  1.
         14    1    5    5    0    0  0.97736444055E+02  0.65822567843E+02  0.36898776740E+03  0.38734609256E+03  0.00000000000E+00 0. -1.
         13    1    3    3    0    0 -0.23133958939E+02  0.47162035702E+02 -0.70354363014E+02  0.87801902387E+02  0.00000000000E+00 0. -1.
        -14    1    3    3    0    0  0.10367829592E+02 -0.38575374349E+01 -0.17661903613E+03  0.17696512766E+03  0.00000000000E+00 0.  1.
          5    1    4    4  501    0  0.75294940773E+01  0.11509482664E+02 -0.13677484865E+02  0.19842063010E+02  0.41800000000E+01 0. -1.
         -5    1    4    4    0  501 -0.10363424336E+03 -0.10903651825E+03  0.13180019035E+03  0.20004444828E+03  0.41800000000E+01 0. -1.
</event>
<event>
11    1  0.8041700E-009  0.1800100E+03  0.7561462E-02  0.1069635E+00
         22   -1    0    0    0    0  0.00000000000E+00  0.00000000000E+00  0.74177627937E+03  0.74177627937E+03  0.00000000000E+00 0.  1.
         22   -1    0    0    0    0 -0.00000000000E+00 -0.00000000000E+00 -0.40172582149E+03  0.40172582149E+03  0.00000000000E+00 0. -1.
         24    2    1    2    0    0  0.13606599306E+02 -0.19050284973E+02 -0.31681397167E+03  0.32767940401E+03  0.80340813205E+02 0.  0.
         25    2    1    2    0    0 -0.35014459669E+02 -0.11081681065E+03  0.36702138145E+02  0.17464486526E+03  0.12508958434E+03 0.  0.
        -24    2    1    2    0    0  0.21407860363E+02  0.12986709563E+03  0.62016229141E+03  0.64117783158E+03  0.95833110228E+02 0.  0.
        -11    1    3    3    0    0  0.34015783184E+02 -0.17725152706E+02 -0.68366429826E+02  0.78391474480E+02  0.00000000000E+00 0.  1.
         12    1    3    3    0    0 -0.20409183878E+02 -0.13251322670E+01 -0.24844754184E+03  0.24928792953E+03  0.00000000000E+00 0. -1.
         11    1    5    5    0    0  0.40794649573E+02  0.23781787489E+02  0.10941903262E+03  0.11917340957E+03  0.00000000000E+00 0. -1.
        -12    1    5    5    0    0 -0.19386789210E+02  0.10608530814E+03  0.51074325879E+03  0.52200442201E+03  0.00000000000E+00 0.  1.
          5    1    4    4  501    0 -0.60174571031E+02 -0.35568458514E+01  0.15385904358E+02  0.62352454676E+02  0.41800000000E+01 0. -1.
         -5    1    4    4    0  501  0.25160111362E+02 -0.10725996480E+03  0.21316233787E+02  0.11229241059E+03  0.41800000000E+01 0. -1.
</event>
<event>
11    1  0.8041700E-009  0.1375256E+03  0.7561462E-02  0.1110353E+00
         22   -1    0    0    0    0  0.00000000000E+00  0.00000000000E+00  0.21924992761E+03  0.21924992761E+03  0.00000000000E+00 0.  1.
         22   -1    0    0    0    0 -0.00000000000E+00 -0.00000000000E+00 -0.73848067350E+03  0.73848067350E+03  0.00000000000E+00 0. -1.
        -24    2    1    2    0    0 -0.35260817961E+02  0.44087265021E+02 -0.62643679353E+03  0.63421240763E+03  0.81334552802E+02 0.  0.
         25    2    1    2    0    0  0.18680744101E+02 -0.69403031524E+02 -0.43147932240E+02  0.15059176513E+03  0.12510149753E+03 0.  0.
         24    2    1    2    0    0  0.16580073860E+02  0.25315766504E+02  0.15035397989E+03  0.17292642835E+03  0.79883937509E+02 0.  0.
        -13    1    5    5    0    0 -0.93766002088E+01  0.26676293281E+02  0.14320358828E+03  0.14596853411E+03  0.00000000000E+00 0.  1.
         14    1    5    5    0    0  0.25956674069E+02 -0.13605267773E+01  0.71503916100E+01  0.26957894243E+02  0.00000000000E+00 0. -1.
         11    1    3    3    0    0 -0.51585199050E+02 -0.90458076066E-01 -0.35298044805E+03  0.35672992256E+03  0.00000000000E+00 0. -1.
        -12    1    3    3    0    0  0.16324381089E+02  0.44177723097E+02 -0.27345634548E+03  0.27748248506E+03  0.00000000000E+00 0.  1.
          5    1    4    4  501    0  0.42735818721E+02  0.22736893593E+02 -0.19703363574E+02  0.52431016280E+02  0.41800000000E+01 0.  1.
         -5    1    4    4    0  501 -0.24055074620E+02 -0.92139925117E+02 -0.23444568665E+02  0.98160748853E+02  0.41800000000E+01 0.  1.
</event>
<event>
11    1  0.8041700E-009  0.1518371E+03  0.7561462E-02  0.1095016E+00
         22   -1    0    0    0    0  0.00000000000E+00  0.00000000000E+00  0.12613240695E+04  0.12613240695E+04  0.00000000000E+00 0. -1.
         22   -1    0    0    0    0 -0.00000000000E+00 -0.00000000000E+00 -0.38179795850E+03  0.38179795850E+03  0.00000000000E+00 0.  1.
         24    2    1    2    0    0 -0.15207110802E+02  0.72799047780E+02 -0.35493479120E+03  0.37113850526E+03  0.78956484881E+02 0.  0.
         25    2    1    2    0    0 -0.42981377557E+02 -0.12176584316E+03  0.55431382397E+03  0.58273862513E+03  0.12508465291E+03 0.  0.
        -24    2    1    2    0    0  0.58188488360E+02  0.48966795378E+02  0.68014707821E+03  0.68924489759E+03  0.81699655007E+02 0.  0.
        -11    1    3    3    0    0 -0.27462749940E+02  0.35256864286E+02 -0.30095322839E+03  0.30425333982E+03  0.00000000000E+00 0.  1.
         12    1    3    3    0    0  0.12255639137E+02  0.37542183494E+02 -0.53981562805E+02  0.66885165434E+02  0.00000000000E+00 0. -1.
         13    1    5    5    0    0  0.63266544161E+02  0.45726174753E+02  0.67853294563E+03  0.68300841647E+03  0.00000000000E+00 0. -1.
        -14    1    5    5    0    0 -0.50780558014E+01  0.32406206245E+01  0.16141325828E+01  0.62364811191E+01  0.00000000000E+00 0.  1.
          5    1    4    4  501    0 -0.62288479884E+02 -0.12462216937E+03  0.33949298235E+03  0.36699250304E+03  0.41800000000E+01 0. -1.
         -5    1    4    4    0  501  0.19307102326E+02  0.28563262129E+01  0.21482084163E+03  0.21574612209E+03  0.41800000000E+01 0. -1.
</event>
<event>
11    1  0.8041700E-009  0.1329746E+03  0.7561462E-02  0.1115667E+00
         22   -1    0    0    0    0  0.00000000000E+00  0.00000000000E+00  0.27409857829E+04  0.27409857829E+04  0.00000000000E+00 0. -1.
         22   -1    0    0    0    0 -0.00000000000E+00 -0.00000000000E+00 -0.79370449619E+02  0.79370449619E+02  0.00000000000E+00 0. -1.
         24    2    1    2    0    0 -0.14060843797E+02  0.64926071008E+01  0.29957761369E+02  0.93795777630E+02  0.87523249253E+02 0.  0.
         25    2    1    2    0    0  0.52898256004E+02  0.16205963259E+02  0.53667956598E+02  0.14692126544E+03  0.12507897482E+03 0.  0.
        -24    2    1    2    0    0 -0.38837412207E+02 -0.22698570360E+02  0.25779896153E+04  0.25796391895E+04  0.80525284029E+02 0.  0.
        -13    1    3    3    0    0 -0.36267823819E+02  0.72640065879E+01  0.51128250440E+02  0.63104824136E+02  0.00000000000E+00 0.  1.
         14    1    3    3    0    0  0.22206980022E+02 -0.77139948702E+00 -0.21170489071E+02  0.30690953494E+02  0.00000000000E+00 0. -1.
         13    1    5    5    0    0 -0.26558132726E+02  0.18794069694E+01  0.23266557138E+04  0.23268080447E+04  0.00000000000E+00 0. -1.
        -14    1    5    5    0    0 -0.12279279481E+02 -0.24577977329E+02  0.25133390154E+03  0.25283114471E+03  0.00000000000E+00 0.  1.
          5    1    4    4  501    0  0.87614130262E+02  0.37970330423E+02  0.37133510607E+02  0.10253951348E+03  0.41800000000E+01 0. -1.
         -5    1    4    4    0  501 -0.34715874258E+02 -0.21764367163E+02  0.16534445991E+02  0.44381751968E+02  0.41800000000E+01 0. -1.
</event>
<event>
11    1  0.8041700E-009  0.1288133E+03  0.7561462E-02  0.1120736E+00
         22   -1    0    0    0    0  0.00000000000E+00  0.00000000000E+00  0.26032251882E+03  0.26032251882E+03  0.00000000000E+00 0. -1.
         22   -1    0    0    0    0 -0.00000000000E+00 -0.00000000000E+00 -0.20110307609E+04  0.20110307609E+04  0.00000000000E+00 0. -1.
         24    2    1    2    0    0  0.14285567924E+02  0.33318184267E+02 -0.15113050950E+04  0.15145169065E+04  0.91674374656E+02 0.  0.
         25    2    1    2    0    0 -0.42054540776E+01 -0.13548899382E+01 -0.48239827000E+03  0.49837688864E+03  0.12510759632E+03 0.  0.
        -24    2    1    2    0    0 -0.10080113847E+02 -0.31963294329E+02  0.24299512286E+03  0.25845948468E+03  0.81433498059E+02 0.  0.
        -13    1    3    3    0    0  0.40466296119E+02  0.35800858878E+02 -0.50761248791E+03  0.51047983359E+03  0.00000000000E+00 0.  1.
         14    1    3    3    0    0 -0.26180728195E+02 -0.24826746103E+01 -0.10036926071E+04  0.10040370729E+04  0.00000000000E+00 0. -1.
         13    1    5    5    0    0 -0.46005636595E+02 -0.19879795393E+02  0.14221297961E+03  0.15078546493E+03  0.00000000000E+00 0. -1.
        -14    1    5    5    0    0  0.35925522748E+02 -0.12083498936E+02  0.10078214325E+03  0.10767401975E+03  0.00000000000E+00 0.  1.
          5    1    4    4  501    0 -0.26252935359E+02 -0.28515591643E+02 -0.44607044457E+03  0.44777077786E+03  0.41800000000E+01 0.  1.
         -5    1    4    4    0  501  0.22047481281E+02  0.27160701705E+02 -0.36327825426E+02  0.50606110779E+02  0.41800000000E+01 0.  1.
</event>
<event>
11    1  0.8041700E-009  0.1630789E+03  0.7561462E-02  0.1084217E+00
         22   -1    0    0    0    0  0.00000000000E+00  0.00000000000E+00  0.40088999390E+03  0.40088999390E+03  0.00000000000E+00 0.  1.
         22   -1    0    0    0    0 -0.00000000000E+00 -0.00000000000E+00 -0.17405249619E+04  0.17405249619E+04  0.00000000000E+00 0.  1.
        -24    2    1    2    0    0  0.56978559021E+02  0.89744494473E+01 -0.14822213456E+04  0.14856150893E+04  0.82127824545E+02 0.  0.
         25    2    1    2    0    0 -0.15515873749E+03  0.19336295362E+02 -0.20363132860E+03  0.28558913843E+03  0.12508921562E+03 0.  0.
         24    2    1    2    0    0  0.98180178469E+02 -0.28310744809E+02  0.34621770619E+03  0.37021072797E+03  0.82148872837E+02 0.  0.
        -11    1    5    5    0    0  0.10038764398E+03 -0.45530226441E+02  0.32250214491E+03  0.34082006111E+03  0.00000000000E+00 0.  1.
         12    1    5    5    0    0 -0.22074655092E+01  0.17219481632E+02  0.23715561281E+02  0.29390666861E+02  0.00000000000E+00 0. -1.
         11    1    3    3    0    0  0.48250654209E+02  0.42341002281E+02 -0.10859479693E+04  0.10878436828E+04  0.00000000000E+00 0. -1.
        -12    1    3    3    0    0  0.87279048118E+01 -0.33366552834E+02 -0.39627337623E+03  0.39777140657E+03  0.00000000000E+00 0.  1.
          5    1    4    4  501    0 -0.51532939399E+02  0.56240946177E+02 -0.13714883831E+03  0.15699033130E+03  0.41800000000E+01 0. -1.
         -5    1    4    4    0  501 -0.10362579809E+03 -0.36904650815E+02 -0.66482490286E+02  0.12859880714E+03  0.41800000000E+01 0. -1.
</event>
<event>
11    1  0.8041700E-009  0.1530326E+03  0.7561462E-02  0.1093820E+00
         22   -1    0    0    0    0  0.00000000000E+00  0.00000000000E+00  0.13073313556E+03  0.13073313556E+03  0.00000000000E+00 0.  1.
         22   -1    0    0    0    0 -0.00000000000E+00 -0.00000000000E+00 -0.63275794022E+03  0.63275794022E+03  0.00000000000E+00 0.  1.
         24    2    1    2    0    0 -0.13245571682E+02 -0.17190632614E+02 -0.35296072399E+03  0.36283527366E+03  0.81223150133E+02 0.  0.
         25    2    1    2    0    0 -0.15748553808E+02  0.98794747596E+02 -0.21270564704E+03  0.26627280321E+03  0.12509634025E+03 0.  0.
        -24    2    1    2    0    0  0.28994125491E+02 -0.81604114983E+02  0.63641566370E+02  0.13438299892E+03  0.80676207979E+02 0.  0.
        -13    1    3    3    0    0  0.29874263849E+02 -0.10065273595E+02 -0.23374010389E+03  0.23585634938E+03  0.00000000000E+00 0.  1.
         14    1    3    3    0    0 -0.43119835531E+02 -0.71253590191E+01 -0.11922062009E+03  0.12697892429E+03  0.00000000000E+00 0. -1.
         11    1    5    5    0    0 -0.15754223298E+01 -0.37510593522E+02 -0.13946511679E+02  0.40050365415E+02  0.00000000000E+00 0. -1.
        -12    1    5    5    0    0  0.30569547821E+02 -0.44093521461E+02  0.77588078049E+02  0.94332633506E+02  0.00000000000E+00 0.  1.
          5    1    4    4  501    0 -0.56717404780E+02  0.42214081816E+01 -0.75196969184E+02  0.94375531079E+02  0.41800000000E+01 0.  1.
         -5    1    4    4    0  501  0.40968850972E+02  0.94573339415E+02 -0.13750867786E+03  0.17189727213E+03  0.41800000000E+01 0.  1.
</event>
<event>
11    1  0.8041700E-009  0.1382235E+03  0.7561462E-02  0.1109559E+00
         22   -1    0    0    0    0  0.00000000000E+00  0.00000000000E+00  0.11983154139E+03  0.11983154139E+03  0.00000000000E+00 0.  1.
         22   -1    0    0    0    0 -0.00000000000E+00 -0.00000000000E+00 -0.38417586233E+03  0.38417586233E+03  0.00000000000E+00 0.  1.
         24    2    1    2    0    0  0.35393591299E+02 -0.41525178982E+02 -0.21676925413E+03  0.23777733826E+03  0.81068528164E+02 0.  0.
         25    2    1    2    0    0 -0.50985401230E+02  0.55456890479E+02 -0.89972799152E+02  0.17151471366E+03  0.12508882674E+03 0.  0.
        -24    2    1    2    0    0  0.15591809931E+02 -0.13931711498E+02  0.42397732338E+02  0.94715351807E+02  0.82074557802E+02 0.  0.
        -13    1    3    3    0    0  0.27786336837E+02 -0.28451492548E+02 -0.21891684450E+03  0.22249978146E+03  0.00000000000E+00 0.  1.
         14    1    3    3    0    0  0.76072544618E+01 -0.13073686433E+02  0.21475903695E+01  0.15277556801E+02  0.00000000000E+00 0. -1.
         13    1    5    5    0    0 -0.30326841291E+02  0.50443970656E+01  0.22298972861E+01  0.30824271060E+02  0.00000000000E+00 0. -1.
        -14    1    5    5    0    0  0.45918651223E+02 -0.18976108563E+02  0.40167835052E+02  0.63891080747E+02  0.00000000000E+00 0.  1.
          5    1    4    4  501    0 -0.42728564817E+02 -0.31503811079E+02 -0.57129211034E+02  0.78098908554E+02  0.41800000000E+01 0.  1.
         -5    1    4    4    0  501 -0.82568364131E+01  0.86960701559E+02 -0.32843588118E+02  0.93415805106E+02  0.41800000000E+01 0.  1.
</event>
<event>
11    1  0.8041700E-009  0.1436596E+03  0.7561462E-02  0.1103539E+00
         22   -1    0    0    0    0  0.00000000000E+00  0.00000000000E+00  0.37401049898E+03  0.37401049898E+03  0.00000000000E+00 0.  1.
         22   -1    0    0    0    0 -0.00000000000E+00 -0.00000000000E+00 -0.28564142623E+04  0.28564142623E+04  0.00000000000E+00 0.  1.
        -24    2    1    2    0    0  0.46412214301E+02 -0.52547517777E+02 -0.27657660964E+04  0.27679495456E+04  0.84659623844E+02 0.  0.
         25    2    1    2    0    0 -0.90481440217E+02  0.72477898961E+02  0.73276729431E+01  0.17070764424E+03  0.12508984031E+03 0.  0.
         24    2    1    2    0    0  0.44069225917E+02 -0.19930381184E+02  0.27603466015E+03  0.29176757140E+03  0.81202619093E+02 0.  0.
        -13    1    5    5    0    0  0.96393122719E+01 -0.39456592191E+02  0.21649178426E+03  0.22026899841E+03  0.00000000000E+00 0.  1.
         14    1    5    5    0    0  0.34429913645E+02  0.19526211007E+02  0.59542875889E+02  0.71498572986E+02  0.00000000000E+00 0. -1.
         13    1    3    3    0    0 -0.10301403025E+02 -0.47146004023E+02 -0.16767456225E+04  0.16774399384E+04  0.00000000000E+00 0. -1.
        -14    1    3    3    0    0  0.56713617325E+02 -0.54015137537E+01 -0.10890204739E+04  0.10905096072E+04  0.00000000000E+00 0.  1.
          5    1    4    4  501    0 -0.26938307833E+02 -0.35206158770E+02 -0.58588904913E+01  0.44910411288E+02  0.41800000000E+01 0. -1.
         -5    1    4    4    0  501 -0.63543132384E+02  0.10768405773E+03  0.13186563434E+02  0.12579723295E+03  0.41800000000E+01 0. -1.
</event>
<event>
11    1  0.8041700E-009  0.1373942E+03  0.7561462E-02  0.1110504E+00
         22   -1    0    0    0    0  0.00000000000E+00  0.00000000000E+00  0.21807281795E+04  0.21807281795E+04  0.00000000000E+00 0.  1.
         22   -1    0    0    0    0 -0.00000000000E+00 -0.00000000000E+00 -0.12124899493E+03  0.12124899493E+03  0.00000000000E+00 0.  1.
        -24    2    1    2    0    0  0.49797747035E+02 -0.26672509661E+02 -0.94772358241E+02  0.13392170961E+03  0.75907746889E+02 0.  0.
         25    2    1    2    0    0 -0.55916841320E+02  0.53001242009E+02  0.10141486894E+04  0.10247346499E+04  0.12509082241E+03 0.  0.
         24    2    1    2    0    0  0.61190942852E+01 -0.26328732349E+02  0.11401028535E+04  0.11433208149E+04  0.81346934952E+02 0.  0.
        -13    1    5    5    0    0 -0.20472808804E+02 -0.13922343688E+02  0.99358827534E+03  0.99389668902E+03  0.00000000000E+00 0.  1.
         14    1    5    5    0    0  0.26591903089E+02 -0.12406388661E+02  0.14651457815E+03  0.14942412590E+03  0.00000000000E+00 0. -1.
         11    1    3    3    0    0  0.70603315291E+00  0.23325322067E+01  0.12339703231E+02  0.12578054903E+02  0.00000000000E+00 0. -1.
        -12    1    3    3    0    0  0.49091713882E+02 -0.29005041867E+02 -0.10711206147E+03  0.12134365471E+03  0.00000000000E+00 0.  1.
          5    1    4    4  501    0 -0.61460598400E+02  0.77995188022E+02  0.49180467054E+03  0.50174690918E+03  0.41800000000E+01 0.  1.
         -5    1    4    4    0  501  0.55437570801E+01 -0.24993946012E+02  0.52234401883E+03  0.52298774076E+03  0.41800000000E+01 0.  1.
</event>
<event>
11    1  0.8041700E-009  0.1863673E+03  0.7561462E-02  0.1064606E+00
         22   -1    0    0    0    0  0.00000000000E+00  0.00000000000E+00  0.18851648589E+03  0.18851648589E+03  0.00000000000E+00 0.  1.
         22   -1    0    0    0    0 -0.00000000000E+00 -0.00000000000E+00 -0.62071258382E+03  0.62071258382E+03  0.00000000000E+00 0.  1.
         24    2    1    2    0    0  0.41111521421E+01 -0.17893277679E+02 -0.38203434323E+03  0.39010666129E+03  0.76784743400E+02 0.  0.
         25    2    1    2    0    0 -0.88858104596E+02  0.12279001335E+03 -0.13654536386E+03  0.23930242870E+03  0.12509142999E+03 0.  0.
        -24    2    1    2    0    0  0.84746952453E+02 -0.10489673567E+03  0.86383609157E+02  0.17981997972E+03  0.81778518390E+02 0.  0.
        -13    1    3    3    0    0 -0.15217789599E+02  0.24585706932E+02 -0.20478463963E+03  0.20681582805E+03  0.00000000000E+00 0.  1.
         14    1    3    3    0    0  0.19328941741E+02 -0.42478984611E+02 -0.17724970360E+03  0.18329083324E+03  0.00000000000E+00 0. -1.
         13    1    5    5    0    0 -0.68208798695E+01  0.87687869370E+01  0.10613959516E+02  0.15364640027E+02  0.00000000000E+00 0. -1.
        -14    1    5    5    0    0  0.91567832323E+02 -0.11366552261E+03  0.75769649642E+02  0.16445533969E+03  0.00000000000E+00 0.  1.
          5    1    4    4  501    0 -0.49784045595E+02  0.14004278580E+03 -0.81680122679E+02  0.16964535918E+03  0.41800000000E+01 0.  1.
         -5    1    4    4    0  501 -0.39074059001E+02 -0.17252772446E+02 -0.54865241186E+02  0.69657069521E+02  0.41800000000E+01 0.  1.
</event>
<event>
11    1  0.8041700E-009  0.1782696E+03  0.7561462E-02  0.1071051E+00
         22   -1    0    0    0    0  0.00000000000E+00  0.00000000000E+00  0.26909115535E+04  0.26909115535E+04  0.00000000000E+00 0.  1.
         22   -1    0    0    0    0 -0.00000000000E+00 -0.00000000000E+00 -0.14681635308E+04  0.14681635308E+04  0.00000000000E+00 0.  1.
         24    2    1    2    0    0 -0.66737886078E+02 -0.27853327247E+01 -0.14396224785E+04  0.14433769896E+04  0.79765594116E+02 0.  0.
         25    2    1    2    0    0  0.11721602516E+03 -0.11122567582E+03  0.40594444372E+03  0.45447827673E+03  0.12509542405E+03 0.  0.
        -24    2    1    2    0    0 -0.50478139084E+02  0.11401100855E+03  0.22564260574E+04  0.22612198180E+04  0.78166234610E+02 0.  0.
        -13    1    3    3    0    0 -0.76564763243E+02 -0.15904983483E+02 -0.86686723909E+03  0.87038723662E+03  0.00000000000E+00 0.  1.
         14    1    3    3    0    0  0.98268771657E+01  0.13119650759E+02 -0.57275523939E+03  0.57298975296E+03  0.00000000000E+00 0. -1.
         11    1    5    5    0    0 -0.48920018869E+02  0.21434113608E+02  0.69353431885E+03  0.69558783838E+03  0.00000000000E+00 0. -1.
        -12    1    5    5    0    0 -0.15581202149E+01  0.92576894940E+02  0.15628917385E+04  0.15656319796E+04  0.00000000000E+00 0.  1.
          5    1    4    4  501    0  0.74089519737E+02 -0.94152137690E+02  0.38533210346E+03  0.40354948187E+03  0.41800000000E+01 0.  1.
         -5    1    4    4    0  501  0.43126505425E+02 -0.17073538134E+02  0.20612340260E+02  0.50928794857E+02  0.41800000000E+01 0.  1.
</event>
<event>
11    1  0.8041700E-009  0.1404802E+03  0.7561462E-02  0.1107023E+00
         22   -1    0    0    0    0  0.00000000000E+00  0.00000000000E+00  0.23741262891E+03  0.23741262891E+03  0.00000000000E+00 0.  1.
         22   -1    0    0    0    0 -0.00000000000E+00 -0.00000000000E+00 -0.12528984079E+04  0.12528984079E+04  0.00000000000E+00 0.  1.
        -24    2    1    2    0    0 -0.52207695003E+02  0.16155547866E+02 -0.68276227488E+03  0.68960384506E+03  0.80015585811E+02 0.  0.
         25    2    1    2    0    0  0.83766945084E+02 -0.45654639486E+02 -0.54626431797E+03  0.56846240737E+03  0.12507420324E+03 0.  0.
         24    2    1    2    0    0 -0.31559250080E+02  0.29499091620E+02  0.21354081388E+03  0.23224478436E+03  0.80447361665E+02 0.  0.
        -13    1    5    5    0    0 -0.47072488216E+02  0.21276289782E+01  0.18079216463E+03  0.18683188363E+03  0.00000000000E+00 0.  1.
         14    1    5    5    0    0  0.15513238135E+02  0.27371462642E+02  0.32748649253E+02  0.45412900727E+02  0.00000000000E+00 0. -1.
         13    1    3    3    0    0 -0.47074867349E+02  0.33403646215E+02 -0.25450572417E+03  0.26096936669E+03  0.00000000000E+00 0. -1.
        -14    1    3    3    0    0 -0.51328276541E+01 -0.17248098349E+02 -0.42825655071E+03  0.42863447836E+03  0.00000000000E+00 0.  1.
          5    1    4    4  501    0  0.77674202140E+01 -0.45492055983E+02 -0.57698086387E+02  0.74002713106E+02  0.41800000000E+01 0. -1.
         -5    1    4    4    0  501  0.75999524870E+02 -0.16258350329E+00 -0.48856623158E+03  0.49445969427E+03  0.41800000000E+01 0. -1.
</event>
<event>
11    1  0.8041700E-009  0.1478437E+03  0.7561462E-02  0.1099103E+00
         22   -1    0    0    0    0  0.00000000000E+00  0.00000000000E+00  0.16990169404E+04  0.16990169404E+04  0.00000000000E+00 0.  1.
         22   -1    0    0    0    0 -0.00000000000E+00 -0.00000000000E+00 -0.12930577841E+03  0.12930577841E+03  0.00000000000E+00 0. -1.
        -24    2    1    2    0    0  0.32105006583E+02  0.72022846994E+02 -0.63728062193E+02  0.12905707063E+03  0.79852611935E+02 0.  0.
         25    2    1    2    0    0 -0.25773257369E+02 -0.74460769533E+02  0.13988097925E+03  0.20352585255E+03  0.12508963707E+03 0.  0.
         24    2    1    2    0    0 -0.63317492145E+01  0.24379225395E+01  0.14935582450E+04  0.14957397957E+04  0.80469066884E+02 0.  0.
        -13    1    5    5    0    0 -0.33988227911E+01  0.36200780005E+02  0.11353213930E+04  0.11359034792E+04  0.00000000000E+00 0.  1.
         14    1    5    5    0    0 -0.29329264234E+01 -0.33762857466E+02  0.35823685193E+03  0.35983631652E+03  0.00000000000E+00 0. -1.
         11    1    3    3    0    0  0.20364326185E+02  0.48913768882E+02 -0.81798770451E+02  0.97459229499E+02  0.00000000000E+00 0. -1.
        -12    1    3    3    0    0  0.11740680399E+02  0.23109078112E+02  0.18070708258E+02  0.31597841134E+02  0.00000000000E+00 0.  1.
          5    1    4    4  501    0 -0.53112663719E+02 -0.26754079579E+02  0.13570633261E+03  0.14822421170E+03  0.41800000000E+01 0. -1.
         -5    1    4    4    0  501  0.27339406350E+02 -0.47706689954E+02  0.41746466370E+01  0.55301640848E+02  0.41800000000E+01 0. -1.
</event>
<event>
11    1  0.8041700E-009  0.1960068E+03  0.7561462E-02  0.1057384E+00
         22   -1    0    0    0    0  0.00000000000E+00  0.00000000000E+00  0.34326736333E+04  0.34326736333E+04  0.00000000000E+00 0.  1.
         22   -1    0    0    0    0 -0.00000000000E+00 -0.00000000000E+00 -0.10682258298E+04  0.10682258298E+04  0.00000000000E+00 0. -1.
         24    2    1    2    0    0 -0.24440412755E+02  0.12675018641E+03 -0.10460673089E+04  0.10571316669E+04  0.81287161852E+02 0.  0.
         25    2    1    2    0    0 -0.13080360427E+03 -0.10515904683E+03  0.78759127590E+03  0.81493265227E+03  0.12508877587E+03 0.  0.
        -24    2    1    2    0    0  0.15524401703E+03 -0.21591139581E+02  0.26229238365E+04  0.26288351440E+04  0.80485279038E+02 0.  0.
        -13    1    3    3    0    0 -0.32570256274E+01 -0.83961936538E+01 -0.18913482929E+03  0.18934911654E+03  0.00000000000E+00 0.  1.
         14    1    3    3    0    0 -0.21183387128E+02  0.13514638006E+03 -0.85693247966E+03  0.86778255031E+03  0.00000000000E+00 0. -1.
         11    1    5    5    0    0  0.79023557418E+02 -0.36200383789E+00  0.73129915440E+03  0.73555646071E+03  0.00000000000E+00 0. -1.
        -12    1    5    5    0    0  0.76220459609E+02 -0.21229135743E+02  0.18916246821E+04  0.18932786833E+04  0.00000000000E+00 0.  1.
          5    1    4    4  501    0 -0.58532528378E+02 -0.46147191221E+02  0.12352942211E+03  0.14433506388E+03  0.41800000000E+01 0.  1.
         -5    1    4    4    0  501 -0.72271075893E+02 -0.59011855607E+02  0.66406185379E+03  0.67059758840E+03  0.41800000000E+01 0.  1.
</event>
<event>
11    1  0.8041700E-009  0.1320319E+03  0.7561462E-02  0.1116797E+00
         22   -1    0    0    0    0  0.00000000000E+00  0.00000000000E+00  0.19838775393E+02  0.19838775393E+02  0.00000000000E+00 0. -1.
         22   -1    0    0    0    0 -0.00000000000E+00 -0.00000000000E+00 -0.20424157173E+04  0.20424157173E+04  0.00000000000E+00 0. -1.
         24    2    1    2    0    0 -0.19592068888E+02  0.34543295756E+02 -0.10718992298E+04  0.10754577420E+04  0.77873663450E+02 0.  0.
         25    2    1    2    0    0  0.67058521723E+00 -0.55086603079E+02 -0.82249945586E+03  0.83377949904E+03  0.12509162488E+03 0.  0.
        -24    2    1    2    0    0  0.18921483670E+02  0.20543307323E+02 -0.12817825630E+03  0.15301725173E+03  0.78769054336E+02 0.  0.
        -13    1    3    3    0    0 -0.11110471390E+02  0.45731275619E+02 -0.32140574594E+03  0.32483295040E+03  0.00000000000E+00 0.  1.
         14    1    3    3    0    0 -0.84815974975E+01 -0.11187979863E+02 -0.75049348386E+03  0.75062479156E+03  0.00000000000E+00 0. -1.
         13    1    5    5    0    0 -0.85605022304E+01  0.37619630590E+01  0.84759734386E+01  0.12620486925E+02  0.00000000000E+00 0. -1.
        -14    1    5    5    0    0  0.27481985901E+02  0.16781344264E+02 -0.13665422974E+03  0.14039676481E+03  0.00000000000E+00 0.  1.
          5    1    4    4  501    0 -0.36287630604E+02 -0.60665395792E+02 -0.24424661598E+03  0.25430486468E+03  0.41800000000E+01 0.  1.
         -5    1    4    4    0  501  0.36958215821E+02  0.55787927122E+01 -0.57825283988E+03  0.57947463436E+03  0.41800000000E+01 0.  1.
</event>
<event>
11    1  0.8041700E-009  0.1450829E+03  0.7561462E-02  0.1102012E+00
         22   -1    0    0    0    0  0.00000000000E+00  0.00000000000E+00  0.16196186541E+03  0.16196186541E+03  0.00000000000E+00 0. -1.
         22   -1    0    0    0    0 -0.00000000000E+00 -0.00000000000E+00 -0.61334270749E+03  0.61334270749E+03  0.00000000000E+00 0.  1.
         24    2    1    2    0    0 -0.24870314531E+02 -0.72816315150E+02 -0.45099751478E+03  0.46467171855E+03  0.81242226611E+02 0.  0.
         25    2    1    2    0    0  0.11091168368E+02  0.56008876111E+02 -0.10789269572E+03  0.17477795183E+03  0.12508593222E+03 0.  0.
        -24    2    1    2    0    0  0.13779146163E+02  0.16807439039E+02  0.10750936842E+03  0.13585490253E+03  0.80161932149E+02 0.  0.
        -13    1    3    3    0    0 -0.34872191289E+01  0.99952646646E+01 -0.18412533852E+03  0.18442940736E+03  0.00000000000E+00 0.  1.
         14    1    3    3    0    0 -0.21383095402E+02 -0.82811579815E+02 -0.26687217626E+03  0.28024231119E+03  0.00000000000E+00 0. -1.
         13    1    5    5    0    0 -0.12974178309E+02 -0.22585749828E+02  0.71669028256E+02  0.76255458882E+02  0.00000000000E+00 0. -1.
        -14    1    5    5    0    0  0.26753324472E+02  0.39393188868E+02  0.35840340164E+02  0.59599443643E+02  0.00000000000E+00 0.  1.
          5    1    4    4  501    0 -0.45956314306E+02  0.63392324388E+02 -0.49629171114E+02  0.92795994748E+02  0.41800000000E+01 0.  1.
         -5    1    4    4    0  501  0.57047482674E+02 -0.73834482764E+01 -0.58263524604E+02  0.81981957083E+02  0.41800000000E+01 0.  1.
</event>
<event>
11    1  0.8041700E-009  0.1363778E+03  0.7561462E-02  0.1111672E+00
         22   -1    0    0    0    0  0.00000000000E+00  0.00000000000E+00  0.31438945529E+03  0.31438945529E+03  0.00000000000E+00 0. -1.
         22   -1    0    0    0    0 -0.00000000000E+00 -0.00000000000E+00 -0.33094968465E+03  0.33094968465E+03  0.00000000000E+00 0.  1.
         24    2    1    2    0    0  0.16668875900E+01 -0.46772844547E+02 -0.16013472980E+03  0.18537721289E+03  0.80815232906E+02 0.  0.
         25    2    1    2    0    0  0.14308875418E+02  0.96042777466E+02 -0.10706209395E+03  0.19115037512E+03  0.12508882815E+03 0.  0.
        -24    2    1    2    0    0 -0.15975763008E+02 -0.49269932919E+02  0.25063659439E+03  0.26881155193E+03  0.82208252090E+02 0.  0.
        -11    1    3    3    0    0 -0.64041277937E+01 -0.63697444369E+02 -0.15201273487E+03  0.16494316850E+03  0.00000000000E+00 0.  1.
         12    1    3    3    0    0  0.80710153837E+01  0.16924599822E+02 -0.81219949259E+01  0.20434044387E+02  0.00000000000E+00 0. -1.
         13    1    5    5    0    0 -0.16726878636E+02 -0.61139787262E+02  0.10471068471E+03  0.12240175468E+03  0.00000000000E+00 0. -1.
        -14    1    5    5    0    0  0.75111562769E+00  0.11869854343E+02  0.14592590968E+03  0.14640979726E+03  0.00000000000E+00 0.  1.
          5    1    4    4  501    0 -0.11523472892E+02  0.12020588534E+03 -0.94454967636E+02  0.15336707146E+03  0.41800000000E+01 0.  1.
         -5    1    4    4    0  501  0.25832348310E+02 -0.24163107874E+02 -0.12607126315E+02  0.37783303657E+02  0.41800000000E+01 0.  1.
</event>
<event>
11    1  0.8041700E-009  0.1552903E+03  0.7561462E-02  0.1091592E+00
         22   -1    0    0    0    0  0.00000000000E+00  0.00000000000E+00  0.10499392025E+04  0.10499392025E+04  0.00000000000E+00 0. -1.
         22   -1    0    0    0    0 -0.00000000000E+00 -0.00000000000E+00 -0.69901817778E+03  0.69901817778E+03  0.00000000000E+00 0.  1.
        -24    2    1    2    0    0 -0.19717995795E+02  0.89562855505E+02 -0.63655399053E+03  0.64848495324E+03  0.83195235919E+02 0.  0.
         25    2    1    2    0    0 -0.24949402196E+02 -0.10679668818E+03  0.73949522149E+02  0.18203775609E+03  0.12506481336E+03 0.  0.
         24    2    1    2    0    0  0.44667397991E+02  0.17233832670E+02  0.91352549308E+03  0.91843467092E+03  0.81861082389E+02 0.  0.
        -11    1    5    5    0    0  0.11446131246E+01  0.69691032619E+00 -0.16217869804E+01  0.21038099291E+01  0.00000000000E+00 0.  1.
         12    1    5    5    0    0  0.43522784867E+02  0.16536922344E+02  0.91514728006E+03  0.91633086099E+03  0.00000000000E+00 0. -1.
         11    1    3    3    0    0 -0.37900975228E+02  0.33894735966E+02 -0.14922257658E+03  0.15764743705E+03  0.00000000000E+00 0. -1.
        -12    1    3    3    0    0  0.18182979432E+02  0.55668119540E+02 -0.48733141395E+03  0.49083751619E+03  0.00000000000E+00 0.  1.
          5    1    4    4  501    0 -0.45562585243E+02 -0.11529379365E+02 -0.15511971002E+02  0.49668595781E+02  0.41800000000E+01 0. -1.
         -5    1    4    4    0  501  0.20613183047E+02 -0.95267308810E+02  0.89461493150E+02  0.13236916031E+03  0.41800000000E+01 0. -1.
</event>
<event>
11    1  0.8041700E-009  0.1778336E+03  0.7561462E-02  0.1071409E+00
         22   -1    0    0    0    0  0.00000000000E+00  0.00000000000E+00  0.12803108127E+03  0.12803108127E+03  0.00000000000E+00 0.  1.
         22   -1    0    0    0    0 -0.00000000000E+00 -0.00000000000E+00 -0.13658811058E+04  0.13658811058E+04  0.00000000000E+00 0. -1.
        -24    2    1    2    0    0  0.86100197232E+02 -0.90946692118E+02 -0.11827364699E+04  0.11922004016E+04  0.82411744971E+02 0.  0.
         25    2    1    2    0    0 -0.90889613288E+02  0.12230584743E+03  0.51012233291E+01  0.19721087883E+03  0.12508583505E+03 0.  0.
         24    2    1    2    0    0  0.47894160563E+01 -0.31359155315E+02 -0.60214777948E+02  0.10450090657E+03  0.79298706561E+02 0.  0.
        -11    1    5    5    0    0  0.41921575046E+02 -0.20144465084E+02 -0.35458799153E+02  0.58485420108E+02  0.00000000000E+00 0.  1.
         12    1    5    5    0    0 -0.37132158990E+02 -0.11214690232E+02 -0.24755978795E+02  0.46015486462E+02  0.00000000000E+00 0. -1.
         13    1    3    3    0    0  0.86591907489E+02 -0.97192472189E+02 -0.11752559894E+04  0.11824428847E+04  0.00000000000E+00 0. -1.
        -14    1    3    3    0    0 -0.49171025737E+00  0.62457800715E+01 -0.74804805324E+01  0.97575169319E+01  0.00000000000E+00 0.  1.
          5    1    4    4  501    0 -0.29992075233E+02  0.80986706652E+02  0.60052044988E+02  0.10527151437E+03  0.41800000000E+01 0. -1.
         -5    1    4    4    0  501 -0.60897538055E+02  0.41319140781E+02 -0.54950821659E+02  0.91939364459E+02  0.41800000000E+01 0. -1.
</event>
<event>
11    1  0.8041700E-009  0.1414725E+03  0.7561462E-02  0.1105925E+00
         22   -1    0    0    0    0  0.00000000000E+00  0.00000000000E+00  0.72164755830E+03  0.72164755830E+03  0.00000000000E+00 0.  1.
         22   -1    0    0    0    0 -0.00000000000E+00 -0.00000000000E+00 -0.48119264624E+03  0.48119264624E+03  0.00000000000E+00 0.  1.
        -24    2    1    2    0    0 -0.56138446361E+02  0.62540751048E+01 -0.34989976919E+03  0.36336652866E+03  0.80092116087E+02 0.  0.
         25    2    1    2    0    0  0.74511055043E+02  0.56896715312E+02 -0.69730278431E+02  0.17115725083E+03  0.12507341542E+03 0.  0.
         24    2    1    2    0    0 -0.18372608681E+02 -0.63150790417E+02  0.66008495968E+03  0.66831642505E+03  0.81296463084E+02 0.  0.
        -11    1    5    5    0    0 -0.10711988882E+02 -0.39907723842E+02  0.61983202219E+03  0.62120778236E+03  0.00000000000E+00 0.  1.
         12    1    5    5    0    0 -0.76606197989E+01 -0.23243066574E+02  0.40252937493E+02  0.47108642692E+02  0.00000000000E+00 0. -1.
         13    1    3    3    0    0 -0.38469375557E+02 -0.21599094396E+01 -0.51461048594E+02  0.64286838365E+02  0.00000000000E+00 0. -1.
        -14    1    3    3    0    0 -0.17669070804E+02  0.84139845444E+01 -0.29843872059E+03  0.29907969030E+03  0.00000000000E+00 0.  1.
          5    1    4    4  501    0  0.32387697069E+02 -0.36314466041E+02 -0.43680431355E+02  0.65522178296E+02  0.41800000000E+01 0. -1.
         -5    1    4    4    0  501  0.42123357974E+02  0.93211181353E+02 -0.26049847076E+02  0.10563507253E+03  0.41800000000E+01 0. -1.
</event>
<event>
11    1  0.8041700E-009  0.1543962E+03  0.7561462E-02  0.1092470E+00
         22   -1    0    0    0    0  0.00000000000E+00  0.00000000000E+00  0.88890293615E+03  0.88890293615E+03  0.00000000000E+00 0.  1.
         22   -1    0    0    0    0 -0.00000000000E+00 -0.00000000000E+00 -0.86518507802E+03  0.86518507802E+03  0.00000000000E+00 0.  1.
        -24    2    1    2    0    0  0.27898199049E+02  0.33149285830E+01 -0.84009936485E+03  0.84464476143E+03  0.82876606628E+02 0.  0.
         25    2    1    2    0    0  0.56087367295E+02 -0.52730440401E+02  0.33089461983E+03  0.36202895627E+03  0.12508966235E+03 0.  0.
         24    2    1    2    0    0 -0.83985566345E+02  0.49415511818E+02  0.53292260316E+03  0.54741429647E+03  0.78488488696E+02 0.  0.
        -13    1    5    5    0    0 -0.80247315409E+02  0.37325654661E+02  0.52516681448E+03  0.53257207884E+03  0.00000000000E+00 0.  1.
         14    1    5    5    0    0 -0.37382509359E+01  0.12089857157E+02  0.77557886761E+01  0.14842217628E+02  0.00000000000E+00 0. -1.
         13    1    3    3    0    0  0.29653887503E+02 -0.15324673278E+02 -0.12742259449E+03  0.13172211751E+03  0.00000000000E+00 0. -1.
        -14    1    3    3    0    0 -0.17556884535E+01  0.18639601861E+02 -0.71267677037E+03  0.71292264392E+03  0.00000000000E+00 0.  1.
          5    1    4    4  501    0  0.69493548937E+02  0.15501230896E+02  0.11648360815E+03  0.13658530254E+03  0.41800000000E+01 0. -1.
         -5    1    4    4    0  501 -0.13406181642E+02 -0.68231671297E+02  0.21441101169E+03  0.22544365373E+03  0.41800000000E+01 0. -1.
</event>
<event>
11    1  0.8041700E-009  0.2483632E+03  0.7561462E-02  0.1024775E+00
         22   -1    0    0    0    0  0.00000000000E+00  0.00000000000E+00  0.43133146155E+03  0.43133146155E+03  0.00000000000E+00 0. -1.
         22   -1    0    0    0    0 -0.00000000000E+00 -0.00000000000E+00 -0.23625778851E+04  0.23625778851E+04  0.00000000000E+00 0. -1.
         24    2    1    2    0    0  0.44951763763E+02  0.91975688478E+02 -0.18659436211E+04  0.18704488637E+04  0.79706752686E+02 0.  0.
         25    2    1    2    0    0  0.22399538109E+02  0.11901770687E+03 -0.44418115175E+03  0.47708263857E+03  0.12507595533E+03 0.  0.
        -24    2    1    2    0    0 -0.67351301871E+02 -0.21099339535E+03  0.37887834926E+03  0.44637784437E+03  0.81547321631E+02 0.  0.
        -11    1    3    3    0    0 -0.91129261397E+01 -0.60279819998E+01 -0.56499424277E+02  0.57546215631E+02  0.00000000000E+00 0.  1.
         12    1    3    3    0    0  0.54064689903E+02  0.98003670478E+02 -0.18094441968E+04  0.18129026481E+04  0.00000000000E+00 0. -1.
         11    1    5    5    0    0 -0.72877941251E+02 -0.13742971942E+03  0.20373316860E+03  0.25633050167E+03  0.00000000000E+00 0. -1.
        -12    1    5    5    0    0  0.55266393794E+01 -0.73563675934E+02  0.17514518065E+03  0.19004734270E+03  0.00000000000E+00 0.  1.
          5    1    4    4  501    0 -0.44277484926E+02  0.76958816355E+02 -0.17097623550E+03  0.19270054643E+03  0.41800000000E+01 0.  1.
         -5    1    4    4    0  501  0.66677023035E+02  0.42058890520E+02 -0.27320491624E+03  0.28438209214E+03  0.41800000000E+01 0.  1.
</event>
<event>
11    1  0.8041700E-009  0.2502147E+03  0.7561462E-02  0.1023785E+00
         22   -1    0    0    0    0  0.00000000000E+00  0.00000000000E+00  0.62777732207E+03  0.62777732207E+03  0.00000000000E+00 0. -1.
         22   -1    0    0    0    0 -0.00000000000E+00 -0.00000000000E+00 -0.48019474592E+03  0.48019474592E+03  0.00000000000E+00 0.  1.
         24    2    1    2    0    0  0.22102833205E+03 -0.50247153203E+02 -0.36029969850E+03  0.43354834835E+03  0.82279995415E+02 0.  0.
         25    2    1    2    0    0 -0.17786095544E+03  0.38102519313E+01  0.76922829972E+02  0.23068197237E+03  0.12509201860E+03 0.  0.
        -24    2    1    2    0    0 -0.43167376614E+02  0.46436901272E+02  0.43095944467E+03  0.44374174727E+03  0.84622024977E+02 0.  0.
        -11    1    3    3    0    0  0.89295818571E+02 -0.80240492807E+00 -0.79905963515E+02  0.11983050560E+03  0.00000000000E+00 0.  1.
         12    1    3    3    0    0  0.13173251348E+03 -0.49444748275E+02 -0.28039373499E+03  0.31371784275E+03  0.00000000000E+00 0. -1.
         13    1    5    5    0    0 -0.61049582329E+02  0.55419158602E+02  0.29456158574E+03  0.30588374006E+03  0.00000000000E+00 0. -1.
        -14    1    5    5    0    0  0.17882205716E+02 -0.89822573303E+01  0.13639785894E+03  0.13785800721E+03  0.00000000000E+00 0.  1.
          5    1    4    4  501    0 -0.68205220861E+02 -0.57877685168E+02  0.16546046440E+02  0.91066034535E+02  0.41800000000E+01 0. -1.
         -5    1    4    4    0  501 -0.10965573457E+03  0.61687937099E+02  0.60376783532E+02  0.13961593784E+03  0.41800000000E+01 0. -1.
</event>
<event>
11    1  0.8041700E-009  0.1297961E+03  0.7561462E-02  0.1119520E+00
         22   -1    0    0    0    0  0.00000000000E+00  0.00000000000E+00  0.82690247286E+02  0.82690247286E+02  0.00000000000E+00 0. -1.
         22   -1    0    0    0    0 -0.00000000000E+00 -0.00000000000E+00 -0.75003355318E+03  0.75003355318E+03  0.00000000000E+00 0. -1.
         24    2    1    2    0    0 -0.26612887564E+02  0.12394633907E+01 -0.27241832896E+03  0.28538482990E+03  0.80764925110E+02 0.  0.
         25    2    1    2    0    0  0.59602607917E+02 -0.15606623812E+01 -0.43138892051E+03  0.45309991434E+03  0.12509286587E+03 0.  0.
        -24    2    1    2    0    0 -0.32989720352E+02  0.32119899051E+00  0.36463943579E+02  0.94239056233E+02  0.80392510352E+02 0.  0.
        -11    1    3    3    0    0 -0.24877189325E+02  0.21297758225E+02 -0.38256222229E+02  0.50358788640E+02  0.00000000000E+00 0.  1.
         12    1    3    3    0    0 -0.17356982397E+01 -0.20058294834E+02 -0.23416210673E+03  0.23502604126E+03  0.00000000000E+00 0. -1.
         11    1    5    5    0    0 -0.57276341213E+02 -0.10398931621E+02  0.34387171727E+02  0.67610610269E+02  0.00000000000E+00 0. -1.
        -12    1    5    5    0    0  0.24286620860E+02  0.10720130611E+02  0.20767718514E+01  0.26628445964E+02  0.00000000000E+00 0.  1.
          5    1    4    4  501    0 -0.58046100697E+01  0.21327323366E+02 -0.77227434724E+01  0.23783636954E+02  0.41800000000E+01 0.  1.
         -5    1    4    4    0  501  0.65407217986E+02 -0.22887985748E+02 -0.42366617704E+03  0.42931627738E+03  0.41800000000E+01 0.  1.
</event>
<event>
11    1  0.8041700E-009  0.3323470E+03  0.7561462E-02  0.9873603E-01
         22   -1    0    0    0    0  0.00000000000E+00  0.00000000000E+00  0.41855740899E+03  0.41855740899E+03  0.00000000000E+00 0. -1.
         22   -1    0    0    0    0 -0.00000000000E+00 -0.00000000000E+00 -0.15508643120E+04  0.15508643120E+04  0.00000000000E+00 0.  1.
        -24    2    1    2    0    0  0.11492129167E+03 -0.17940080716E+03 -0.12424797850E+04  0.12630763507E+04  0.78830823688E+02 0.  0.
         25    2    1    2    0    0  0.22304808410E+03 -0.74098763653E+02  0.22704745367E+02  0.26721624372E+03  0.12509172974E+03 0.  0.
         24    2    1    2    0    0 -0.33796937577E+03  0.25349957081E+03  0.87468136620E+02  0.43912912653E+03  0.81843652704E+02 0.  0.
        -11    1    5    5    0    0 -0.11285527747E+03  0.39372269242E+02  0.28877916978E+02  0.12296513053E+03  0.00000000000E+00 0.  1.
         12    1    5    5    0    0 -0.22511409830E+03  0.21412730157E+03  0.58590219642E+02  0.31616399601E+03  0.00000000000E+00 0. -1.
         13    1    3    3    0    0  0.59656512265E+02 -0.65120445862E+02 -0.32226384284E+03  0.33414601049E+03  0.00000000000E+00 0. -1.
        -14    1    3    3    0    0  0.55264779407E+02 -0.11428036130E+03 -0.92021594212E+03  0.92893034021E+03  0.00000000000E+00 0.  1.
          5    1    4    4  501    0  0.22173843653E+02 -0.60797562222E+02  0.34811552419E+01  0.64943157886E+02  0.41800000000E+01 0. -1.
         -5    1    4    4    0  501  0.20087424044E+03 -0.13301201431E+02  0.19223590125E+02  0.20227308583E+03  0.41800000000E+01 0. -1.
</event>
<event>
11    1  0.1242503E-008  0.1582343E+03  0.7561462E-02  0.1088750E+00
         22   -1    0    0    0    0  0.00000000000E+00  0.00000000000E+00  0.93362944025E+03  0.93362944025E+03  0.00000000000E+00 0.  1.
         22   -1    0    0    0    0 -0.00000000000E+00 -0.00000000000E+00 -0.10440940508E+04  0.10440940508E+04  0.00000000000E+00 0.  1.
         24    2    1    2    0    0  0.11515264753E+02 -0.12122823818E+02 -0.77143327937E+03  0.77589345106E+03  0.81374312226E+02 0.  0.
         25    2    1    2    0    0 -0.12460600027E+02  0.10882474751E+03 -0.24019732956E+03  0.29213250169E+03  0.12509416130E+03 0.  0.
        -24    2    1    2    0    0  0.94533527454E+00 -0.96701923693E+02  0.90116599841E+03  0.90969753828E+03  0.78085201897E+02 0.  0.
        -13    1    3    3    0    0  0.10375921958E+02  0.88873368299E+01 -0.72248779776E+03  0.72261695415E+03  0.00000000000E+00 0.  1.
         14    1    3    3    0    0  0.11393427951E+01 -0.21010160648E+02 -0.48945481612E+02  0.53276496907E+02  0.00000000000E+00 0. -1.
         11    1    5    5    0    0  0.23651903497E+02  0.41970667673E+00  0.13357049790E+03  0.13564905677E+03  0.00000000000E+00 0. -1.
        -12    1    5    5    0    0 -0.22706568223E+02 -0.97121630370E+02  0.76759550051E+03  0.77404848151E+03  0.00000000000E+00 0.  1.
          5    1    4    4  501    0  0.23997830912E+02  0.59674976164E+02 -0.21730324081E+03  0.22666091312E+03  0.41800000000E+01 0.  1.
         -5    1    4    4    0  501 -0.36458430940E+02  0.49149771348E+02 -0.22894088743E+02  0.65471588567E+02  0.41800000000E+01 0.  1.
</event>
<event>
11    1  0.8041700E-009  0.1514423E+03  0.7561462E-02  0.1095414E+00
         22   -1    0    0    0    0  0.00000000000E+00  0.00000000000E+00  0.11794042395E+03  0.11794042395E+03  0.00000000000E+00 0.  1.
         22   -1    0    0    0    0 -0.00000000000E+00 -0.00000000000E+00 -0.31618052986E+04  0.31618052986E+04  0.00000000000E+00 0. -1.
         24    2    1    2    0    0 -0.38425907478E+02 -0.14082878200E+02 -0.29001647470E+04  0.29015690437E+04  0.80451711228E+02 0.  0.
         25    2    1    2    0    0 -0.22772447106E+02  0.76782342224E+02 -0.19852208924E+03  0.24793732883E+03  0.12509111354E+03 0.  0.
        -24    2    1    2    0    0  0.61198354584E+02 -0.62699464024E+02  0.54821961555E+02  0.13023935004E+03  0.79248845024E+02 0.  0.
        -13    1    3    3    0    0 -0.72421534067E+01  0.10897630939E+02 -0.75755499355E+02  0.76877193163E+02  0.00000000000E+00 0.  1.
         14    1    3    3    0    0 -0.31183754071E+02 -0.24980509139E+02 -0.28244092476E+04  0.28246918505E+04  0.00000000000E+00 0. -1.
         13    1    5    5    0    0  0.17852937902E+02 -0.17685955864E+02 -0.20456352807E+02  0.32403438038E+02  0.00000000000E+00 0. -1.
        -14    1    5    5    0    0  0.43345416683E+02 -0.45013508160E+02  0.75278314361E+02  0.97835912002E+02  0.00000000000E+00 0.  1.
          5    1    4    4  501    0  0.29543169380E+02 -0.36982045749E+01 -0.31656796001E+01  0.30231928510E+02  0.41800000000E+01 0. -1.
         -5    1    4    4    0  501 -0.52315616486E+02  0.80480546799E+02 -0.19535640964E+03  0.21770540032E+03  0.41800000000E+01 0. -1.
</event>
<event>
11    1  0.8041700E-009  0.2179196E+03  0.7561462E-02  0.1042529E+00
         22   -1    0    0    0    0  0.00000000000E+00  0.00000000000E+00  0.11339516513E+03  0.11339516513E+03  0.00000000000E+00 0.  1.
         22   -1    0    0    0    0 -0.00000000000E+00 -0.00000000000E+00 -0.70951869882E+03  0.70951869882E+03  0.00000000000E+00 0.  1.
         24    2    1    2    0    0 -0.67239564606E+02 -0.22745752843E+02 -0.14208777413E+03  0.17863738967E+03  0.81754835389E+02 0.  0.
         25    2    1    2    0    0 -0.12659340535E+03  0.10636529170E+03 -0.11872777075E+03  0.23892042943E+03  0.12508885840E+03 0.  0.
        -24    2    1    2    0    0  0.19383296996E+03 -0.83619538854E+02 -0.33530798881E+03  0.40535604485E+03  0.85548981367E+02 0.  0.
        -11    1    3    3    0    0 -0.58559331873E+02 -0.35929916425E+02 -0.14686913028E+03  0.16214405840E+03  0.00000000000E+00 0.  1.
         12    1    3    3    0    0 -0.86802327334E+01  0.13184163582E+02  0.47813561550E+01  0.16493331269E+02  0.00000000000E+00 0. -1.
         11    1    5    5    0    0  0.16268077264E+03 -0.77987585631E+02 -0.21357239668E+03  0.27957157567E+03  0.00000000000E+00 0. -1.
        -12    1    5    5    0    0  0.31152197318E+02 -0.56319532231E+01 -0.12173559213E+03  0.12578446917E+03  0.00000000000E+00 0.  1.
          5    1    4    4  501    0 -0.56083649864E+02  0.11782052514E+03 -0.10136996581E+03  0.16528882084E+03  0.41800000000E+01 0. -1.
         -5    1    4    4    0  501 -0.70509755486E+02 -0.11455233439E+02 -0.17357804940E+02  0.73631608594E+02  0.41800000000E+01 0. -1.
</event>
<event>
11    1  0.8041700E-009  0.1432461E+03  0.7561462E-02  0.1103987E+00
         22   -1    0    0    0    0  0.00000000000E+00  0.00000000000E+00  0.13798727813E+03  0.13798727813E+03  0.00000000000E+00 0. -1.
         22   -1    0    0    0    0 -0.00000000000E+00 -0.00000000000E+00 -0.36568284113E+03  0.36568284113E+03  0.00000000000E+00 0. -1.
        -24    2    1    2    0    0  0.20480666418E+02  0.57635548355E+02 -0.19089522238E+03  0.21745719178E+03  0.84293120703E+02 0.  0.
         25    2    1    2    0    0 -0.30618319024E+01 -0.10776389769E+03 -0.76092540861E+02  0.18182458213E+03  0.12509065285E+03 0.  0.
         24    2    1    2    0    0 -0.17418834515E+02  0.50128349338E+02  0.39292200240E+02  0.10438834535E+03  0.80850370700E+02 0.  0.
        -11    1    5    5    0    0  0.25108351659E+02  0.17742375944E+02 -0.93291915159E+01  0.32128726111E+02  0.00000000000E+00 0.  1.
         12    1    5    5    0    0 -0.42527186174E+02  0.32385973394E+02  0.48621391756E+02  0.72259619241E+02  0.00000000000E+00 0. -1.
         13    1    3    3    0    0  0.16736653282E+02  0.40261334725E+02 -0.19449578601E+03  0.19932310807E+03  0.00000000000E+00 0. -1.
        -14    1    3    3    0    0  0.37440131358E+01  0.17374213630E+02  0.36005636230E+01  0.18134083711E+02  0.00000000000E+00 0.  1.
          5    1    4    4  501    0  0.14255391254E+02  0.23482403843E+01 -0.68379873859E+02  0.70014355397E+02  0.41800000000E+01 0.  1.
         -5    1    4    4    0  501 -0.17317223157E+02 -0.11011213808E+03 -0.77126670020E+01  0.11181022673E+03  0.41800000000E+01 0.  1.
</event>
<event>
11    1  0.8041700E-009  0.1359653E+03  0.7561462E-02  0.1112149E+00
         22   -1    0    0    0    0  0.00000000000E+00  0.00000000000E+00  0.23684087054E+03  0.23684087054E+03  0.00000000000E+00 0.  1.
         22   -1    0    0    0    0 -0.00000000000E+00 -0.00000000000E+00 -0.14065490576E+04  0.14065490576E+04  0.00000000000E+00 0.  1.
         24    2    1    2    0    0 -0.20031478359E+02 -0.48405559889E+02 -0.11727810958E+04  0.11768770950E+04  0.82944799029E+02 0.  0.
         25    2    1    2    0    0  0.56794401320E+01  0.65520419791E+02 -0.20118787407E+03  0.24586491205E+03  0.12509121814E+03 0.  0.
        -24    2    1    2    0    0  0.14352038227E+02 -0.17114859902E+02  0.20426078278E+03  0.22064792113E+03  0.80399864977E+02 0.  0.
        -13    1    3    3    0    0 -0.18246250956E+02 -0.24492918572E+02 -0.10962918811E+04  0.10967172458E+04  0.00000000000E+00 0.  1.
         14    1    3    3    0    0 -0.17852274034E+01 -0.23912641317E+02 -0.76489214711E+02  0.80159849169E+02  0.00000000000E+00 0. -1.
         13    1    5    5    0    0 -0.29195596914E+02  0.10078034592E+02  0.59251535270E+02  0.66818366429E+02  0.00000000000E+00 0. -1.
        -14    1    5    5    0    0  0.43547635142E+02 -0.27192894494E+02  0.14500924751E+03  0.15382955470E+03  0.00000000000E+00 0.  1.
          5    1    4    4  501    0 -0.24715911893E+00  0.17850216440E+02  0.15418725877E+02  0.23956227212E+02  0.41800000000E+01 0. -1.
         -5    1    4    4    0  501  0.59265992510E+01  0.47670203351E+02 -0.21660659995E+03  0.22190868484E+03  0.41800000000E+01 0. -1.
</event>
<event>
11    1  0.8041700E-009  0.1334847E+03  0.7561462E-02  0.1115060E+00
         22   -1    0    0    0    0  0.00000000000E+00  0.00000000000E+00  0.32440104320E+03  0.32440104320E+03  0.00000000000E+00 0.  1.
         22   -1    0    0    0    0 -0.00000000000E+00 -0.00000000000E+00 -0.48018620517E+03  0.48018620517E+03  0.00000000000E+00 0. -1.
         24    2    1    2    0    0 -0.12480555942E+01 -0.79590806071E+01 -0.43260886607E+03  0.44060332187E+03  0.83162200738E+02 0.  0.
         25    2    1    2    0    0  0.53991655458E+01  0.52223414331E+02  0.11464559949E+03  0.17758936966E+03  0.12505172826E+03 0.  0.
        -24    2    1    2    0    0 -0.41511099516E+01 -0.44264333724E+02  0.16217810462E+03  0.18639455684E+03  0.80402924384E+02 0.  0.
        -13    1    3    3    0    0 -0.19623170771E+02  0.21980723981E+02 -0.65559481666E+02  0.71876746547E+02  0.00000000000E+00 0.  1.
         14    1    3    3    0    0  0.18375115176E+02 -0.29939804588E+02 -0.36704938441E+03  0.36872657532E+03  0.00000000000E+00 0. -1.
         11    1    5    5    0    0  0.12230860430E+02  0.94473632518E+01  0.74385948603E+00  0.15472554612E+02  0.00000000000E+00 0. -1.
        -12    1    5    5    0    0 -0.16381970382E+02 -0.53711696976E+02  0.16143424513E+03  0.17092200223E+03  0.00000000000E+00 0.  1.
          5    1    4    4  501    0  0.49250990741E+02  0.15685512709E+02  0.10821363422E+03  0.11999732676E+03  0.41800000000E+01 0. -1.
         -5    1    4    4    0  501 -0.43851825195E+02  0.36537901622E+02  0.64319652666E+01  0.57592042898E+02  0.41800000000E+01 0. -1.
</event>
<event>
11    1  0.8041700E-009  0.1411652E+03  0.7561462E-02  0.1106264E+00
         22   -1    0    0    0    0  0.00000000000E+00  0.00000000000E+00  0.10786342622E+04  0.10786342622E+04  0.00000000000E+00 0. -1.
         22   -1    0    0    0    0 -0.00000000000E+00 -0.00000000000E+00 -0.60490753609E+03  0.60490753609E+03  0.00000000000E+00 0. -1.
         24    2    1    2    0    0  0.63175925961E+02 -0.17886447587E+02 -0.57319843801E+03  0.58344581614E+03  0.86841513169E+02 0.  0.
         25    2    1    2    0    0 -0.49724266438E+02  0.31608125303E+02  0.16793553405E+03  0.21753494755E+03  0.12509010172E+03 0.  0.
        -24    2    1    2    0    0 -0.13451659522E+02 -0.13721677716E+02  0.87898963009E+03  0.88256103463E+03  0.76954392037E+02 0.  0.
        -13    1    3    3    0    0 -0.25348302761E+01  0.24752111129E+02 -0.72352132592E+02  0.76510936868E+02  0.00000000000E+00 0.  1.
         14    1    3    3    0    0  0.65710756237E+02 -0.42638558716E+02 -0.50084630541E+03  0.50693487927E+03  0.00000000000E+00 0. -1.
         11    1    5    5    0    0  0.29054168069E+02  0.22119835731E+01  0.20711148743E+03  0.20915115534E+03  0.00000000000E+00 0. -1.
        -12    1    5    5    0    0 -0.42505827591E+02 -0.15933661289E+02  0.67187814266E+03  0.67340987929E+03  0.00000000000E+00 0.  1.
          5    1    4    4  501    0 -0.87198971530E+02  0.40169643974E+02  0.14010269503E+03  0.16989260869E+03  0.41800000000E+01 0.  1.
         -5    1    4    4    0  501  0.37474705092E+02 -0.85615186707E+01  0.27832839020E+02  0.47642338855E+02  0.41800000000E+01 0.  1.
</event>
<event>
11    1  0.8041700E-009  0.2641253E+03  0.7561462E-02  0.1016632E+00
         22   -1    0    0    0    0  0.00000000000E+00  0.00000000000E+00  0.72900136838E+03  0.72900136838E+03  0.00000000000E+00 0.  1.
         22   -1    0    0    0    0 -0.00000000000E+00 -0.00000000000E+00 -0.92790436678E+03  0.92790436678E+03  0.00000000000E+00 0.  1.
         24    2    1    2    0    0 -0.19537536547E+02 -0.24755198188E+03 -0.74136035861E+03  0.78731270000E+03  0.92641282391E+02 0.  0.
         25    2    1    2    0    0 -0.18427899680E+02  0.18142795681E+03 -0.81385956708E+02  0.23564019859E+03  0.12508772219E+03 0.  0.
        -24    2    1    2    0    0  0.37965436226E+02  0.66124025066E+02  0.62384331691E+03  0.63395283657E+03  0.83077998926E+02 0.  0.
        -13    1    3    3    0    0 -0.54339111666E+02 -0.13892792595E+03 -0.37405665723E+03  0.40270596032E+03  0.00000000000E+00 0.  1.
         14    1    3    3    0    0  0.34801575119E+02 -0.10862405593E+03 -0.36730370138E+03  0.38460673968E+03  0.00000000000E+00 0. -1.
         13    1    5    5    0    0  0.13521259235E+02  0.52616673283E+02  0.15438410219E+03  0.16366364828E+03  0.00000000000E+00 0. -1.
        -14    1    5    5    0    0  0.24444176991E+02  0.13507351783E+02  0.46945921471E+03  0.47028918829E+03  0.00000000000E+00 0.  1.
          5    1    4    4  501    0  0.18684008102E+02  0.40606350479E+02  0.28482562373E+02  0.53166687101E+02  0.41800000000E+01 0. -1.
         -5    1    4    4    0  501 -0.37111907781E+02  0.14082160633E+03 -0.10986851908E+03  0.18247351149E+03  0.41800000000E+01 0. -1.
</event>
<event>
11    1  0.8041700E-009  0.1285286E+03  0.7561462E-02  0.1121090E+00
         22   -1    0    0    0    0  0.00000000000E+00  0.00000000000E+00  0.51643181708E+03  0.51643181708E+03  0.00000000000E+00 0. -1.
         22   -1    0    0    0    0 -0.00000000000E+00 -0.00000000000E+00 -0.71630028975E+03  0.71630028975E+03  0.00000000000E+00 0. -1.
         24    2    1    2    0    0 -0.41788228116E+01  0.29023342175E+02 -0.65296087191E+03  0.65851875385E+03  0.80182491738E+02 0.  0.
         25    2    1    2    0    0 -0.23016148038E+02 -0.14640479020E+02  0.16379782167E+02  0.12905588266E+03  0.12507212674E+03 0.  0.
        -24    2    1    2    0    0  0.27194970850E+02 -0.14382863155E+02  0.43671261707E+03  0.44515747032E+03  0.80627726475E+02 0.  0.
        -13    1    3    3    0    0 -0.33438467289E+01  0.52718648943E+02 -0.28911780951E+03  0.29390397247E+03  0.00000000000E+00 0.  1.
         14    1    3    3    0    0 -0.83497608264E+00 -0.23695306768E+02 -0.36384306240E+03  0.36461478138E+03  0.00000000000E+00 0. -1.
         13    1    5    5    0    0  0.54073396148E+02 -0.72084765806E+00  0.32398336972E+03  0.32846563846E+03  0.00000000000E+00 0. -1.
        -14    1    5    5    0    0 -0.26878425299E+02 -0.13662015497E+02  0.11272924736E+03  0.11669183186E+03  0.00000000000E+00 0.  1.
          5    1    4    4  501    0 -0.71873042873E+02 -0.19230275371E+02 -0.64004302849E+01  0.74792885293E+02  0.41800000000E+01 0. -1.
         -5    1    4    4    0  501  0.48856894835E+02  0.45897963510E+01  0.22780212452E+02  0.54262997363E+02  0.41800000000E+01 0. -1.
</event>
<event>
11    1  0.8041700E-009  0.1472553E+03  0.7561462E-02  0.1099717E+00
         22   -1    0    0    0    0  0.00000000000E+00  0.00000000000E+00  0.75527120240E+03  0.75527120240E+03  0.00000000000E+00 0. -1.
         22   -1    0    0    0    0 -0.00000000000E+00 -0.00000000000E+00 -0.78623406372E+03  0.78623406372E+03  0.00000000000E+00 0.  1.
        -24    2    1    2    0    0  0.35112448442E+02  0.75965188549E+02 -0.59639185517E+03  0.60758918105E+03  0.80484620375E+02 0.  0.
         25    2    1    2    0    0 -0.55095415701E+02 -0.26754654307E+02 -0.15423432351E+03  0.20781154828E+03  0.12508435830E+03 0.  0.
         24    2    1    2    0    0  0.19982967259E+02 -0.49210534242E+02  0.71966331735E+03  0.72610453679E+03  0.80569922121E+02 0.  0.
        -11    1    5    5    0    0  0.11076508869E+01  0.22023220679E+02  0.13041722990E+03  0.13226829928E+03  0.00000000000E+00 0.  1.
         12    1    5    5    0    0  0.18875316372E+02 -0.71233754921E+02  0.58924608745E+03  0.59383623751E+03  0.00000000000E+00 0. -1.
         13    1    3    3    0    0  0.15425505997E+02  0.20761974688E+02 -0.37050603926E+02  0.45185761911E+02  0.00000000000E+00 0. -1.
        -14    1    3    3    0    0  0.19686942444E+02  0.55203213862E+02 -0.55934125124E+03  0.56240341914E+03  0.00000000000E+00 0.  1.
          5    1    4    4  501    0 -0.45321111374E+02  0.37676980869E+02 -0.27348331797E+02  0.65107308927E+02  0.41800000000E+01 0.  1.
         -5    1    4    4    0  501 -0.97743043262E+01 -0.64431635176E+02 -0.12688599171E+03  0.14270423935E+03  0.41800000000E+01 0.  1.
</event>
<event>
11    1  0.8041700E-009  0.2635718E+03  0.7561462E-02  0.1016908E+00
         22   -1    0    0    0    0  0.00000000000E+00  0.00000000000E+00  0.29486207115E+03  0.29486207115E+03  0.00000000000E+00 0. -1.
         22   -1    0    0    0    0 -0.00000000000E+00 -0.00000000000E+00 -0.12277720120E+04  0.12277720120E+04  0.00000000000E+00 0.  1.
         24    2    1    2    0    0 -0.17950479276E+02 -0.22299577336E+02 -0.70230723085E+03  0.70781907461E+03  0.83384081352E+02 0.  0.
         25    2    1    2    0    0  0.10548456653E+03  0.23377799655E+03 -0.41963081777E+03  0.50746450447E+03  0.12510417514E+03 0.  0.
        -24    2    1    2    0    0 -0.87534087251E+02 -0.21147841921E+03  0.18902810777E+03  0.30735050407E+03  0.79670374665E+02 0.  0.
        -11    1    3    3    0    0 -0.29819981341E+02 -0.43845425679E+02 -0.60966743033E+03  0.61196897654E+03  0.00000000000E+00 0.  1.
         12    1    3    3    0    0  0.11869502066E+02  0.21545848343E+02 -0.92639800523E+02  0.95850098075E+02  0.00000000000E+00 0. -1.
         11    1    5    5    0    0 -0.69536974636E+02 -0.17355860115E+03  0.10755048614E+03  0.21569674533E+03  0.00000000000E+00 0. -1.
        -12    1    5    5    0    0 -0.17997112615E+02 -0.37919818057E+02  0.81477621635E+02  0.91653758740E+02  0.00000000000E+00 0.  1.
          5    1    4    4  501    0  0.87479847992E+02  0.13872617282E+03 -0.15510058959E+03  0.22576833286E+03  0.41800000000E+01 0. -1.
         -5    1    4    4    0  501  0.18004718535E+02  0.95051823721E+02 -0.26453022818E+03  0.28169617162E+03  0.41800000000E+01 0. -1.
</event>
<event>
11    1  0.8041700E-009  0.1447304E+03  0.7561462E-02  0.1102388E+00
         22   -1    0    0    0    0  0.00000000000E+00  0.00000000000E+00  0.14367219099E+04  0.14367219099E+04  0.00000000000E+00 0.  1.
         22   -1    0    0    0    0 -0.00000000000E+00 -0.00000000000E+00 -0.40807356860E+03  0.40807356860E+03  0.00000000000E+00 0.  1.
         24    2    1    2    0    0  0.57749317725E+02  0.40676106208E+02 -0.31921002597E+03  0.33699556436E+03  0.81740078334E+02 0.  0.
         25    2    1    2    0    0 -0.67543144795E+02 -0.62707755450E+02 -0.19144245489E+01  0.15538817713E+03  0.12508989394E+03 0.  0.
        -24    2    1    2    0    0  0.97938270706E+01  0.22031649242E+02  0.13497727918E+04  0.13524117370E+04  0.80929625454E+02 0.  0.
        -11    1    3    3    0    0  0.72976210961E+02  0.39754806620E+02 -0.19662658974E+03  0.21346659647E+03  0.00000000000E+00 0.  1.
         12    1    3    3    0    0 -0.15226893237E+02  0.92129958753E+00 -0.12258343623E+03  0.12352896789E+03  0.00000000000E+00 0. -1.
         13    1    5    5    0    0 -0.12416565117E+02  0.21763258069E+02  0.12758305968E+03  0.13002018154E+03  0.00000000000E+00 0. -1.
        -14    1    5    5    0    0  0.22210392187E+02  0.26839117315E+00  0.12221897321E+04  0.12223915555E+04  0.00000000000E+00 0.  1.
          5    1    4    4  501    0 -0.22920684428E+01  0.24017405102E+02 -0.34216322980E+02  0.42075152808E+02  0.41800000000E+01 0. -1.
         -5    1    4    4    0  501 -0.65251076352E+02 -0.86725160552E+02  0.32301898431E+02  0.11331302432E+03  0.41800000000E+01 0. -1.
</event>
<event>
11    1  0.8041700E-009  0.1382591E+03  0.7561462E-02  0.1109518E+00
         22   -1    0    0    0    0  0.00000000000E+00  0.00000000000E+00  0.26397248423E+03  0.26397248423E+03  0.00000000000E+00 0.  1.
         22   -1    0    0    0    0 -0.00000000000E+00 -0.00000000000E+00 -0.35835585295E+03  0.35835585295E+03  0.00000000000E+00 0.  1.
         24    2    1    2    0    0  0.13574375334E+02  0.21631717414E+02 -0.63863187959E+02  0.10627109279E+03  0.81011378975E+02 0.  0.
         25    2    1    2    0    0 -0.89505252656E+01  0.37990134243E+02 -0.24596625235E+03  0.27869267769E+03  0.12508736587E+03 0.  0.
        -24    2    1    2    0    0 -0.46238500689E+01 -0.59621851657E+02  0.21544607159E+03  0.23736456669E+03  0.79679248079E+02 0.  0.
        -11    1    3    3    0    0 -0.10199460276E+02  0.47427705749E+02 -0.46214459189E+02  0.67001436557E+02  0.00000000000E+00 0.  1.
         12    1    3    3    0    0  0.23773835610E+02 -0.25795988335E+02 -0.17648728770E+02  0.39269656237E+02  0.00000000000E+00 0. -1.
         11    1    5    5    0    0  0.11583482919E+02 -0.87440317213E+01 -0.88569746607E+00  0.14540276038E+02  0.00000000000E+00 0. -1.
        -12    1    5    5    0    0 -0.16207332987E+02 -0.50877819936E+02  0.21633176905E+03  0.22282429066E+03  0.00000000000E+00 0.  1.
          5    1    4    4  501    0 -0.38723389389E+02 -0.17285068036E+02 -0.18922917558E+03  0.19396759459E+03  0.41800000000E+01 0. -1.
         -5    1    4    4    0  501  0.29772864123E+02  0.55275202279E+02 -0.56737076771E+02  0.84725083096E+02  0.41800000000E+01 0. -1.
</event>
<event>
11    1  0.8041700E-009  0.1896327E+03  0.7561462E-02  0.1062107E+00
         22   -1    0    0    0    0  0.00000000000E+00  0.00000000000E+00  0.35975642355E+03  0.35975642355E+03  0.00000000000E+00 0.  1.
         22   -1    0    0    0    0 -0.00000000000E+00 -0.00000000000E+00 -0.76417152206E+03  0.76417152206E+03  0.00000000000E+00 0.  1.
         24    2    1    2    0    0 -0.88769748790E+02 -0.10597235852E+03 -0.61493981911E+03  0.63551794726E+03  0.81374879914E+02 0.  0.
         25    2    1    2    0    0  0.20926418502E+03  0.88962726764E+02  0.37705867376E+02  0.26224980171E+03  0.12508940874E+03 0.  0.
        -24    2    1    2    0    0 -0.12049443623E+03  0.17009631759E+02  0.17281885323E+03  0.22616019664E+03  0.80460187550E+02 0.  0.
        -11    1    3    3    0    0 -0.59455284231E+02 -0.93768510046E+02 -0.56862546035E+03  0.57936377041E+03  0.00000000000E+00 0.  1.
         12    1    3    3    0    0 -0.29314464558E+02 -0.12203848478E+02 -0.46314358759E+02  0.56154176846E+02  0.00000000000E+00 0. -1.
         11    1    5    5    0    0 -0.31365190165E+02 -0.59494274160E+01  0.18336331169E+01  0.31977070708E+02  0.00000000000E+00 0. -1.
        -12    1    5    5    0    0 -0.89129246066E+02  0.22959059176E+02  0.17098522011E+03  0.19418312594E+03  0.00000000000E+00 0.  1.
          5    1    4    4  501    0  0.86156360183E+02  0.52606709985E+02 -0.43819937997E+02  0.11012739760E+03  0.41800000000E+01 0.  1.
         -5    1    4    4    0  501  0.12310782484E+03  0.36356016779E+02  0.81525805373E+02  0.15212240412E+03  0.41800000000E+01 0.  1.
</event>
<event>
11    1  0.8041700E-009  0.2448597E+03  0.7561462E-02  0.1026674E+00
         22   -1    0    0    0    0  0.00000000000E+00  0.00000000000E+00  0.17281335348E+04  0.17281335348E+04  0.00000000000E+00 0.  1.
         22   -1    0    0    0    0 -0.00000000000E+00 -0.00000000000E+00 -0.30130277170E+03  0.30130277170E+03  0.00000000000E+00 0. -1.
         24    2    1    2    0    0 -0.97795393983E+02  0.18385734315E+03 -0.22198109576E+03  0.31523171633E+03  0.82024181726E+02 0.  0.
         25    2    1    2    0    0  0.17982919001E+03 -0.17892317648E+03  0.64986079284E+03  0.70874395962E+03  0.12508760758E+03 0.  0.
        -24    2    1    2    0    0 -0.82033796032E+02 -0.49341666754E+01  0.99895106604E+03  0.10054606306E+04  0.79334466600E+02 0.  0.
        -11    1    3    3    0    0 -0.77091698184E+02  0.10970520506E+03 -0.86990777979E+02  0.15983040199E+03  0.00000000000E+00 0.  1.
         12    1    3    3    0    0 -0.20703695798E+02  0.74152138094E+02 -0.13499031778E+03  0.15540131434E+03  0.00000000000E+00 0. -1.
         11    1    5    5    0    0  0.53193968987E+01  0.21680377695E+02  0.23987182884E+03  0.24090834155E+03  0.00000000000E+00 0. -1.
        -12    1    5    5    0    0 -0.87353192931E+02 -0.26614544371E+02  0.75907923720E+03  0.76455228901E+03  0.00000000000E+00 0.  1.
          5    1    4    4  501    0  0.72090836927E+01 -0.62566314756E+02  0.79144108507E+02  0.10123130416E+03  0.41800000000E+01 0. -1.
         -5    1    4    4    0  501  0.17262010632E+03 -0.11635686172E+03  0.57071668433E+03  0.60751265547E+03  0.41800000000E+01 0. -1.
</event>
<event>
11    1  0.8041700E-009  0.2824543E+03  0.7561462E-02  0.1007903E+00
         22   -1    0    0    0    0  0.00000000000E+00  0.00000000000E+00  0.28261054374E+03  0.28261054374E+03  0.00000000000E+00 0. -1.
         22   -1    0    0    0    0 -0.00000000000E+00 -0.00000000000E+00 -0.93698344159E+03  0.93698344159E+03  0.00000000000E+00 0.  1.
        -24    2    1    2    0    0  0.21280447268E+02  0.41905915872E+02 -0.61914122019E+03  0.62636614356E+03  0.82399830335E+02 0.  0.
         25    2    1    2    0    0  0.95468535041E+02 -0.25694366394E+03 -0.11207765985E+03  0.32147101328E+03  0.12509165806E+03 0.  0.
         24    2    1    2    0    0 -0.11674898231E+03  0.21503774807E+03  0.76845982190E+02  0.27175682849E+03  0.89860507953E+02 0.  0.
        -11    1    5    5    0    0 -0.23029592092E+02  0.21132167959E+02 -0.18399291441E+02  0.36269333604E+02  0.00000000000E+00 0.  1.
         12    1    5    5    0    0 -0.93719390216E+02  0.19390558011E+03  0.95245273631E+02  0.23548749489E+03  0.00000000000E+00 0. -1.
         11    1    3    3    0    0 -0.24846561594E+02  0.20957579667E+02 -0.10976282647E+03  0.11447466901E+03  0.00000000000E+00 0. -1.
        -12    1    3    3    0    0  0.46127008862E+02  0.20948336206E+02 -0.50937839372E+03  0.51189147455E+03  0.00000000000E+00 0.  1.
          5    1    4    4  501    0  0.79928734986E+02 -0.52886856799E+02 -0.25807955077E+02  0.99343571729E+02  0.41800000000E+01 0. -1.
         -5    1    4    4    0  501  0.15539800055E+02 -0.20405680714E+03 -0.86269704771E+02  0.22212744155E+03  0.41800000000E+01 0. -1.
</event>
<event>
11    1  0.8041700E-009  0.1448836E+03  0.7561462E-02  0.1102224E+00
         22   -1    0    0    0    0  0.00000000000E+00  0.00000000000E+00  0.12856097876E+04  0.12856097876E+04  0.00000000000E+00 0. -1.
         22   -1    0    0    0    0 -0.00000000000E+00 -0.00000000000E+00 -0.16331186574E+04  0.16331186574E+04  0.00000000000E+00 0.  1.
         24    2    1    2    0    0 -0.58879159739E+02 -0.44115442656E+02 -0.16080549434E+04  0.16117721463E+04  0.80968036522E+02 0.  0.
         25    2    1    2    0    0  0.69105198349E+01  0.34219737873E+02  0.17812270841E+03  0.22042948619E+03  0.12507083349E+03 0.  0.
        -24    2    1    2    0    0  0.51968639904E+02  0.98957047829E+01  0.10824233653E+04  0.10865268124E+04  0.78112149936E+02 0.  0.
        -13    1    3    3    0    0 -0.22127977164E+02 -0.55459766561E+02 -0.12930192949E+04  0.12943972845E+04  0.00000000000E+00 0.  1.
         14    1    3    3    0    0 -0.36751182576E+02  0.11344323905E+02 -0.31503564851E+03  0.31737486186E+03  0.00000000000E+00 0. -1.
         13    1    5    5    0    0  0.70555694488E+02  0.16698756027E+02  0.74380459925E+03  0.74733007189E+03  0.00000000000E+00 0. -1.
        -14    1    5    5    0    0 -0.18587054584E+02 -0.68030512438E+01  0.33861876601E+03  0.33919674055E+03  0.00000000000E+00 0.  1.
          5    1    4    4  501    0 -0.30030118654E+02  0.86584945430E+01 -0.49159286112E+01  0.31912635558E+02  0.41800000000E+01 0.  1.
         -5    1    4    4    0  501  0.36940638489E+02  0.25561243330E+02  0.18303863702E+03  0.18851685064E+03  0.41800000000E+01 0.  1.
</event>
<event>
11    1  0.8041700E-009  0.1421999E+03  0.7561462E-02  0.1105126E+00
         22   -1    0    0    0    0  0.00000000000E+00  0.00000000000E+00  0.37643557670E+03  0.37643557670E+03  0.00000000000E+00 0.  1.
         22   -1    0    0    0    0 -0.00000000000E+00 -0.00000000000E+00 -0.23713239519E+03  0.23713239519E+03  0.00000000000E+00 0.  1.
        -24    2    1    2    0    0 -0.34773683402E+01 -0.48997387440E+02 -0.10580786575E+03  0.14205236235E+03  0.81060058783E+02 0.  0.
         25    2    1    2    0    0 -0.54126909886E+02  0.92200377720E+01 -0.59419729875E+02  0.14897147280E+03  0.12508822463E+03 0.  0.
         24    2    1    2    0    0  0.57604278226E+02  0.39777349668E+02  0.30453077713E+03  0.32254413674E+03  0.79970216367E+02 0.  0.
        -13    1    5    5    0    0  0.70004398882E+02  0.16900620969E+02  0.15690372987E+03  0.17264132558E+03  0.00000000000E+00 0.  1.
         14    1    5    5    0    0 -0.12400120656E+02  0.22876728699E+02  0.14762704727E+03  0.14990281116E+03  0.00000000000E+00 0. -1.
         13    1    3    3    0    0 -0.20676328551E+02 -0.23228137552E+02  0.72494395544E+00  0.31105987852E+02  0.00000000000E+00 0. -1.
        -14    1    3    3    0    0  0.17198960211E+02 -0.25769249887E+02 -0.10653280970E+03  0.11094637450E+03  0.00000000000E+00 0.  1.
          5    1    4    4  501    0  0.83490571640E+01  0.53705859890E+02 -0.48014029532E+01  0.54722500056E+02  0.41800000000E+01 0. -1.
         -5    1    4    4    0  501 -0.62475967050E+02 -0.44485822118E+02 -0.54618326922E+02  0.94248972748E+02  0.41800000000E+01 0. -1.
</event>
<event>
11    1  0.8041700E-009  0.1493363E+03  0.7561462E-02  0.1097559E+00
         22   -1    0    0    0    0  0.00000000000E+00  0.00000000000E+00  0.38319025771E+03  0.38319025771E+03  0.00000000000E+00 0.  1.
         22   -1    0    0    0    0 -0.00000000000E+00 -0.00000000000E+00 -0.64693675886E+03  0.64693675886E+03  0.00000000000E+00 0. -1.
         24    2    1    2    0    0 -0.18066769113E+02  0.79586879437E+02 -0.57441753902E+03  0.58548755900E+03  0.78611023976E+02 0.  0.
         25    2    1    2    0    0 -0.56352217244E+02 -0.93899368236E+02  0.71769096509E+02  0.18108408951E+03  0.12509188828E+03 0.  0.
        -24    2    1    2    0    0  0.74418986357E+02  0.14312488799E+02  0.23890194136E+03  0.26355536806E+03  0.81512340062E+02 0.  0.
        -11    1    3    3    0    0  0.12140510993E+02  0.18573118363E+02 -0.32755019726E+02  0.39563165320E+02  0.00000000000E+00 0.  1.
         12    1    3    3    0    0 -0.30207280106E+02  0.61013761074E+02 -0.54166251929E+03  0.54592439368E+03  0.00000000000E+00 0. -1.
         11    1    5    5    0    0  0.23859316786E+02 -0.30421776517E+02  0.51731633260E+02  0.64582608833E+02  0.00000000000E+00 0. -1.
        -12    1    5    5    0    0  0.50559669571E+02  0.44734265317E+02  0.18717030810E+03  0.19897275923E+03  0.00000000000E+00 0.  1.
          5    1    4    4  501    0 -0.33542262708E+02 -0.10933685754E+03  0.91849770007E+02  0.14674291961E+03  0.41800000000E+01 0. -1.
         -5    1    4    4    0  501 -0.22809954537E+02  0.15437489302E+02 -0.20080673499E+02  0.34341169900E+02  0.41800000000E+01 0. -1.
</event>
<event>
11    1  0.8041700E-009  0.1322850E+03  0.7561462E-02  0.1116493E+00
         22   -1    0    0    0    0  0.00000000000E+00  0.00000000000E+00  0.18308212438E+03  0.18308212438E+03  0.00000000000E+00 0.  1.
         22   -1    0    0    0    0 -0.00000000000E+00 -0.00000000000E+00 -0.59652247744E+03  0.59652247744E+03  0.00000000000E+00 0.  1.
         24    2    1    2    0    0 -0.99287769828E+01  0.53204611155E+01 -0.38027955238E+03  0.38871599249E+03  0.79753977570E+02 0.  0.
         25    2    1    2    0    0  0.50072277250E+02 -0.18706107805E+02 -0.17503241948E+03  0.22167775498E+03  0.12509007860E+03 0.  0.
        -24    2    1    2    0    0 -0.40143500268E+02  0.13385646690E+02  0.14187161880E+03  0.16921085435E+03  0.81939495106E+02 0.  0.
        -11    1    3    3    0    0 -0.64385314085E+00  0.21094633917E+01 -0.37876976341E+03  0.37877618465E+03  0.00000000000E+00 0.  1.
         12    1    3    3    0    0 -0.92849238419E+01  0.32109977238E+01 -0.15097889686E+01  0.99398078383E+01  0.00000000000E+00 0. -1.
         13    1    5    5    0    0  0.19321957527E+02  0.90161074192E+01  0.82012736738E+01  0.22844892767E+02  0.00000000000E+00 0. -1.
        -14    1    5    5    0    0 -0.59465457795E+02  0.43695392705E+01  0.13367034513E+03  0.14636596159E+03  0.00000000000E+00 0.  1.
          5    1    4    4  501    0 -0.37512747516E+02 -0.11056431495E+02 -0.21808360610E+02  0.44972523791E+02  0.41800000000E+01 0.  1.
         -5    1    4    4    0  501  0.87585024767E+02 -0.76496763101E+01 -0.15322405887E+03  0.17670523119E+03  0.41800000000E+01 0.  1.
</event>
<event>
11    1  0.8041700E-009  0.1394288E+03  0.7561462E-02  0.1108198E+00
         22   -1    0    0    0    0  0.00000000000E+00  0.00000000000E+00  0.76370240588E+03  0.76370240588E+03  0.00000000000E+00 0.  1.
         22   -1    0    0    0    0 -0.00000000000E+00 -0.00000000000E+00 -0.51337864046E+03  0.51337864046E+03  0.00000000000E+00 0.  1.
        -24    2    1    2    0    0  0.36355180973E+00 -0.34151115958E+02 -0.46942328153E+03  0.47742648459E+03  0.80071218635E+02 0.  0.
         25    2    1    2    0    0  0.98492307214E+01 -0.30137587342E+02  0.80668397454E+02  0.15219749023E+03  0.12510557209E+03 0.  0.
         24    2    1    2    0    0 -0.10212782531E+02  0.64288703300E+02  0.63907864950E+03  0.64745707152E+03  0.80881400324E+02 0.  0.
        -13    1    5    5    0    0 -0.34058005466E+02  0.65041584524E+02  0.36304780929E+03  0.37039717505E+03  0.00000000000E+00 0.  1.
         14    1    5    5    0    0  0.23845222935E+02 -0.75288122450E+00  0.27603084021E+03  0.27705989647E+03  0.00000000000E+00 0. -1.
         11    1    3    3    0    0  0.15041998613E+02 -0.45355626967E+02 -0.14907294339E+03  0.15654436135E+03  0.00000000000E+00 0. -1.
        -12    1    3    3    0    0 -0.14678446803E+02  0.11204511009E+02 -0.32035033813E+03  0.32088212323E+03  0.00000000000E+00 0.  1.
          5    1    4    4  501    0 -0.49488207153E+02 -0.11613351575E+02  0.93892544000E+00  0.51012807833E+02  0.41800000000E+01 0.  1.
         -5    1    4    4    0  501  0.59337437874E+02 -0.18524235767E+02  0.79729472014E+02  0.10118468240E+03  0.41800000000E+01 0.  1.
</event>
<event>
11    1  0.8041700E-009  0.1562153E+03  0.7561462E-02  0.1090692E+00
         22   -1    0    0    0    0  0.00000000000E+00  0.00000000000E+00  0.59664475396E+03  0.59664475396E+03  0.00000000000E+00 0.  1.
         22   -1    0    0    0    0 -0.00000000000E+00 -0.00000000000E+00 -0.14959571524E+04  0.14959571524E+04  0.00000000000E+00 0.  1.
        -24    2    1    2    0    0  0.90463632863E+02 -0.20334892327E+02 -0.12048780211E+04  0.12113991607E+04  0.84615034672E+02 0.  0.
         25    2    1    2    0    0 -0.18104687246E+03  0.31491065372E+02 -0.23658366572E+03  0.32463461783E+03  0.12508455934E+03 0.  0.
         24    2    1    2    0    0  0.90583239600E+02 -0.11156173045E+02  0.54214928833E+03  0.55656812788E+03  0.86674371317E+02 0.  0.
        -11    1    5    5    0    0  0.60097874357E+02 -0.70777348349E+01  0.50374065128E+03  0.50736228928E+03  0.00000000000E+00 0.  1.
         12    1    5    5    0    0  0.30485365243E+02 -0.40784382104E+01  0.38408637046E+02  0.49205838596E+02  0.00000000000E+00 0. -1.
         11    1    3    3    0    0  0.10821737542E+02 -0.40210980599E+02 -0.50788206639E+03  0.50958632863E+03  0.00000000000E+00 0. -1.
        -12    1    3    3    0    0  0.79641895321E+02  0.19876088272E+02 -0.69699595467E+03  0.70181283203E+03  0.00000000000E+00 0.  1.
          5    1    4    4  501    0 -0.17926937037E+03  0.54831739781E+02 -0.23522211947E+03  0.30081712838E+03  0.41800000000E+01 0.  1.
         -5    1    4    4    0  501 -0.17775020972E+01 -0.23340674409E+02 -0.13615462426E+01  0.23817489451E+02  0.41800000000E+01 0.  1.
</event>
<event>
11    1  0.8041700E-009  0.1309547E+03  0.7561462E-02  0.1118102E+00
         22   -1    0    0    0    0  0.00000000000E+00  0.00000000000E+00  0.21067420703E+03  0.21067420703E+03  0.00000000000E+00 0. -1.
         22   -1    0    0    0    0 -0.00000000000E+00 -0.00000000000E+00 -0.11086710015E+04  0.11086710015E+04  0.00000000000E+00 0. -1.
         24    2    1    2    0    0 -0.26465420495E+01  0.47414852492E+01 -0.94594328412E+03  0.94940985851E+03  0.80875810972E+02 0.  0.
         25    2    1    2    0    0  0.14503910931E+02 -0.41280084726E+02 -0.12118609894E+03  0.17957403138E+03  0.12508538421E+03 0.  0.
        -24    2    1    2    0    0 -0.11857368882E+02  0.36538599476E+02  0.16913258859E+03  0.19036131865E+03  0.78459751893E+02 0.  0.
        -11    1    3    3    0    0 -0.21066345258E+02  0.35762836057E+02 -0.36611860440E+03  0.36846384332E+03  0.00000000000E+00 0.  1.
         12    1    3    3    0    0  0.18419803209E+02 -0.31021350808E+02 -0.57982467972E+03  0.58094601520E+03  0.00000000000E+00 0. -1.
         11    1    5    5    0    0 -0.24146311366E+01  0.39151619443E+01  0.15245590163E+03  0.15252527948E+03  0.00000000000E+00 0. -1.
        -12    1    5    5    0    0 -0.94427377450E+01  0.32623437532E+02  0.16676686954E+02  0.37836039173E+02  0.00000000000E+00 0.  1.
          5    1    4    4  501    0 -0.47474732374E+02 -0.41211547746E+02 -0.90543394101E+02  0.11030784422E+03  0.41800000000E+01 0. -1.
         -5    1    4    4    0  501  0.61978643305E+02 -0.68536979779E-01 -0.30642704835E+02  0.69266187154E+02  0.41800000000E+01 0. -1.
</event>
<event>
11    1  0.8041700E-009  0.1917988E+03  0.7561462E-02  0.1060480E+00
         22   -1    0    0    0    0  0.00000000000E+00  0.00000000000E+00  0.11950354130E+04  0.11950354130E+04  0.00000000000E+00 0. -1.
         22   -1    0    0    0    0 -0.00000000000E+00 -0.00000000000E+00 -0.15511191640E+04  0.15511191640E+04  0.00000000000E+00 0. -1.
        -24    2    1    2    0    0 -0.45138735580E+02  0.13828578567E+03 -0.14525165816E+04  0.14618986988E+04  0.78631557136E+02 0.  0.
         25    2    1    2    0    0 -0.40793219185E+02 -0.16310194489E+03  0.30792055181E+02  0.21180885563E+03  0.12509400267E+03 0.  0.
         24    2    1    2    0    0  0.85931954765E+02  0.24816159224E+02  0.10656407754E+04  0.10724470226E+04  0.80945731811E+02 0.  0.
        -13    1    5    5    0    0  0.31210541400E+02  0.50530828833E+02  0.46730727466E+03  0.47106639819E+03  0.00000000000E+00 0.  1.
         14    1    5    5    0    0  0.54721413365E+02 -0.25714669609E+02  0.59833350075E+03  0.60138062443E+03  0.00000000000E+00 0. -1.
         11    1    3    3    0    0  0.13154431032E+01  0.59022074188E+02 -0.88749956371E+03  0.88946096666E+03  0.00000000000E+00 0. -1.
        -12    1    3    3    0    0 -0.46454178683E+02  0.79263711477E+02 -0.56501701789E+03  0.57243773215E+03  0.00000000000E+00 0.  1.
          5    1    4    4  501    0 -0.17630020178E+02 -0.15989540402E+03 -0.13567131100E+02  0.16148961975E+03  0.41800000000E+01 0. -1.
         -5    1    4    4    0  501 -0.23163199007E+02 -0.32065408653E+01  0.44359186281E+02  0.50319235885E+02  0.41800000000E+01 0. -1.
</event>
<event>
11    1  0.8041700E-009  0.1425287E+03  0.7561462E-02  0.1104767E+00
         22   -1    0    0    0    0  0.00000000000E+00  0.00000000000E+00  0.76811245246E+02  0.76811245246E+02  0.00000000000E+00 0. -1.
         22   -1    0    0    0    0 -0.00000000000E+00 -0.00000000000E+00 -0.43442637131E+03  0.43442637131E+03  0.00000000000E+00 0.  1.
         24    2    1    2    0    0  0.37798479057E+01  0.37534738933E+00 -0.16502191655E+03  0.18147389917E+03  0.75406332642E+02 0.  0.
         25    2    1    2    0    0 -0.47066517513E+02 -0.52094242475E+02 -0.14866717419E+03  0.20658717602E+03  0.12508903007E+03 0.  0.
        -24    2    1    2    0    0  0.43286669607E+02  0.51718895085E+02 -0.43926035323E+02  0.12317654136E+03  0.93243680155E+02 0.  0.
        -11    1    3    3    0    0  0.15894155434E+01 -0.31350157323E+02 -0.13179292812E+03  0.13547964610E+03  0.00000000000E+00 0.  1.
         12    1    3    3    0    0  0.21904323623E+01  0.31725504713E+02 -0.33228988434E+02  0.45994253071E+02  0.00000000000E+00 0. -1.
         13    1    5    5    0    0  0.56869321060E+02  0.19845578877E+02 -0.59969149234E+02  0.84995679529E+02  0.00000000000E+00 0. -1.
        -14    1    5    5    0    0 -0.13582651453E+02  0.31873316208E+02  0.16043113911E+02  0.38180861836E+02  0.00000000000E+00 0.  1.
          5    1    4    4  501    0  0.37064204430E+02 -0.44184661754E+02 -0.72612083902E+02  0.92822554980E+02  0.41800000000E+01 0. -1.
         -5    1    4    4    0  501 -0.84130721943E+02 -0.79095807206E+01 -0.76055090291E+02  0.11376462104E+03  0.41800000000E+01 0. -1.
</event>
<event>
11    1  0.8041700E-009  0.1513800E+03  0.7561462E-02  0.1095477E+00
         22   -1    0    0    0    0  0.00000000000E+00  0.00000000000E+00  0.88457668372E+02  0.88457668372E+02  0.00000000000E+00 0.  1.
         22   -1    0    0    0    0 -0.00000000000E+00 -0.00000000000E+00 -0.34490546608E+04  0.34490546608E+04  0.00000000000E+00 0.  1.
        -24    2    1    2    0    0  0.22561794707E+02  0.45719835479E+00 -0.25986753325E+04  0.25998896194E+04  0.76179431128E+02 0.  0.
         25    2    1    2    0    0  0.45966937393E+02 -0.52640878523E+02 -0.80082862258E+03  0.81354679204E+03  0.12509148125E+03 0.  0.
         24    2    1    2    0    0 -0.68528732100E+02  0.52183680168E+02  0.38906962611E+02  0.12407591776E+03  0.80385060988E+02 0.  0.
        -13    1    5    5    0    0 -0.57422354332E+02  0.40698750946E+02 -0.11393724938E+02  0.71298892513E+02  0.00000000000E+00 0.  1.
         14    1    5    5    0    0 -0.11106377767E+02  0.11484929222E+02  0.50300687549E+02  0.52777025250E+02  0.00000000000E+00 0. -1.
         13    1    3    3    0    0 -0.14630553864E+02  0.11872989231E+02 -0.19695944807E+03  0.19785864945E+03  0.00000000000E+00 0. -1.
        -14    1    3    3    0    0  0.37192348571E+02 -0.11415790877E+02 -0.24017158844E+04  0.24020309700E+04  0.00000000000E+00 0.  1.
          5    1    4    4  501    0 -0.12078205692E+02 -0.81506885671E+01 -0.76262529255E+01  0.16969057444E+02  0.41800000000E+01 0.  1.
         -5    1    4    4    0  501  0.58045143085E+02 -0.44490189956E+02 -0.79320236965E+03  0.79657773460E+03  0.41800000000E+01 0.  1.
</event>
<event>
11    1  0.8041700E-009  0.1461888E+03  0.7561462E-02  0.1100838E+00
         22   -1    0    0    0    0  0.00000000000E+00  0.00000000000E+00  0.73854216017E+03  0.73854216017E+03  0.00000000000E+00 0. -1.
         22   -1    0    0    0    0 -0.00000000000E+00 -0.00000000000E+00 -0.16653153671E+03  0.16653153671E+03  0.00000000000E+00 0. -1.
        -24    2    1    2    0    0  0.39229394865E+02 -0.92037654281E+01 -0.12631419102E+03  0.15553451619E+03  0.81314550677E+02 0.  0.
         25    2    1    2    0    0 -0.13344561671E+02 -0.67608772526E+02  0.25948341075E+03  0.29618792432E+03  0.12508646055E+03 0.  0.
         24    2    1    2    0    0 -0.25884833194E+02  0.76812537954E+02  0.43884140374E+03  0.45335125637E+03  0.79846060881E+02 0.  0.
        -11    1    5    5    0    0 -0.27321484170E+02  0.12604484759E+02  0.43898207801E+02  0.53220195240E+02  0.00000000000E+00 0.  1.
         12    1    5    5    0    0  0.14366509759E+01  0.64208053196E+02  0.39494319594E+03  0.40013106113E+03  0.00000000000E+00 0. -1.
         13    1    3    3    0    0  0.18202290109E+02 -0.21989178746E+02 -0.12773377182E+03  0.13088454382E+03  0.00000000000E+00 0. -1.
        -14    1    3    3    0    0  0.21027104755E+02  0.12785413318E+02  0.14195807963E+01  0.24649972368E+02  0.00000000000E+00 0.  1.
          5    1    4    4  501    0 -0.14360677524E+02  0.12170354184E+02 -0.49836731350E+01  0.19916223985E+02  0.41800000000E+01 0.  1.
         -5    1    4    4    0  501  0.10161158534E+01 -0.79779126710E+02  0.26446708388E+03  0.27627170034E+03  0.41800000000E+01 0.  1.
</event>
<event>
11    1  0.8041700E-009  0.1470004E+03  0.7561462E-02  0.1099984E+00
         22   -1    0    0    0    0  0.00000000000E+00  0.00000000000E+00  0.58070155447E+03  0.58070155447E+03  0.00000000000E+00 0.  1.
         22   -1    0    0    0    0 -0.00000000000E+00 -0.00000000000E+00 -0.32403915437E+03  0.32403915437E+03  0.00000000000E+00 0.  1.
        -24    2    1    2    0    0 -0.29544618405E+02  0.27190571174E+01 -0.20275784048E+03  0.22094728224E+03  0.82623736923E+02 0.  0.
         25    2    1    2    0    0  0.60178787039E+02 -0.72707839765E+02 -0.48471587133E+02  0.16404711010E+03  0.12511611887E+03 0.  0.
         24    2    1    2    0    0 -0.30634168635E+02  0.69988782648E+02  0.50789182771E+03  0.51974631650E+03  0.79657032779E+02 0.  0.
        -11    1    5    5    0    0 -0.87289803597E+01  0.76818397643E+00  0.28889780537E+03  0.28903066819E+03  0.00000000000E+00 0.  1.
         12    1    5    5    0    0 -0.21905188275E+02  0.69220598672E+02  0.21899402234E+03  0.23071564831E+03  0.00000000000E+00 0. -1.
         11    1    3    3    0    0  0.18810802773E+02  0.19292434720E+02 -0.27967764139E+02  0.38836067893E+02  0.00000000000E+00 0. -1.
        -12    1    3    3    0    0 -0.48355421178E+02 -0.16573377603E+02 -0.17479007634E+03  0.18211121434E+03  0.00000000000E+00 0.  1.
          5    1    4    4  501    0 -0.31985893849E+02  0.29219237743E+01  0.59360882375E+01  0.32929387899E+02  0.41800000000E+01 0. -1.
         -5    1    4    4    0  501  0.92164680888E+02 -0.75629763540E+02 -0.54407675371E+02  0.13111772220E+03  0.41800000000E+01 0. -1.
</event>
<event>
11    1  0.8041700E-009  0.1912385E+03  0.7561462E-02  0.1060898E+00
         22   -1    0    0    0    0  0.00000000000E+00  0.00000000000E+00  0.84639787367E+03  0.84639787367E+03  0.00000000000E+00 0. -1.
         22   -1    0    0    0    0 -0.00000000000E+00 -0.00000000000E+00 -0.31927834513E+03  0.31927834513E+03  0.00000000000E+00 0.  1.
        -24    2    1    2    0    0 -0.43101349021E+02 -0.14855275093E+03 -0.25368881046E+03  0.31455291209E+03  0.10324667478E+03 0.  0.
         25    2    1    2    0    0 -0.41805796510E+02  0.83961774652E+02  0.19708676180E+03  0.25157745668E+03  0.12510284094E+03 0.  0.
         24    2    1    2    0    0  0.84907145531E+02  0.64590976278E+02  0.58372157721E+03  0.59954585003E+03  0.85692059183E+02 0.  0.
        -13    1    5    5    0    0  0.98638322061E+02  0.40870935248E+02  0.40994137390E+03  0.42361761290E+03  0.00000000000E+00 0.  1.
         14    1    5    5    0    0 -0.13731176530E+02  0.23720041030E+02  0.17378020332E+03  0.17592823713E+03  0.00000000000E+00 0. -1.
         13    1    3    3    0    0  0.70204087110E+01 -0.32358375878E+01  0.79567444040E+01  0.11093537077E+02  0.00000000000E+00 0. -1.
        -14    1    3    3    0    0 -0.50121757732E+02 -0.14531691334E+03 -0.26164555487E+03  0.30345937501E+03  0.00000000000E+00 0.  1.
          5    1    4    4  501    0  0.38983070302E+01  0.92775370510E+02  0.70569286560E+02  0.11670459621E+03  0.41800000000E+01 0. -1.
         -5    1    4    4    0  501 -0.45704103540E+02 -0.88135958585E+01  0.12651747524E+03  0.13487286047E+03  0.41800000000E+01 0. -1.
</event>
<event>
11    1  0.8041700E-009  0.2663087E+03  0.7561462E-02  0.1015553E+00
         22   -1    0    0    0    0  0.00000000000E+00  0.00000000000E+00  0.56499183824E+03  0.56499183824E+03  0.00000000000E+00 0.  1.
         22   -1    0    0    0    0 -0.00000000000E+00 -0.00000000000E+00 -0.79596992667E+03  0.79596992667E+03  0.00000000000E+00 0.  1.
        -24    2    1    2    0    0  0.11992598440E+03 -0.72639274671E+02 -0.57657205749E+03  0.59884960998E+03  0.80788686889E+02 0.  0.
         25    2    1    2    0    0  0.10527887154E+03 -0.55755008712E+02 -0.12912976433E+03  0.21567151750E+03  0.12508975031E+03 0.  0.
         24    2    1    2    0    0 -0.22520485595E+03  0.12839428338E+03  0.47472373340E+03  0.54644063743E+03  0.77668706935E+02 0.  0.
        -11    1    5    5    0    0 -0.19418563661E+03  0.11476985540E+03  0.45339592495E+03  0.50640699633E+03  0.00000000000E+00 0.  1.
         12    1    5    5    0    0 -0.31019219345E+02  0.13624427984E+02  0.21327808450E+02  0.40033641102E+02  0.00000000000E+00 0. -1.
         13    1    3    3    0    0  0.26447459585E+02 -0.25225165813E+02 -0.49923407220E+02  0.61871832826E+02  0.00000000000E+00 0. -1.
        -14    1    3    3    0    0  0.93478524820E+02 -0.47414108858E+02 -0.52664865027E+03  0.53697777715E+03  0.00000000000E+00 0.  1.
          5    1    4    4  501    0  0.11019044196E+03 -0.22430806565E+02 -0.14037904394E+03  0.17991337627E+03  0.41800000000E+01 0.  1.
         -5    1    4    4    0  501 -0.49115704202E+01 -0.33324202148E+02  0.11249279603E+02  0.35758141232E+02  0.41800000000E+01 0.  1.
</event>
<event>
11    1  0.8041700E-009  0.1843559E+03  0.7561462E-02  0.1066173E+00
         22   -1    0    0    0    0  0.00000000000E+00  0.00000000000E+00  0.83166207047E+03  0.83166207047E+03  0.00000000000E+00 0. -1.
         22   -1    0    0    0    0 -0.00000000000E+00 -0.00000000000E+00 -0.54875105486E+03  0.54875105486E+03  0.00000000000E+00 0.  1.
        -24    2    1    2    0    0 -0.94498577363E+02 -0.94077814161E+02 -0.47939814541E+03  0.50448562152E+03  0.83081551874E+02 0.  0.
         25    2    1    2    0    0  0.11622252964E+03  0.12329989115E+03  0.15312773305E+03  0.26040636507E+03  0.12511128162E+03 0.  0.
         24    2    1    2    0    0 -0.21723952279E+02 -0.29222076988E+02  0.60918142797E+03  0.61552113874E+03  0.80239642098E+02 0.  0.
        -13    1    5    5    0    0  0.16693665164E+02 -0.34085572362E+02  0.15064947573E+03  0.15535690920E+03  0.00000000000E+00 0.  1.
         14    1    5    5    0    0 -0.38417617443E+02  0.48634953741E+01  0.45853195224E+03  0.46016422954E+03  0.00000000000E+00 0. -1.
         13    1    3    3    0    0 -0.28547161060E+00 -0.19130967373E+02 -0.13840026468E+02  0.23614015739E+02  0.00000000000E+00 0. -1.
        -14    1    3    3    0    0 -0.94213105752E+02 -0.74946846788E+02 -0.46555811894E+03  0.48087160578E+03  0.00000000000E+00 0.  1.
          5    1    4    4  501    0  0.39199184489E+02  0.50193579837E+02  0.13931204738E+03  0.15323606124E+03  0.41800000000E+01 0.  1.
         -5    1    4    4    0  501  0.77023345153E+02  0.73106311312E+02  0.13815685672E+02  0.10717030383E+03  0.41800000000E+01 0.  1.
</event>
<event>
11    1  0.8041700E-009  0.1804395E+03  0.7561462E-02  0.1069288E+00
         22   -1    0    0    0    0  0.00000000000E+00  0.00000000000E+00  0.21570332850E+03  0.21570332850E+03  0.00000000000E+00 0.  1.
         22   -1    0    0    0    0 -0.00000000000E+00 -0.00000000000E+00 -0.11677631364E+04  0.11677631364E+04  0.00000000000E+00 0. -1.
        -24    2    1    2    0    0 -0.12351864622E+03 -0.44846042326E+02 -0.94831801398E+03  0.96068703524E+03  0.79652373264E+02 0.  0.
         25    2    1    2    0    0  0.83044954715E+02  0.11419267951E+03 -0.14722450535E+03  0.23928850084E+03  0.12508996402E+03 0.  0.
         24    2    1    2    0    0  0.40473691503E+02 -0.69346637188E+02  0.14348271144E+03  0.18349092880E+03  0.81452788010E+02 0.  0.
        -13    1    5    5    0    0  0.30069581665E+02 -0.49821567584E+02  0.14961432836E+03  0.16053291123E+03  0.00000000000E+00 0.  1.
         14    1    5    5    0    0  0.10404109839E+02 -0.19525069603E+02 -0.61316169157E+01  0.22958017566E+02  0.00000000000E+00 0. -1.
         13    1    3    3    0    0 -0.12622203006E+03 -0.40030332853E+02 -0.70627969731E+03  0.71858572158E+03  0.00000000000E+00 0. -1.
        -14    1    3    3    0    0  0.27033838444E+01 -0.48157094729E+01 -0.24203831666E+03  0.24210131366E+03  0.00000000000E+00 0.  1.
          5    1    4    4  501    0  0.62659325425E+02 -0.91762826239E+01 -0.52410853849E+02  0.82308962007E+02  0.41800000000E+01 0.  1.
         -5    1    4    4    0  501  0.20385629290E+02  0.12336896214E+03 -0.94813651501E+02  0.15697953883E+03  0.41800000000E+01 0.  1.
</event>
<event>
11    1  0.8041700E-009  0.1558818E+03  0.7561462E-02  0.1091016E+00
         22   -1    0    0    0    0  0.00000000000E+00  0.00000000000E+00  0.15594221560E+04  0.15594221560E+04  0.00000000000E+00 0.  1.
         22   -1    0    0    0    0 -0.00000000000E+00 -0.00000000000E+00 -0.21889842761E+03  0.21889842761E+03  0.00000000000E+00 0.  1.
         24    2    1    2    0    0  0.93004792437E+02  0.16958707286E+02 -0.17812578337E+03  0.21635811264E+03  0.78387173909E+02 0.  0.
         25    2    1    2    0    0 -0.63052673690E+02 -0.48126406223E+02  0.25382256265E+03  0.29388078361E+03  0.12509288960E+03 0.  0.
        -24    2    1    2    0    0 -0.29952118748E+02  0.31167698936E+02  0.12648269491E+04  0.12680816874E+04  0.79846100596E+02 0.  0.
        -11    1    3    3    0    0  0.81255202152E+02 -0.20290366273E+02 -0.12174449952E+03  0.14776951649E+03  0.00000000000E+00 0.  1.
         12    1    3    3    0    0  0.11749590286E+02  0.37249073559E+02 -0.56381283855E+02  0.68588596151E+02  0.00000000000E+00 0. -1.
         11    1    5    5    0    0 -0.10225758989E+02  0.40112200217E+01  0.20127212842E+02  0.22929472950E+02  0.00000000000E+00 0. -1.
        -12    1    5    5    0    0 -0.19726359758E+02  0.27156478915E+02  0.12446997363E+04  0.12451522145E+04  0.00000000000E+00 0.  1.
          5    1    4    4  501    0 -0.53510309013E+02  0.11272751208E+02  0.30910317178E+02  0.62955128453E+02  0.41800000000E+01 0.  1.
         -5    1    4    4    0  501 -0.95423646767E+01 -0.59399157431E+02  0.22291224547E+03  0.23092565516E+03  0.41800000000E+01 0.  1.
</event>
<event>
11    1  0.8041700E-009  0.2033460E+03  0.7561462E-02  0.1052182E+00
         22   -1    0    0    0    0  0.00000000000E+00  0.00000000000E+00  0.14475768790E+04  0.14475768790E+04  0.00000000000E+00 0. -1.
         22   -1    0    0    0    0 -0.00000000000E+00 -0.00000000000E+00 -0.75579455059E+02  0.75579455059E+02  0.00000000000E+00 0.  1.
        -24    2    1    2    0    0 -0.87258562413E+02  0.13077705310E+03  0.78789908894E+02  0.19271843638E+03  0.78840672542E+02 0.  0.
         25    2    1    2    0    0  0.92110006295E+02 -0.15270213955E+03  0.76392508110E+03  0.79437332337E+03  0.12508097642E+03 0.  0.
         24    2    1    2    0    0 -0.48514438824E+01  0.21925086450E+02  0.52928243395E+03  0.53606457432E+03  0.81982236027E+02 0.  0.
        -13    1    5    5    0    0 -0.11711607363E+01  0.46735951944E+02  0.18308184323E+03  0.18895656152E+03  0.00000000000E+00 0.  1.
         14    1    5    5    0    0 -0.36802831461E+01 -0.24810865493E+02  0.34620059072E+03  0.34710801280E+03  0.00000000000E+00 0. -1.
         11    1    3    3    0    0  0.11482251054E+02 -0.21420456919E+00  0.22509187476E+01  0.11702760703E+02  0.00000000000E+00 0. -1.
        -12    1    3    3    0    0 -0.98740813467E+02  0.13099125766E+03  0.76538990147E+02  0.18101567568E+03  0.00000000000E+00 0.  1.
          5    1    4    4  501    0  0.10258585715E+03 -0.50160825946E+02  0.37751705047E+03  0.39443194894E+03  0.41800000000E+01 0.  1.
         -5    1    4    4    0  501 -0.10475850851E+02 -0.10254131360E+03  0.38640803063E+03  0.39994137444E+03  0.41800000000E+01 0.  1.
</event>
<event>
11    1  0.8041700E-009  0.1320245E+03  0.7561462E-02  0.1116806E+00
         22   -1    0    0    0    0  0.00000000000E+00  0.00000000000E+00  0.41544342179E+03  0.41544342179E+03  0.00000000000E+00 0.  1.
         22   -1    0    0    0    0 -0.00000000000E+00 -0.00000000000E+00 -0.29563737563E+03  0.29563737563E+03  0.00000000000E+00 0.  1.
         24    2    1    2    0    0 -0.98037962312E+01  0.40821015738E+01 -0.23582088050E+03  0.24902068822E+03  0.79290841250E+02 0.  0.
         25    2    1    2    0    0  0.50757145763E+02 -0.59772261869E+01  0.51187819976E+02  0.14449661313E+03  0.12508822172E+03 0.  0.
        -24    2    1    2    0    0 -0.40953349532E+02  0.18951246131E+01  0.30443910668E+03  0.31756349607E+03  0.80514818651E+02 0.  0.
        -11    1    3    3    0    0  0.16585863170E+01  0.99809052124E+01 -0.23591233506E+03  0.23612920025E+03  0.00000000000E+00 0.  1.
         12    1    3    3    0    0 -0.11462382548E+02 -0.58988036386E+01  0.91454559536E-01  0.12891487966E+02  0.00000000000E+00 0. -1.
         11    1    5    5    0    0 -0.27393868239E+02  0.11683803056E+02  0.28838413767E+02  0.41455872678E+02  0.00000000000E+00 0. -1.
        -12    1    5    5    0    0 -0.13559481293E+02 -0.97886784424E+01  0.27560069292E+03  0.27610762339E+03  0.00000000000E+00 0.  1.
          5    1    4    4  501    0  0.66593185460E+02 -0.52012118018E+02  0.43178018435E+02  0.94982769208E+02  0.41800000000E+01 0.  1.
         -5    1    4    4    0  501 -0.15836039697E+02  0.46034891832E+02  0.80098015408E+01  0.49513843922E+02  0.41800000000E+01 0.  1.
</event>
<event>
11    1  0.8041700E-009  0.1773725E+03  0.7561462E-02  0.1071788E+00
         22   -1    0    0    0    0  0.00000000000E+00  0.00000000000E+00  0.10600269340E+03  0.10600269340E+03  0.00000000000E+00 0. -1.
         22   -1    0    0    0    0 -0.00000000000E+00 -0.00000000000E+00 -0.38802918023E+04  0.38802918023E+04  0.00000000000E+00 0. -1.
         24    2    1    2    0    0  0.10171359790E+03 -0.10077113171E+03 -0.29077061628E+04  0.29123493638E+04  0.80766393836E+02 0.  0.
         25    2    1    2    0    0 -0.10755093453E+03 -0.22022699223E+02 -0.90398381697E+03  0.91917702042E+03  0.12508977068E+03 0.  0.
        -24    2    1    2    0    0  0.58373366254E+01  0.12279383093E+03  0.37400870958E+02  0.15476811144E+03  0.86266701325E+02 0.  0.
        -11    1    3    3    0    0 -0.54158821476E+01 -0.40450186207E+02 -0.61965613414E+03  0.62099861024E+03  0.00000000000E+00 0.  1.
         12    1    3    3    0    0  0.10712948005E+03 -0.60320945500E+02 -0.22880500287E+04  0.22913507536E+04  0.00000000000E+00 0. -1.
         11    1    5    5    0    0 -0.13165631663E+02  0.11399624355E+03  0.55148976949E+02  0.12731805473E+03  0.00000000000E+00 0. -1.
        -12    1    5    5    0    0  0.19002968289E+02  0.87975873801E+01 -0.17748105990E+02  0.27450056717E+02  0.00000000000E+00 0.  1.
          5    1    4    4  501    0  0.95297362315E+01  0.34460241611E+02 -0.17168661283E+03  0.17541975245E+03  0.41800000000E+01 0.  1.
         -5    1    4    4    0  501 -0.11708067076E+03 -0.56482940833E+02 -0.73229720414E+03  0.74375726798E+03  0.41800000000E+01 0.  1.
</event>
<event>
11    1  0.8041700E-009  0.2351752E+03  0.7561462E-02  0.1032107E+00
         22   -1    0    0    0    0  0.00000000000E+00  0.00000000000E+00  0.96333985512E+03  0.96333985512E+03  0.00000000000E+00 0.  1.
         22   -1    0    0    0    0 -0.00000000000E+00 -0.00000000000E+00 -0.10148697540E+04  0.10148697540E+04  0.00000000000E+00 0.  1.
         24    2    1    2    0    0 -0.19240472788E+02  0.27056439022E+02 -0.81822207665E+03  0.82300310343E+03  0.82124873584E+02 0.  0.
         25    2    1    2    0    0 -0.11950033512E+03 -0.16935347727E+03 -0.10033944324E+03  0.26205943478E+03  0.12508482374E+03 0.  0.
        -24    2    1    2    0    0  0.13874080790E+03  0.14229703825E+03  0.86703162097E+03  0.89314707093E+03  0.80438794598E+02 0.  0.
        -13    1    3    3    0    0 -0.40813238620E+02  0.21687522110E+01 -0.66627594350E+03  0.66752831911E+03  0.00000000000E+00 0.  1.
         14    1    3    3    0    0  0.21572765832E+02  0.24887686811E+02 -0.15194613315E+03  0.15547478432E+03  0.00000000000E+00 0. -1.
         11    1    5    5    0    0 -0.77047894823E+01 -0.27662072557E+01  0.38255634920E+02  0.39121723974E+02  0.00000000000E+00 0. -1.
        -12    1    5    5    0    0  0.14644559739E+03  0.14506324551E+03  0.82877598605E+03  0.85402534696E+03  0.00000000000E+00 0.  1.
          5    1    4    4  501    0 -0.13645404966E+03 -0.14465604244E+03 -0.11357292620E+03  0.22904445037E+03  0.41800000000E+01 0.  1.
         -5    1    4    4    0  501  0.16953714539E+02 -0.24697434836E+02  0.13233482958E+02  0.33014984406E+02  0.41800000000E+01 0.  1.
</event>
<event>
11    1  0.8041700E-009  0.1928222E+03  0.7561462E-02  0.1059719E+00
         22   -1    0    0    0    0  0.00000000000E+00  0.00000000000E+00  0.20388482102E+04  0.20388482102E+04  0.00000000000E+00 0. -1.
         22   -1    0    0    0    0 -0.00000000000E+00 -0.00000000000E+00 -0.10082770294E+04  0.10082770294E+04  0.00000000000E+00 0. -1.
        -24    2    1    2    0    0 -0.46884944366E+02 -0.64786161203E+02 -0.94318861245E+03  0.94995715899E+03  0.80114920985E+02 0.  0.
         25    2    1    2    0    0  0.16212350110E+03 -0.26258446617E+02  0.12563374892E+03  0.24167147100E+03  0.12509086857E+03 0.  0.
         24    2    1    2    0    0 -0.11523855673E+03  0.91044607820E+02  0.18481260444E+04  0.18554966096E+04  0.75688484457E+02 0.  0.
        -13    1    5    5    0    0 -0.53934238281E+02  0.35355523467E+02  0.12501448134E+04  0.12518070816E+04  0.00000000000E+00 0.  1.
         14    1    5    5    0    0 -0.61304318453E+02  0.55689084353E+02  0.59798123097E+03  0.60368952796E+03  0.00000000000E+00 0. -1.
         11    1    3    3    0    0 -0.69641113688E+02 -0.49437807658E+02 -0.74414168635E+03  0.74902658892E+03  0.00000000000E+00 0. -1.
        -12    1    3    3    0    0  0.22756169321E+02 -0.15348353544E+02 -0.19904692610E+03  0.20093057007E+03  0.00000000000E+00 0.  1.
          5    1    4    4  501    0  0.14419067007E+02  0.25682551116E+02 -0.13036170909E+02  0.32479487021E+02  0.41800000000E+01 0.  1.
         -5    1    4    4    0  501  0.14770443409E+03 -0.51940997733E+02  0.13866991982E+03  0.20919198398E+03  0.41800000000E+01 0.  1.
</event>
<event>
11    1  0.8041700E-009  0.1876638E+03  0.7561462E-02  0.1063607E+00
         22   -1    0    0    0    0  0.00000000000E+00  0.00000000000E+00  0.60173340477E+03  0.60173340477E+03  0.00000000000E+00 0. -1.
         22   -1    0    0    0    0 -0.00000000000E+00 -0.00000000000E+00 -0.45862544975E+03  0.45862544975E+03  0.00000000000E+00 0.  1.
        -24    2    1    2    0    0  0.51063112411E+01 -0.92182502851E+00 -0.34887260391E+03  0.35831142504E+03  0.81535632593E+02 0.  0.
         25    2    1    2    0    0  0.57105456492E+02  0.12641870790E+03  0.26976542289E+01  0.18680850310E+03  0.12508963436E+03 0.  0.
         24    2    1    2    0    0 -0.62211767733E+02 -0.12549688287E+03  0.48928290469E+03  0.51523892638E+03  0.80334418357E+02 0.  0.
        -11    1    5    5    0    0  0.15820220506E+02 -0.32873268512E+02  0.16730015134E+03  0.17123163200E+03  0.00000000000E+00 0.  1.
         12    1    5    5    0    0 -0.78031988240E+02 -0.92623614360E+02  0.32198275335E+03  0.34400729438E+03  0.00000000000E+00 0. -1.
         13    1    3    3    0    0 -0.28496780568E+02 -0.15289551137E+02 -0.70661579473E+02  0.77710331941E+02  0.00000000000E+00 0. -1.
        -14    1    3    3    0    0  0.33603091809E+02  0.14367726109E+02 -0.27821102443E+03  0.28060109310E+03  0.00000000000E+00 0.  1.
          5    1    4    4  501    0 -0.44340776141E+01 -0.19432667591E+01  0.39259721020E+02  0.39777322993E+02  0.41800000000E+01 0. -1.
         -5    1    4    4    0  501  0.61539534106E+02  0.12836197466E+03 -0.36562066791E+02  0.14703118011E+03  0.41800000000E+01 0. -1.
</event>
<event>
11    1  0.8041700E-009  0.2654475E+03  0.7561462E-02  0.1015977E+00
         22   -1    0    0    0    0  0.00000000000E+00  0.00000000000E+00  0.51446247214E+03  0.51446247214E+03  0.00000000000E+00 0. -1.
         22   -1    0    0    0    0 -0.00000000000E+00 -0.00000000000E+00 -0.82075993995E+03  0.82075993995E+03  0.00000000000E+00 0. -1.
         24    2    1    2    0    0  0.11272821931E+03  0.22498767056E+03 -0.62074294395E+03  0.67461747817E+03  0.80373105299E+02 0.  0.
         25    2    1    2    0    0 -0.91571638915E+02 -0.16095305586E+03 -0.89622300160E+02  0.24076889390E+03  0.12508498047E+03 0.  0.
        -24    2    1    2    0    0 -0.21156580395E+02 -0.64034614702E+02  0.40406777630E+03  0.41983604003E+03  0.91888518842E+02 0.  0.
        -11    1    3    3    0    0 -0.37974852075E+01  0.16471290883E+02 -0.12122733955E+02  0.20801081602E+02  0.00000000000E+00 0.  1.
         12    1    3    3    0    0  0.11652570452E+03  0.20851637968E+03 -0.60862020999E+03  0.65381639657E+03  0.00000000000E+00 0. -1.
         13    1    5    5    0    0 -0.43316767350E+01 -0.45481788588E+02  0.38662471211E+03  0.38931481417E+03  0.00000000000E+00 0. -1.
        -14    1    5    5    0    0 -0.16824903660E+02 -0.18552826114E+02  0.17443064183E+02  0.30521225861E+02  0.00000000000E+00 0.  1.
          5    1    4    4  501    0 -0.36062425387E+02 -0.73797464442E+02 -0.10798236853E+03  0.13573587808E+03  0.41800000000E+01 0.  1.
         -5    1    4    4    0  501 -0.55509213528E+02 -0.87155591419E+02  0.18360068375E+02  0.10503301582E+03  0.41800000000E+01 0.  1.
</event>
<event>
11    1  0.8041700E-009  0.2084239E+03  0.7561462E-02  0.1048721E+00
         22   -1    0    0    0    0  0.00000000000E+00  0.00000000000E+00  0.64975382406E+03  0.64975382406E+03  0.00000000000E+00 0.  1.
         22   -1    0    0    0    0 -0.00000000000E+00 -0.00000000000E+00 -0.14609774472E+04  0.14609774472E+04  0.00000000000E+00 0.  1.
        -24    2    1    2    0    0  0.51142553436E+02  0.15796906865E+03 -0.13934207740E+04  0.14056207332E+04  0.81107365573E+02 0.  0.
         25    2    1    2    0    0 -0.12824574211E+03 -0.16603761767E+03  0.22945843510E+03  0.33513273483E+03  0.12508923082E+03 0.  0.
         24    2    1    2    0    0  0.77103188678E+02  0.80685490257E+01  0.35273871577E+03  0.36997780322E+03  0.80305479790E+02 0.  0.
        -11    1    5    5    0    0  0.44204617458E+02 -0.31637053475E+02  0.23888345093E+03  0.24499031509E+03  0.00000000000E+00 0.  1.
         12    1    5    5    0    0  0.32898571220E+02  0.39705602501E+02  0.11385526484E+03  0.12498748813E+03  0.00000000000E+00 0. -1.
         13    1    3    3    0    0 -0.10988937918E+02 -0.26798325024E+01 -0.54123454423E+02  0.55292735304E+02  0.00000000000E+00 0. -1.
        -14    1    3    3    0    0  0.62131491354E+02  0.16064890115E+03 -0.13392973196E+04  0.13503279979E+04  0.00000000000E+00 0.  1.
          5    1    4    4  501    0 -0.13339476831E+03 -0.15046555954E+03  0.14237239818E+03  0.24641716860E+03  0.41800000000E+01 0. -1.
         -5    1    4    4    0  501  0.51490261944E+01 -0.15572058135E+02  0.87086036918E+02  0.88715566230E+02  0.41800000000E+01 0. -1.
</event>
<event>
11    1  0.8041700E-009  0.1904338E+03  0.7561462E-02  0.1061502E+00
         22   -1    0    0    0    0  0.00000000000E+00  0.00000000000E+00  0.20655749858E+04  0.20655749858E+04  0.00000000000E+00 0.  1.
         22   -1    0    0    0    0 -0.00000000000E+00 -0.00000000000E+00 -0.26347819074E+03  0.26347819074E+03  0.00000000000E+00 0. -1.
         24    2    1    2    0    0 -0.23133412324E+02 -0.39036462352E+02 -0.18770634739E+03  0.20847518900E+03  0.78544455040E+02 0.  0.
         25    2    1    2    0    0  0.31601470281E+02  0.18018444224E+03  0.13672752219E+03  0.26039092264E+03  0.12507570157E+03 0.  0.
        -24    2    1    2    0    0 -0.84680579570E+01 -0.14114797988E+03  0.18530756202E+04  0.18601870649E+04  0.80076225145E+02 0.  0.
        -11    1    3    3    0    0  0.79965678106E+01  0.31742428583E+01  0.41692159196E+01  0.95605060461E+01  0.00000000000E+00 0.  1.
         12    1    3    3    0    0 -0.31129980135E+02 -0.42210705211E+02 -0.19187556331E+03  0.19891468295E+03  0.00000000000E+00 0. -1.
         13    1    5    5    0    0 -0.83441090272E+01 -0.89903119715E+02  0.67684148582E+03  0.68283716362E+03  0.00000000000E+00 0. -1.
        -14    1    5    5    0    0 -0.12394892977E+00 -0.51244860168E+02  0.11762341344E+04  0.11773499013E+04  0.00000000000E+00 0.  1.
          5    1    4    4  501    0  0.96114311694E+01  0.18023991323E+03  0.14968709118E+03  0.23452612561E+03  0.41800000000E+01 0.  1.
         -5    1    4    4    0  501  0.21990039112E+02 -0.55470997137E-01 -0.12959568981E+02  0.25864797029E+02  0.41800000000E+01 0.  1.
</event>
<event>
11    1  0.8041700E-009  0.1412528E+03  0.7561462E-02  0.1106167E+00
         22   -1    0    0    0    0  0.00000000000E+00  0.00000000000E+00  0.19807137726E+04  0.19807137726E+04  0.00000000000E+00 0.  1.
         22   -1    0    0    0    0 -0.00000000000E+00 -0.00000000000E+00 -0.73968379404E+02  0.73968379404E+02  0.00000000000E+00 0.  1.
        -24    2    1    2    0    0  0.60557605517E+02  0.21780492825E+02 -0.21952102830E+02  0.10495507905E+03  0.79950361766E+02 0.  0.
         25    2    1    2    0    0 -0.61885284654E+02  0.46846764760E+02  0.63990190610E+03  0.65661690403E+03  0.12508757494E+03 0.  0.
         24    2    1    2    0    0  0.13276791365E+01 -0.68627257584E+02  0.12887955899E+04  0.12931101689E+04  0.80177136001E+02 0.  0.
        -11    1    5    5    0    0 -0.74234394119E+01 -0.38197669371E+02  0.11536090526E+04  0.11542651409E+04  0.00000000000E+00 0.  1.
         12    1    5    5    0    0  0.87511185484E+01 -0.30429588213E+02  0.13518653731E+03  0.13884502795E+03  0.00000000000E+00 0. -1.
         13    1    3    3    0    0  0.69048175449E+01 -0.12284696164E+02  0.23095595446E+02  0.27055439271E+02  0.00000000000E+00 0. -1.
        -14    1    3    3    0    0  0.53652787972E+02  0.34065188988E+02 -0.45047698276E+02  0.77899639781E+02  0.00000000000E+00 0.  1.
          5    1    4    4  501    0 -0.71193470464E+02 -0.20897255668E+02  0.41170159546E+03  0.41835497085E+03  0.41800000000E+01 0.  1.
         -5    1    4    4    0  501  0.93081858105E+01  0.67744020427E+02  0.22820031064E+03  0.23826193318E+03  0.41800000000E+01 0.  1.
</event>
<event>
11    1  0.8041700E-009  0.2120235E+03  0.7561462E-02  0.1046332E+00
         22   -1    0    0    0    0  0.00000000000E+00  0.00000000000E+00  0.13802605810E+03  0.13802605810E+03  0.00000000000E+00 0. -1.
         22   -1    0    0    0    0 -0.00000000000E+00 -0.00000000000E+00 -0.17996934936E+04  0.17996934936E+04  0.00000000000E+00 0. -1.
        -24    2    1    2    0    0  0.12677930943E+03  0.13204450735E+03 -0.15630005517E+04  0.15756454763E+04  0.78607868256E+02 0.  0.
         25    2    1    2    0    0 -0.69831555978E+02 -0.81074873315E+02 -0.16328063219E+03  0.23185654690E+03  0.12508921696E+03 0.  0.
         24    2    1    2    0    0 -0.56947753449E+02 -0.50969634033E+02  0.64613748453E+02  0.13021752849E+03  0.83310971793E+02 0.  0.
        -13    1    5    5    0    0 -0.34914212328E+02 -0.67876068216E+02  0.22149922673E+02  0.79478185267E+02  0.00000000000E+00 0.  1.
         14    1    5    5    0    0 -0.22033541121E+02  0.16906434182E+02  0.42463825780E+02  0.50739343225E+02  0.00000000000E+00 0. -1.
         11    1    3    3    0    0  0.12539950282E+03  0.84103599643E+02 -0.11502999193E+04  0.11601673824E+04  0.00000000000E+00 0. -1.
        -12    1    3    3    0    0  0.13798066120E+01  0.47940907706E+02 -0.41270063244E+03  0.41547809391E+03  0.00000000000E+00 0.  1.
          5    1    4    4  501    0 -0.59584075642E+02 -0.48020991776E+02 -0.13184721173E+02  0.77766232991E+02  0.41800000000E+01 0.  1.
         -5    1    4    4    0  501 -0.10247480336E+02 -0.33053881540E+02 -0.15009591101E+03  0.15409031391E+03  0.41800000000E+01 0.  1.
</event>
<event>
11    1  0.8041700E-009  0.1382245E+03  0.7561462E-02  0.1109557E+00
         22   -1    0    0    0    0  0.00000000000E+00  0.00000000000E+00  0.18472477625E+03  0.18472477625E+03  0.00000000000E+00 0.  1.
         22   -1    0    0    0    0 -0.00000000000E+00 -0.00000000000E+00 -0.22494586400E+04  0.22494586400E+04  0.00000000000E+00 0.  1.
        -24    2    1    2    0    0 -0.42579854752E+01  0.35173626684E+02 -0.15032948506E+04  0.15058694079E+04  0.80572645045E+02 0.  0.
         25    2    1    2    0    0 -0.54007984001E+02 -0.26038168211E+02 -0.72461172747E+03  0.73777037485E+03  0.12509245336E+03 0.  0.
         24    2    1    2    0    0  0.58265969476E+02 -0.91354584728E+01  0.16317271441E+03  0.19054363348E+03  0.78760153202E+02 0.  0.
        -13    1    5    5    0    0 -0.15508922175E+02 -0.13975607454E+02  0.60654858506E+02  0.64147144372E+02  0.00000000000E+00 0.  1.
         14    1    5    5    0    0  0.73774891651E+02  0.48401489816E+01  0.10251785590E+03  0.12639648911E+03  0.00000000000E+00 0. -1.
         11    1    3    3    0    0 -0.13584412122E+02  0.42191371225E+02 -0.38957828982E+03  0.39209168821E+03  0.00000000000E+00 0. -1.
        -12    1    3    3    0    0  0.93264266464E+01 -0.70177445406E+01 -0.11137165608E+04  0.11137777197E+04  0.00000000000E+00 0.  1.
          5    1    4    4  501    0 -0.23285407130E+02 -0.65080085634E+02 -0.59304619764E+03  0.59707528225E+03  0.41800000000E+01 0. -1.
         -5    1    4    4    0  501 -0.30722576871E+02  0.39041917423E+02 -0.13156552982E+03  0.14069509261E+03  0.41800000000E+01 0. -1.
</event>
<event>
11    1  0.8041700E-009  0.1376266E+03  0.7561462E-02  0.1110238E+00
         22   -1    0    0    0    0  0.00000000000E+00  0.00000000000E+00  0.24111890677E+04  0.24111890677E+04  0.00000000000E+00 0. -1.
         22   -1    0    0    0    0 -0.00000000000E+00 -0.00000000000E+00 -0.60233208572E+03  0.60233208572E+03  0.00000000000E+00 0.  1.
         24    2    1    2    0    0  0.55232963542E+02 -0.52028789637E+01 -0.58710908363E+03  0.59510663826E+03  0.79856650357E+02 0.  0.
         25    2    1    2    0    0 -0.88905672080E+02 -0.36199480412E+02  0.61970223505E+03  0.63945186356E+03  0.12511276827E+03 0.  0.
        -24    2    1    2    0    0  0.33672708537E+02  0.41402359375E+02  0.17762638306E+04  0.17789626516E+04  0.82139596733E+02 0.  0.
        -11    1    3    3    0    0  0.27622567444E+02  0.37191179218E+02 -0.30468795820E+03  0.30818978231E+03  0.00000000000E+00 0.  1.
         12    1    3    3    0    0  0.27610396098E+02 -0.42394058181E+02 -0.28242112543E+03  0.28691685595E+03  0.00000000000E+00 0. -1.
         13    1    5    5    0    0  0.40418614467E+02 -0.28612822718E+01  0.12914850223E+04  0.12921205107E+04  0.00000000000E+00 0. -1.
        -14    1    5    5    0    0 -0.67459059294E+01  0.44263641647E+02  0.48477880829E+03  0.48684214093E+03  0.00000000000E+00 0.  1.
          5    1    4    4  501    0 -0.30714591204E+02  0.54862741074E+01  0.24351959412E+02  0.39799191495E+02  0.41800000000E+01 0. -1.
         -5    1    4    4    0  501 -0.58191080876E+02 -0.41685754519E+02  0.59535027563E+03  0.59965267207E+03  0.41800000000E+01 0. -1.
</event>
<event>
11    1  0.8041700E-009  0.1363125E+03  0.7561462E-02  0.1111747E+00
         22   -1    0    0    0    0  0.00000000000E+00  0.00000000000E+00  0.91024176456E+03  0.91024176456E+03  0.00000000000E+00 0. -1.
         22   -1    0    0    0    0 -0.00000000000E+00 -0.00000000000E+00 -0.14059167156E+04  0.14059167156E+04  0.00000000000E+00 0. -1.
        -24    2    1    2    0    0 -0.82312655931E+01  0.85123909660E+01 -0.12245544023E+04  0.12273193123E+04  0.81480031956E+02 0.  0.
         25    2    1    2    0    0  0.43389277237E+02  0.32708536763E+02 -0.15110956391E+03  0.20355396338E+03  0.12509051901E+03 0.  0.
         24    2    1    2    0    0 -0.35158011644E+02 -0.41220927729E+02  0.87998901521E+03  0.88528520444E+03  0.80087300171E+02 0.  0.
        -11    1    5    5    0    0 -0.45503338632E+02 -0.37558726378E+02  0.33303589797E+03  0.33822199972E+03  0.00000000000E+00 0.  1.
         12    1    5    5    0    0  0.10345326988E+02 -0.36622013511E+01  0.54695311724E+03  0.54706320473E+03  0.00000000000E+00 0. -1.
         13    1    3    3    0    0 -0.21993563950E+02  0.27677702502E+02 -0.10989214555E+04  0.10994899442E+04  0.00000000000E+00 0. -1.
        -14    1    3    3    0    0  0.13762298356E+02 -0.19165311536E+02 -0.12563294682E+03  0.12782936810E+03  0.00000000000E+00 0.  1.
          5    1    4    4  501    0 -0.76832600866E+01  0.58373655429E+02 -0.12947611035E+03  0.14229564886E+03  0.41800000000E+01 0.  1.
         -5    1    4    4    0  501  0.51072537324E+02 -0.25665118666E+02 -0.21633453564E+02  0.61258314521E+02  0.41800000000E+01 0.  1.
</event>
<event>
11    1  0.8041700E-009  0.2435209E+03  0.7561462E-02  0.1027408E+00
         22   -1    0    0    0    0  0.00000000000E+00  0.00000000000E+00  0.54690132965E+03  0.54690132965E+03  0.00000000000E+00 0. -1.
         22   -1    0    0    0    0 -0.00000000000E+00 -0.00000000000E+00 -0.45979192562E+03  0.45979192562E+03  0.00000000000E+00 0. -1.
         24    2    1    2    0    0 -0.12007692745E+02  0.23630768756E+03 -0.32254367877E+03  0.40783076273E+03  0.79410316928E+02 0.  0.
         25    2    1    2    0    0  0.68138032904E+02 -0.12916523674E+03  0.33007438551E+02  0.19509736573E+03  0.12508813374E+03 0.  0.
        -24    2    1    2    0    0 -0.56130340158E+02 -0.10714245081E+03  0.37664564425E+03  0.40376512681E+03  0.80834500305E+02 0.  0.
        -11    1    3    3    0    0  0.87873759640E+01  0.45801596894E+02 -0.22430127161E+02  0.51750505880E+02  0.00000000000E+00 0.  1.
         12    1    3    3    0    0 -0.20795068709E+02  0.19050609066E+03 -0.30011355161E+03  0.35608025685E+03  0.00000000000E+00 0. -1.
         13    1    5    5    0    0 -0.65289703909E+02 -0.11052940226E+03  0.37077879043E+03  0.39237278911E+03  0.00000000000E+00 0. -1.
        -14    1    5    5    0    0  0.91593637509E+01  0.33869514506E+01  0.58668538219E+01  0.11392337698E+02  0.00000000000E+00 0.  1.
          5    1    4    4  501    0  0.63774557675E+02 -0.72954577205E+02 -0.38143278331E+02  0.10422066313E+03  0.41800000000E+01 0. -1.
         -5    1    4    4    0  501  0.43634752288E+01 -0.56210659539E+02  0.71150716882E+02  0.90876702596E+02  0.41800000000E+01 0. -1.
</event>
<event>
11    1  0.8041700E-009  0.1313136E+03  0.7561462E-02  0.1117665E+00
         22   -1    0    0    0    0  0.00000000000E+00  0.00000000000E+00  0.58193883590E+02  0.58193883590E+02  0.00000000000E+00 0. -1.
         22   -1    0    0    0    0 -0.00000000000E+00 -0.00000000000E+00 -0.10180168932E+04  0.10180168932E+04  0.00000000000E+00 0. -1.
         24    2    1    2    0    0  0.20308415809E+02  0.27159186359E+02 -0.44167605555E+03  0.44972531206E+03  0.77621292811E+02 0.  0.
         25    2    1    2    0    0  0.95174199553E+01 -0.53304030684E+02 -0.51874544455E+03  0.53635390351E+03  0.12508706011E+03 0.  0.
        -24    2    1    2    0    0 -0.29825835764E+02  0.26144844325E+02  0.59849052523E+00  0.90131561187E+02  0.80933347683E+02 0.  0.
        -13    1    3    3    0    0  0.12835525981E+02 -0.45621537902E+00 -0.80528561903E+01  0.15159398158E+02  0.00000000000E+00 0.  1.
         14    1    3    3    0    0  0.74728898276E+01  0.27615401738E+02 -0.43362319936E+03  0.43456591390E+03  0.00000000000E+00 0. -1.
         13    1    5    5    0    0 -0.48377562149E+02  0.42692793177E+02 -0.47734608217E+01  0.64698137817E+02  0.00000000000E+00 0. -1.
        -14    1    5    5    0    0  0.18551726384E+02 -0.16547948852E+02  0.53719513469E+01  0.25433423370E+02  0.00000000000E+00 0.  1.
          5    1    4    4  501    0  0.64088868491E+02 -0.49506529869E+02 -0.29031495506E+03  0.30142747900E+03  0.41800000000E+01 0. -1.
         -5    1    4    4    0  501 -0.54571448536E+02 -0.37975008153E+01 -0.22843048949E+03  0.23492642451E+03  0.41800000000E+01 0. -1.
</event>
<event>
11    1  0.8041700E-009  0.1310215E+03  0.7561462E-02  0.1118020E+00
         22   -1    0    0    0    0  0.00000000000E+00  0.00000000000E+00  0.60078036504E+03  0.60078036504E+03  0.00000000000E+00 0. -1.
         22   -1    0    0    0    0 -0.00000000000E+00 -0.00000000000E+00 -0.12876085598E+03  0.12876085598E+03  0.00000000000E+00 0. -1.
        -24    2    1    2    0    0  0.38689580983E+02  0.97790102668E+00 -0.90743471443E+02  0.12688027598E+03  0.79789641287E+02 0.  0.
         25    2    1    2    0    0 -0.44167284810E+02  0.19065522452E+02  0.31930873308E+03  0.34629490043E+03  0.12509135802E+03 0.  0.
         24    2    1    2    0    0  0.54777038268E+01 -0.20043423478E+02  0.24345424742E+03  0.25636604461E+03  0.77600477944E+02 0.  0.
        -13    1    5    5    0    0 -0.10551799212E+01 -0.34277835208E+02  0.41636382930E+02  0.53941373497E+02  0.00000000000E+00 0.  1.
         14    1    5    5    0    0  0.65328837480E+01  0.14234411729E+02  0.20181786449E+03  0.20242467111E+03  0.00000000000E+00 0. -1.
         11    1    3    3    0    0  0.13385960263E+02 -0.43966410452E-01 -0.99262891440E+02  0.10016140715E+03  0.00000000000E+00 0. -1.
        -12    1    3    3    0    0  0.25303620720E+02  0.10218674371E+01  0.85194199969E+01  0.26718868833E+02  0.00000000000E+00 0.  1.
          5    1    4    4  501    0  0.69879635297E+01  0.61913955186E+02  0.20008083141E+03  0.20959957295E+03  0.41800000000E+01 0.  1.
         -5    1    4    4    0  501 -0.51155248340E+02 -0.42848432734E+02  0.11922790167E+03  0.13669532748E+03  0.41800000000E+01 0.  1.
</event>
<event>
11    1  0.8041700E-009  0.1415418E+03  0.7561462E-02  0.1105849E+00
         22   -1    0    0    0    0  0.00000000000E+00  0.00000000000E+00  0.24180014317E+04  0.24180014317E+04  0.00000000000E+00 0.  1.
         22   -1    0    0    0    0 -0.00000000000E+00 -0.00000000000E+00 -0.13627063809E+03  0.13627063809E+03  0.00000000000E+00 0.  1.
         24    2    1    2    0    0  0.47164953120E+02  0.53353352276E+02 -0.94289030100E+02  0.14365395992E+03  0.81700220336E+02 0.  0.
         25    2    1    2    0    0 -0.40441360478E+01 -0.18132715948E+02  0.23133121801E+03  0.26364079059E+03  0.12508870299E+03 0.  0.
        -24    2    1    2    0    0 -0.43120817072E+02 -0.35220636328E+02  0.21446886057E+04  0.21469773193E+04  0.81990828703E+02 0.  0.
        -11    1    3    3    0    0  0.58772981399E+02  0.88344830977E+01 -0.36341958404E+02  0.69663831181E+02  0.00000000000E+00 0.  1.
         12    1    3    3    0    0 -0.11608028279E+02  0.44518869178E+02 -0.57947071695E+02  0.73990128744E+02  0.00000000000E+00 0. -1.
         11    1    5    5    0    0 -0.18379245188E+02  0.12904054709E+02  0.16185540718E+03  0.16340588763E+03  0.00000000000E+00 0. -1.
        -12    1    5    5    0    0 -0.24741571884E+02 -0.48124691037E+02  0.19828331985E+04  0.19835714316E+04  0.00000000000E+00 0.  1.
          5    1    4    4  501    0 -0.21517071818E+02  0.20493276238E+01  0.23530267937E+03  0.23633029312E+03  0.41800000000E+01 0.  1.
         -5    1    4    4    0  501  0.17472935770E+02 -0.20182043572E+02 -0.39714613652E+01  0.27310497479E+02  0.41800000000E+01 0.  1.
</event>
<event>
11    1  0.8041700E-009  0.1768679E+03  0.7561462E-02  0.1072205E+00
         22   -1    0    0    0    0  0.00000000000E+00  0.00000000000E+00  0.75126066165E+03  0.75126066165E+03  0.00000000000E+00 0. -1.
         22   -1    0    0    0    0 -0.00000000000E+00 -0.00000000000E+00 -0.15894782514E+04  0.15894782514E+04  0.00000000000E+00 0. -1.
        -24    2    1    2    0    0  0.54991771710E+02 -0.11376829632E+03 -0.15181011047E+04  0.15254349117E+04  0.79708126179E+02 0.  0.
         25    2    1    2    0    0 -0.47765115142E+02  0.78494540397E+02  0.28220056391E+02  0.15775611723E+03  0.12509085435E+03 0.  0.
         24    2    1    2    0    0 -0.72266565679E+01  0.35273755924E+02  0.65166345859E+03  0.65754788415E+03  0.80046825409E+02 0.  0.
        -13    1    5    5    0    0 -0.39766069655E+02  0.51674166319E+00  0.26596841996E+03  0.26892528281E+03  0.00000000000E+00 0.  1.
         14    1    5    5    0    0  0.32539413087E+02  0.34757014261E+02  0.38569503864E+03  0.38862260134E+03  0.00000000000E+00 0. -1.
         13    1    3    3    0    0  0.53514158349E+02 -0.11601986589E+03 -0.15172361645E+04  0.15226063028E+04  0.00000000000E+00 0. -1.
        -14    1    3    3    0    0  0.14776133613E+01  0.22515695658E+01 -0.86494025771E+00  0.28286089169E+01  0.00000000000E+00 0.  1.
          5    1    4    4  501    0  0.13279252309E+02  0.57824910819E+02  0.61113100932E+02  0.85278029753E+02  0.41800000000E+01 0.  1.
         -5    1    4    4    0  501 -0.61044367451E+02  0.20669629579E+02 -0.32893044542E+02  0.72478087472E+02  0.41800000000E+01 0.  1.
</event>
<event>
11    1  0.8041700E-009  0.1564224E+03  0.7561462E-02  0.1090491E+00
         22   -1    0    0    0    0  0.00000000000E+00  0.00000000000E+00  0.45119696602E+03  0.45119696602E+03  0.00000000000E+00 0. -1.
         22   -1    0    0    0    0 -0.00000000000E+00 -0.00000000000E+00 -0.52252809893E+03  0.52252809893E+03  0.00000000000E+00 0.  1.
        -24    2    1    2    0    0 -0.24977163826E+02 -0.87644238056E+02 -0.41852867660E+03  0.43560033620E+03  0.79221389698E+02 0.  0.
         25    2    1    2    0    0  0.84118837465E+02  0.10489030925E+03  0.74161455546E+01  0.18379364869E+03  0.12508856979E+03 0.  0.
         24    2    1    2    0    0 -0.59141673639E+02 -0.17246071192E+02  0.33978139813E+03  0.35433108006E+03  0.79397425957E+02 0.  0.
        -13    1    5    5    0    0 -0.57663209825E+01 -0.36623934851E+02  0.76692788335E+02  0.85184193629E+02  0.00000000000E+00 0.  1.
         14    1    5    5    0    0 -0.53375352657E+02  0.19377863660E+02  0.26308860979E+03  0.26914688643E+03  0.00000000000E+00 0. -1.
         13    1    3    3    0    0  0.13135308169E+02 -0.69385191099E+02 -0.17999762708E+03  0.19335456245E+03  0.00000000000E+00 0. -1.
        -14    1    3    3    0    0 -0.38112471995E+02 -0.18259046957E+02 -0.23853104952E+03  0.24224577375E+03  0.00000000000E+00 0.  1.
          5    1    4    4  501    0  0.62698514961E+02  0.29798289129E+02  0.58087401140E+02  0.90612694389E+02  0.41800000000E+01 0. -1.
         -5    1    4    4    0  501  0.21420322505E+02  0.75092020119E+02 -0.50671255585E+02  0.93180954300E+02  0.41800000000E+01 0. -1.
</event>
<event>
11    1  0.8041700E-009  0.1375675E+03  0.7561462E-02  0.1110306E+00
         22   -1    0    0    0    0  0.00000000000E+00  0.00000000000E+00  0.34165660698E+03  0.34165660698E+03  0.00000000000E+00 0.  1.
         22   -1    0    0    0    0 -0.00000000000E+00 -0.00000000000E+00 -0.23416223191E+04  0.23416223191E+04  0.00000000000E+00 0.  1.
        -24    2    1    2    0    0 -0.19860093091E+02  0.20313130359E+02 -0.16532556181E+04  0.16546082291E+04  0.60557463555E+02 0.  0.
         25    2    1    2    0    0  0.73391731617E+02 -0.39758255189E+02 -0.67189087264E+03  0.68851552108E+03  0.12509681411E+03 0.  0.
         24    2    1    2    0    0 -0.53531638525E+02  0.19445124831E+02  0.32518077863E+03  0.34015517592E+03  0.81971066292E+02 0.  0.
        -11    1    5    5    0    0 -0.31300738570E+02  0.24696102745E+01  0.30255193432E+03  0.30417677125E+03  0.00000000000E+00 0.  1.
         12    1    5    5    0    0 -0.22230899955E+02  0.16975514556E+02  0.22628844314E+02  0.35978404665E+02  0.00000000000E+00 0. -1.
         11    1    3    3    0    0 -0.20846023601E+02 -0.89632302645E+01 -0.24514357307E+03  0.24619152629E+03  0.00000000000E+00 0. -1.
        -12    1    3    3    0    0  0.98593051037E+00  0.29276360623E+02 -0.14081120451E+04  0.14084167028E+04  0.00000000000E+00 0.  1.
          5    1    4    4  501    0  0.16811262143E+02 -0.56124094810E+02 -0.12135671615E+03  0.13482380171E+03  0.41800000000E+01 0.  1.
         -5    1    4    4    0  501  0.56580469474E+02  0.16365839620E+02 -0.55053415649E+03  0.55369171937E+03  0.41800000000E+01 0.  1.
</event>
<event>
11    1  0.8041700E-009  0.1498902E+03  0.7561462E-02  0.1096991E+00
         22   -1    0    0    0    0  0.00000000000E+00  0.00000000000E+00  0.28846289492E+03  0.28846289492E+03  0.00000000000E+00 0. -1.
         22   -1    0    0    0    0 -0.00000000000E+00 -0.00000000000E+00 -0.14316299244E+04  0.14316299244E+04  0.00000000000E+00 0.  1.
         24    2    1    2    0    0 -0.56010464806E+01  0.42696626113E+02 -0.91720334690E+03  0.92189742050E+03  0.82331650948E+02 0.  0.
         25    2    1    2    0    0 -0.64117283402E+02  0.27885009112E+01 -0.49002398711E+03  0.50979374945E+03  0.12508939712E+03 0.  0.
        -24    2    1    2    0    0  0.69718329882E+02 -0.45485127025E+02  0.26406030452E+03  0.28840164939E+03  0.80734903513E+02 0.  0.
        -13    1    3    3    0    0 -0.61090169838E+01  0.10889752007E+02 -0.80945606279E+03  0.80955236049E+03  0.00000000000E+00 0.  1.
         14    1    3    3    0    0  0.50797050322E+00  0.31806874107E+02 -0.10774728411E+03  0.11234506000E+03  0.00000000000E+00 0. -1.
         11    1    5    5    0    0  0.80565425095E+02 -0.47187530649E+02  0.26070622737E+03  0.27692090524E+03  0.00000000000E+00 0. -1.
        -12    1    5    5    0    0 -0.10847095212E+02  0.17024036245E+01  0.33540771467E+01  0.11480744146E+02  0.00000000000E+00 0.  1.
          5    1    4    4  501    0  0.21525734066E+02  0.33164165386E+02 -0.24940085806E+03  0.25254995445E+03  0.41800000000E+01 0. -1.
         -5    1    4    4    0  501 -0.85643017468E+02 -0.30375664475E+02 -0.24062312905E+03  0.25724379500E+03  0.41800000000E+01 0. -1.
</event>
<event>
11    1  0.8041700E-009  0.1412365E+03  0.7561462E-02  0.1106185E+00
         22   -1    0    0    0    0  0.00000000000E+00  0.00000000000E+00  0.85192936398E+03  0.85192936398E+03  0.00000000000E+00 0.  1.
         22   -1    0    0    0    0 -0.00000000000E+00 -0.00000000000E+00 -0.28991138456E+03  0.28991138456E+03  0.00000000000E+00 0.  1.
        -24    2    1    2    0    0  0.22264804637E+02 -0.57208641152E+02 -0.21011394601E+03  0.23351299927E+03  0.81313592778E+02 0.  0.
         25    2    1    2    0    0 -0.60663543871E+02  0.10645565037E+03  0.54390784896E+02  0.18335368663E+03  0.12508935154E+03 0.  0.
         24    2    1    2    0    0  0.38398739234E+02 -0.49247009221E+02  0.71774114053E+03  0.72497406264E+03  0.80841298857E+02 0.  0.
        -13    1    5    5    0    0 -0.13208679336E+02 -0.31751487567E+02  0.47259326896E+03  0.47384282630E+03  0.00000000000E+00 0.  1.
         14    1    5    5    0    0  0.51607418570E+02 -0.17495521655E+02  0.24514787158E+03  0.25113123634E+03  0.00000000000E+00 0. -1.
         13    1    3    3    0    0  0.38062580271E+02 -0.50340890355E+01 -0.42583373138E+02  0.57336251509E+02  0.00000000000E+00 0. -1.
        -14    1    3    3    0    0 -0.15797775634E+02 -0.52174552116E+02 -0.16753057287E+03  0.17617674776E+03  0.00000000000E+00 0.  1.
          5    1    4    4  501    0 -0.25768519299E+02  0.24906129182E+02  0.82636298126E+02  0.90169629176E+02  0.41800000000E+01 0. -1.
         -5    1    4    4    0  501 -0.34895024572E+02  0.81549521191E+02 -0.28245513230E+02  0.93184057456E+02  0.41800000000E+01 0. -1.
</event>
<event>
11    1  0.8041700E-009  0.1812378E+03  0.7561462E-02  0.1068646E+00
         22   -1    0    0    0    0  0.00000000000E+00  0.00000000000E+00  0.11323281585E+04  0.11323281585E+04  0.00000000000E+00 0. -1.
         22   -1    0    0    0    0 -0.00000000000E+00 -0.00000000000E+00 -0.15536787605E+03  0.15536787605E+03  0.00000000000E+00 0. -1.
         24    2    1    2    0    0 -0.32083010316E+01  0.37041368299E+02 -0.11219672728E+03  0.14238144937E+03  0.79385233838E+02 0.  0.
         25    2    1    2    0    0  0.82096340427E+02 -0.13010287959E+03  0.47740368282E+03  0.51694654497E+03  0.12511149269E+03 0.  0.
        -24    2    1    2    0    0 -0.78888039396E+02  0.93061511293E+02  0.61175332690E+03  0.62836804020E+03  0.75633942946E+02 0.  0.
        -13    1    3    3    0    0  0.37959281114E+02  0.21583757970E+02 -0.57425269385E+02  0.72141716051E+02  0.00000000000E+00 0.  1.
         14    1    3    3    0    0 -0.41167582146E+02  0.15457610329E+02 -0.54771457892E+02  0.70239733317E+02  0.00000000000E+00 0. -1.
         13    1    5    5    0    0 -0.48493061696E+02  0.97943122989E+02  0.52658538565E+03  0.53780721523E+03  0.00000000000E+00 0. -1.
        -14    1    5    5    0    0 -0.30394977700E+02 -0.48816116956E+01  0.85167941246E+02  0.90560824964E+02  0.00000000000E+00 0.  1.
          5    1    4    4  501    0 -0.64435784628E+01 -0.81675781876E+02  0.11867540194E+03  0.14426980444E+03  0.41800000000E+01 0.  1.
         -5    1    4    4    0  501  0.88539918890E+02 -0.48427097716E+02  0.35872828088E+03  0.37267674053E+03  0.41800000000E+01 0.  1.
</event>
<event>
11    1  0.8041700E-009  0.2082101E+03  0.7561462E-02  0.1048865E+00
         22   -1    0    0    0    0  0.00000000000E+00  0.00000000000E+00  0.25018052208E+03  0.25018052208E+03  0.00000000000E+00 0.  1.
         22   -1    0    0    0    0 -0.00000000000E+00 -0.00000000000E+00 -0.13999539333E+04  0.13999539333E+04  0.00000000000E+00 0. -1.
        -24    2    1    2    0    0  0.10757687407E+03 -0.11409641924E+03 -0.10599161146E+04  0.10745132260E+04  0.81029167489E+02 0.  0.
         25    2    1    2    0    0 -0.20369486345E+03  0.15635869916E+03 -0.24109214448E+03  0.37378083920E+03  0.12508818261E+03 0.  0.
         24    2    1    2    0    0  0.96117989383E+02 -0.42262279913E+02  0.15123484785E+03  0.20184039025E+03  0.82721192848E+02 0.  0.
        -13    1    5    5    0    0  0.31719831124E+02 -0.31009954194E+02  0.12277010765E+03  0.13053836324E+03  0.00000000000E+00 0.  1.
         14    1    5    5    0    0  0.64398158259E+02 -0.11252325719E+02  0.28464740204E+02  0.71302027013E+02  0.00000000000E+00 0. -1.
         13    1    3    3    0    0  0.11796707924E+03 -0.11609744701E+03 -0.10117116186E+04  0.10251610841E+04  0.00000000000E+00 0. -1.
        -14    1    3    3    0    0 -0.10390205177E+02  0.20010277642E+01 -0.48204496003E+02  0.49352141906E+02  0.00000000000E+00 0.  1.
          5    1    4    4  501    0 -0.13255039578E+03  0.10162406215E+03 -0.71255437639E+02  0.18163663514E+03  0.41800000000E+01 0.  1.
         -5    1    4    4    0  501 -0.71144467669E+02  0.54734637003E+02 -0.16983670684E+03  0.19214420407E+03  0.41800000000E+01 0.  1.
</event>
<event>
11    1  0.8041700E-009  0.1443628E+03  0.7561462E-02  0.1102782E+00
         22   -1    0    0    0    0  0.00000000000E+00  0.00000000000E+00  0.18667415470E+03  0.18667415470E+03  0.00000000000E+00 0.  1.
         22   -1    0    0    0    0 -0.00000000000E+00 -0.00000000000E+00 -0.14048226274E+04  0.14048226274E+04  0.00000000000E+00 0. -1.
         24    2    1    2    0    0  0.19089117794E+02 -0.36690480463E+02 -0.11780128418E+04  0.11812884783E+04  0.77573369404E+02 0.  0.
         25    2    1    2    0    0 -0.20359585269E+02  0.10569678177E+03 -0.17378302297E+03  0.23965294953E+03  0.12508666899E+03 0.  0.
        -24    2    1    2    0    0  0.12704674749E+01 -0.69006301310E+02  0.13364739210E+03  0.17055535428E+03  0.80399127786E+02 0.  0.
        -11    1    3    3    0    0  0.33375215269E+02 -0.19295166567E+02 -0.24587902849E+03  0.24888291444E+03  0.00000000000E+00 0.  1.
         12    1    3    3    0    0 -0.14286097475E+02 -0.17395313896E+02 -0.93213381334E+03  0.93240556385E+03  0.00000000000E+00 0. -1.
         13    1    5    5    0    0  0.11551184917E+02 -0.34652818454E+02  0.48362840845E+01  0.36846130645E+02  0.00000000000E+00 0. -1.
        -14    1    5    5    0    0 -0.10280717442E+02 -0.34353482857E+02  0.12881110802E+03  0.13370922363E+03  0.00000000000E+00 0.  1.
          5    1    4    4  501    0  0.30682706179E+02  0.10835685562E+03 -0.13153253014E+03  0.17320772357E+03  0.41800000000E+01 0. -1.
         -5    1    4    4    0  501 -0.51042291448E+02 -0.26600738508E+01 -0.42250492823E+02  0.66445225961E+02  0.41800000000E+01 0. -1.
</event>
<event>
11    1  0.8041700E-009  0.1800509E+03  0.7561462E-02  0.1069602E+00
         22   -1    0    0    0    0  0.00000000000E+00  0.00000000000E+00  0.13168172902E+04  0.13168172902E+04  0.00000000000E+00 0.  1.
         22   -1    0    0    0    0 -0.00000000000E+00 -0.00000000000E+00 -0.28646800974E+03  0.28646800974E+03  0.00000000000E+00 0. -1.
         24    2    1    2    0    0 -0.51538598875E+02 -0.26985398021E+02 -0.24291525924E+03  0.26230340700E+03  0.80067566919E+02 0.  0.
         25    2    1    2    0    0  0.96667370443E+02  0.14015497979E+03  0.36894616833E+03  0.42515576071E+03  0.12509255323E+03 0.  0.
        -24    2    1    2    0    0 -0.45128771568E+02 -0.11316958177E+03  0.90431837143E+03  0.91582613227E+03  0.78114194566E+02 0.  0.
        -13    1    3    3    0    0  0.51440997811E+01 -0.81876856819E+01 -0.15907764296E+03  0.15937125353E+03  0.00000000000E+00 0.  1.
         14    1    3    3    0    0 -0.56682698656E+02 -0.18797712339E+02 -0.83837616274E+02  0.10293215347E+03  0.00000000000E+00 0. -1.
         13    1    5    5    0    0 -0.17890275969E+02  0.45884533248E+01  0.56667796190E+02  0.59601635911E+02  0.00000000000E+00 0. -1.
        -14    1    5    5    0    0 -0.27238495599E+02 -0.11775803510E+03  0.84765057524E+03  0.85622449636E+03  0.00000000000E+00 0.  1.
          5    1    4    4  501    0  0.50250232410E+02 -0.78272883865E+01  0.13614042563E+03  0.14538927124E+03  0.41800000000E+01 0. -1.
         -5    1    4    4    0  501  0.46417138034E+02  0.14798226818E+03  0.23280574270E+03  0.27976648947E+03  0.41800000000E+01 0. -1.
</event>
<event>
11    1  0.8041700E-009  0.1354871E+03  0.7561462E-02  0.1112705E+00
         22   -1    0    0    0    0  0.00000000000E+00  0.00000000000E+00  0.29487626562E+04  0.29487626562E+04  0.00000000000E+00 0. -1.
         22   -1    0    0    0    0 -0.00000000000E+00 -0.00000000000E+00 -0.30041197965E+03  0.30041197965E+03  0.00000000000E+00 0. -1.
         24    2    1    2    0    0 -0.31581613070E+02 -0.78373233801E+01 -0.28852236766E+03  0.30096496724E+03  0.79220786037E+02 0.  0.
         25    2    1    2    0    0  0.41385812624E+02 -0.43163569746E+02  0.10839752997E+04  0.10928064641E+04  0.12509052129E+03 0.  0.
        -24    2    1    2    0    0 -0.98041995547E+01  0.51000893126E+02  0.18528977445E+04  0.18554032045E+04  0.81202130760E+02 0.  0.
        -11    1    3    3    0    0 -0.26008143725E+02 -0.16394017616E+02 -0.32494139734E+02  0.44733169691E+02  0.00000000000E+00 0.  1.
         12    1    3    3    0    0 -0.55734693450E+01  0.85566942363E+01 -0.25602822793E+03  0.25623179755E+03  0.00000000000E+00 0. -1.
         11    1    5    5    0    0  0.22142712018E+02  0.39028049854E+02  0.15395245694E+04  0.15401783624E+04  0.00000000000E+00 0. -1.
        -12    1    5    5    0    0 -0.31946911573E+02  0.11972843272E+02  0.31337317512E+03  0.31522484201E+03  0.00000000000E+00 0.  1.
          5    1    4    4  501    0  0.49022845744E+01 -0.58826952622E+02  0.21735889007E+03  0.22527095294E+03  0.41800000000E+01 0. -1.
         -5    1    4    4    0  501  0.36483528050E+02  0.15663382876E+02  0.86661640961E+03  0.86753551120E+03  0.41800000000E+01 0. -1.
</event>
<event>
11    1  0.8041700E-009  0.1337840E+03  0.7561462E-02  0.1114705E+00
         22   -1    0    0    0    0  0.00000000000E+00  0.00000000000E+00  0.25758137877E+04  0.25758137877E+04  0.00000000000E+00 0. -1.
         22   -1    0    0    0    0 -0.00000000000E+00 -0.00000000000E+00 -0.23978365286E+03  0.23978365286E+03  0.00000000000E+00 0. -1.
         24    2    1    2    0    0 -0.20906941153E+02  0.51807781097E+01 -0.21436009136E+03  0.22980479695E+03  0.79975341735E+02 0.  0.
         25    2    1    2    0    0 -0.26707637049E+01 -0.46683694601E+02  0.24918781183E+03  0.28271706882E+03  0.12509146699E+03 0.  0.
        -24    2    1    2    0    0  0.23577704858E+02  0.41502916491E+02  0.23012024144E+04  0.23030755748E+04  0.79662733457E+02 0.  0.
        -11    1    3    3    0    0 -0.10880541643E+02 -0.37414903348E+02 -0.95335912381E+02  0.10299124899E+03  0.00000000000E+00 0.  1.
         12    1    3    3    0    0 -0.10026399511E+02  0.42595681458E+02 -0.11902417898E+03  0.12681354796E+03  0.00000000000E+00 0. -1.
         13    1    5    5    0    0 -0.27280546227E+02  0.17331595015E+02  0.11991695962E+04  0.11996050737E+04  0.00000000000E+00 0. -1.
        -14    1    5    5    0    0  0.50858251085E+02  0.24171321476E+02  0.11020328182E+04  0.11034705012E+04  0.00000000000E+00 0.  1.
          5    1    4    4  501    0  0.22939462235E+02 -0.59556156952E+01  0.22918684650E+03  0.23044689474E+03  0.41800000000E+01 0. -1.
         -5    1    4    4    0  501 -0.25610225940E+02 -0.40728078905E+02  0.20000965332E+02  0.52270174079E+02  0.41800000000E+01 0. -1.
</event>
<event>
11    1  0.8041700E-009  0.1369654E+03  0.7561462E-02  0.1110995E+00
         22   -1    0    0    0    0  0.00000000000E+00  0.00000000000E+00  0.12344515442E+04  0.12344515442E+04  0.00000000000E+00 0. -1.
         22   -1    0    0    0    0 -0.00000000000E+00 -0.00000000000E+00 -0.75001213689E+03  0.75001213689E+03  0.00000000000E+00 0. -1.
        -24    2    1    2    0    0  0.41054428888E+02 -0.70892774594E+00 -0.65556406903E+03  0.66138246796E+03  0.77308160018E+02 0.  0.
         25    2    1    2    0    0 -0.85394165924E+02  0.33386618607E+02 -0.22485576908E+02  0.15671392115E+03  0.12508725770E+03 0.  0.
         24    2    1    2    0    0  0.44339737036E+02 -0.32677690861E+02  0.11624890533E+04  0.11663672920E+04  0.77446866246E+02 0.  0.
        -13    1    5    5    0    0  0.32078716126E+02 -0.15147200727E+01  0.15353756064E+03  0.15686019550E+03  0.00000000000E+00 0.  1.
         14    1    5    5    0    0  0.12261020909E+02 -0.31162970789E+02  0.10089514926E+04  0.10095070965E+04  0.00000000000E+00 0. -1.
         13    1    3    3    0    0  0.17735084261E+02 -0.16496630900E+02 -0.58363198737E+03  0.58413437558E+03  0.00000000000E+00 0. -1.
        -14    1    3    3    0    0  0.23319344627E+02  0.15787703154E+02 -0.71932081661E+02  0.77248092383E+02  0.00000000000E+00 0.  1.
          5    1    4    4  501    0  0.19996154388E+02 -0.96864940090E+01  0.24624040036E+02  0.33428881288E+02  0.41800000000E+01 0.  1.
         -5    1    4    4    0  501 -0.10539032031E+03  0.43073112616E+02 -0.47109616945E+02  0.12328503987E+03  0.41800000000E+01 0.  1.
</event>
<event>
11    1  0.8041700E-009  0.1725996E+03  0.7561462E-02  0.1075791E+00
         22   -1    0    0    0    0  0.00000000000E+00  0.00000000000E+00  0.21471646298E+04  0.21471646298E+04  0.00000000000E+00 0. -1.
         22   -1    0    0    0    0 -0.00000000000E+00 -0.00000000000E+00 -0.96225299878E+03  0.96225299878E+03  0.00000000000E+00 0. -1.
         24    2    1    2    0    0  0.86062102554E+02  0.82542299336E+02 -0.93029353919E+03  0.94145684166E+03  0.81700666827E+02 0.  0.
         25    2    1    2    0    0 -0.63058539818E+02 -0.84069403642E+02  0.23692680144E+03  0.28779515507E+03  0.12509075892E+03 0.  0.
        -24    2    1    2    0    0 -0.23003562736E+02  0.15271043067E+01  0.18782783687E+04  0.18801656318E+04  0.81004176574E+02 0.  0.
        -13    1    3    3    0    0  0.19202673086E+02  0.26199837906E+02 -0.56156939745E+03  0.56250809978E+03  0.00000000000E+00 0.  1.
         14    1    3    3    0    0  0.66859429468E+02  0.56342461430E+02 -0.36872414174E+03  0.37894874188E+03  0.00000000000E+00 0. -1.
         11    1    5    5    0    0  0.26981393656E+01  0.33101577214E+02  0.13143585862E+04  0.13147781134E+04  0.00000000000E+00 0. -1.
        -12    1    5    5    0    0 -0.25701702102E+02 -0.31574472907E+02  0.56391978251E+03  0.56538751837E+03  0.00000000000E+00 0.  1.
          5    1    4    4  501    0 -0.58385755594E+02 -0.78777728578E+02  0.69720989364E+02  0.12038818768E+03  0.41800000000E+01 0. -1.
         -5    1    4    4    0  501 -0.46727842246E+01 -0.52916750647E+01  0.16720581207E+03  0.16740696738E+03  0.41800000000E+01 0. -1.
</event>
<event>
11    1  0.8041700E-009  0.1438338E+03  0.7561462E-02  0.1103351E+00
         22   -1    0    0    0    0  0.00000000000E+00  0.00000000000E+00  0.19539888557E+03  0.19539888557E+03  0.00000000000E+00 0. -1.
         22   -1    0    0    0    0 -0.00000000000E+00 -0.00000000000E+00 -0.52181212972E+03  0.52181212972E+03  0.00000000000E+00 0. -1.
        -24    2    1    2    0    0  0.72712812243E+01 -0.26025962218E+02 -0.38500038881E+03  0.39417869971E+03  0.80133174639E+02 0.  0.
         25    2    1    2    0    0 -0.54011199473E+02  0.74450688894E+02 -0.57910096581E+02  0.16571314910E+03  0.12508858363E+03 0.  0.
         24    2    1    2    0    0  0.46739918248E+02 -0.48424726676E+02  0.11649724125E+03  0.15731916648E+03  0.81536119685E+02 0.  0.
        -11    1    5    5    0    0  0.54294232803E+02 -0.57768656857E+01  0.34503207460E+02  0.64588754577E+02  0.00000000000E+00 0.  1.
         12    1    5    5    0    0 -0.75543145549E+01 -0.42647860991E+02  0.81994033789E+02  0.92730411907E+02  0.00000000000E+00 0. -1.
         13    1    3    3    0    0 -0.86479140525E+01 -0.42255453249E+02 -0.34862988774E+03  0.35128778568E+03  0.00000000000E+00 0. -1.
        -14    1    3    3    0    0  0.15919195277E+02  0.16229491031E+02 -0.36370501075E+02  0.42890914024E+02  0.00000000000E+00 0.  1.
          5    1    4    4  501    0 -0.86665600021E+01  0.16564018066E+02  0.39319456682E+02  0.43737489989E+02  0.41800000000E+01 0. -1.
         -5    1    4    4    0  501 -0.45344639470E+02  0.57886670828E+02 -0.97229553263E+02  0.12197565911E+03  0.41800000000E+01 0. -1.
</event>
<event>
11    1  0.8041700E-009  0.1301595E+03  0.7561462E-02  0.1119073E+00
         22   -1    0    0    0    0  0.00000000000E+00  0.00000000000E+00  0.70619669257E+03  0.70619669257E+03  0.00000000000E+00 0.  1.
         22   -1    0    0    0    0 -0.00000000000E+00 -0.00000000000E+00 -0.61921140504E+03  0.61921140504E+03  0.00000000000E+00 0. -1.
        -24    2    1    2    0    0 -0.17592720991E+02  0.16847821384E+02 -0.57289755388E+03  0.58047622017E+03  0.90264511474E+02 0.  0.
         25    2    1    2    0    0 -0.62314314026E+00  0.16474678738E+02  0.63618961196E+02  0.14130372628E+03  0.12509023739E+03 0.  0.
         24    2    1    2    0    0  0.18215864131E+02 -0.33322500122E+02  0.59626388021E+03  0.60362815116E+03  0.85989088310E+02 0.  0.
        -13    1    5    5    0    0  0.32272709057E+02 -0.47385554915E+02  0.23781002950E+03  0.24462323826E+03  0.00000000000E+00 0.  1.
         14    1    5    5    0    0 -0.14056844926E+02  0.14063054792E+02  0.35845385071E+03  0.35900491290E+03  0.00000000000E+00 0. -1.
         11    1    3    3    0    0 -0.50861244672E+02 -0.52994964552E+00 -0.23151888484E+03  0.23704037861E+03  0.00000000000E+00 0. -1.
        -12    1    3    3    0    0  0.33268523681E+02  0.17377771029E+02 -0.34137866904E+03  0.34343584156E+03  0.00000000000E+00 0.  1.
          5    1    4    4  501    0 -0.44627326033E+02  0.50332493788E+02  0.50177010048E+02  0.84024775495E+02  0.41800000000E+01 0. -1.
         -5    1    4    4    0  501  0.44004182893E+02 -0.33857815049E+02  0.13441951148E+02  0.57278950781E+02  0.41800000000E+01 0. -1.
</event>
<event>
11    1  0.8041700E-009  0.1311411E+03  0.7561462E-02  0.1117875E+00
         22   -1    0    0    0    0  0.00000000000E+00  0.00000000000E+00  0.16248207479E+04  0.16248207479E+04  0.00000000000E+00 0. -1.
         22   -1    0    0    0    0 -0.00000000000E+00 -0.00000000000E+00 -0.20465792971E+04  0.20465792971E+04  0.00000000000E+00 0.  1.
         24    2    1    2    0    0 -0.38005546789E+02  0.11719000318E+02 -0.19898046018E+04  0.19918528855E+04  0.81079020466E+02 0.  0.
         25    2    1    2    0    0  0.73413392165E+01 -0.11508728684E+02  0.18125264747E+02  0.12713533113E+03  0.12509404902E+03 0.  0.
        -24    2    1    2    0    0  0.30664207572E+02 -0.21027163333E+00  0.15499207879E+04  0.15524118283E+04  0.82387486847E+02 0.  0.
        -11    1    3    3    0    0 -0.54581205948E+02 -0.85205180349E-01 -0.18222310855E+04  0.18230483384E+04  0.00000000000E+00 0.  1.
         12    1    3    3    0    0  0.16575659159E+02  0.11804205498E+02 -0.16757351635E+03  0.16880454711E+03  0.00000000000E+00 0. -1.
         13    1    5    5    0    0  0.50244321369E+02 -0.19266127081E+02  0.12754096656E+04  0.12765443551E+04  0.00000000000E+00 0. -1.
        -14    1    5    5    0    0 -0.19580113797E+02  0.19055855447E+02  0.27451112230E+03  0.27586747317E+03  0.00000000000E+00 0.  1.
          5    1    4    4  501    0 -0.77803050426E+01 -0.43848076019E+02 -0.39198712539E+02  0.59474350621E+02  0.41800000000E+01 0. -1.
         -5    1    4    4    0  501  0.15121644259E+02  0.32339347335E+02  0.57323977286E+02  0.67660980506E+02  0.41800000000E+01 0. -1.
</event>
<event>
11    1  0.8041700E-009  0.1847432E+03  0.7561462E-02  0.1065869E+00
         22   -1    0    0    0    0  0.00000000000E+00  0.00000000000E+00  0.48318807883E+03  0.48318807883E+03  0.00000000000E+00 0. -1.
         22   -1    0    0    0    0 -0.00000000000E+00 -0.00000000000E+00 -0.81628127480E+03  0.81628127480E+03  0.00000000000E+00 0. -1.
         24    2    1    2    0    0 -0.19377322114E+02  0.12871052475E+03 -0.66649550759E+03  0.68377490200E+03  0.79937320279E+02 0.  0.
         25    2    1    2    0    0  0.20149739041E+01 -0.22127791672E+03 -0.53020486373E+01  0.25425181092E+03  0.12509154682E+03 0.  0.
        -24    2    1    2    0    0  0.17362348209E+02  0.92567391978E+02  0.33870436026E+03  0.36144264072E+03  0.83964073726E+02 0.  0.
        -11    1    3    3    0    0 -0.14046340236E+01  0.47073299336E+02 -0.43698472840E+03  0.43951509799E+03  0.00000000000E+00 0.  1.
         12    1    3    3    0    0 -0.17972688090E+02  0.81637225410E+02 -0.22951077920E+03  0.24425980402E+03  0.00000000000E+00 0. -1.
         13    1    5    5    0    0  0.26076435796E+02  0.94952744408E+02  0.20488731194E+03  0.22732095101E+03  0.00000000000E+00 0. -1.
        -14    1    5    5    0    0 -0.87140875862E+01 -0.23853524296E+01  0.13381704832E+03  0.13412168971E+03  0.00000000000E+00 0.  1.
          5    1    4    4  501    0 -0.34103704853E+02 -0.26668025829E+02  0.30421572229E+02  0.53077214916E+02  0.41800000000E+01 0.  1.
         -5    1    4    4    0  501  0.36118678757E+02 -0.19460989090E+03 -0.35723620867E+02  0.20117459600E+03  0.41800000000E+01 0.  1.
</event>
<event>
11    1  0.8041700E-009  0.2989655E+03  0.7561462E-02  0.1000630E+00
         22   -1    0    0    0    0  0.00000000000E+00  0.00000000000E+00  0.74576649678E+02  0.74576649678E+02  0.00000000000E+00 0. -1.
         22   -1    0    0    0    0 -0.00000000000E+00 -0.00000000000E+00 -0.18525146100E+04  0.18525146100E+04  0.00000000000E+00 0.  1.
        -24    2    1    2    0    0 -0.18617791733E+03  0.22379172030E+03 -0.12306340682E+04  0.12671137956E+04  0.79826124656E+02 0.  0.
         25    2    1    2    0    0  0.13058052752E+03 -0.18237271928E+03 -0.32652389155E+03  0.41542129867E+03  0.12508365492E+03 0.  0.
         24    2    1    2    0    0  0.55597389811E+02 -0.41419001019E+02 -0.22078000065E+03  0.24455616550E+03  0.79103135193E+02 0.  0.
        -11    1    5    5    0    0  0.45194685767E+02 -0.61257437153E+02 -0.20001472054E+03  0.21401149890E+03  0.00000000000E+00 0.  1.
         12    1    5    5    0    0  0.10402704045E+02  0.19838436134E+02 -0.20765280108E+02  0.30544666599E+02  0.00000000000E+00 0. -1.
         11    1    3    3    0    0 -0.12890472962E+03  0.11410264630E+03 -0.58834848933E+03  0.61301695581E+03  0.00000000000E+00 0. -1.
        -12    1    3    3    0    0 -0.57273187710E+02  0.10968907400E+03 -0.64228557884E+03  0.65409683975E+03  0.00000000000E+00 0.  1.
          5    1    4    4  501    0 -0.11862201123E+02 -0.34650220090E+02 -0.11464879890E+03  0.12042910386E+03  0.41800000000E+01 0. -1.
         -5    1    4    4    0  501  0.14244272864E+03 -0.14772249919E+03 -0.21187509265E+03  0.29499219480E+03  0.41800000000E+01 0. -1.
</event>
<event>
11    1  0.8041700E-009  0.1368643E+03  0.7561462E-02  0.1111111E+00
         22   -1    0    0    0    0  0.00000000000E+00  0.00000000000E+00  0.68992433815E+03  0.68992433815E+03  0.00000000000E+00 0. -1.
         22   -1    0    0    0    0 -0.00000000000E+00 -0.00000000000E+00 -0.35621005732E+03  0.35621005732E+03  0.00000000000E+00 0.  1.
         24    2    1    2    0    0  0.58239066850E+02  0.35097875452E+01 -0.23893846757E+03  0.25858550870E+03  0.79817081560E+02 0.  0.
         25    2    1    2    0    0 -0.41476860536E+02 -0.21807796581E+02 -0.62012945584E+02  0.14727264473E+03  0.12509083305E+03 0.  0.
        -24    2    1    2    0    0 -0.16762206314E+02  0.18298009036E+02  0.63466569398E+03  0.64027624203E+03  0.80853783450E+02 0.  0.
        -13    1    3    3    0    0  0.64085542962E+02 -0.16490577492E+02 -0.11312253031E+03  0.13105572413E+03  0.00000000000E+00 0.  1.
         14    1    3    3    0    0 -0.58464761121E+01  0.20000365037E+02 -0.12581593726E+03  0.12752978457E+03  0.00000000000E+00 0. -1.
         13    1    5    5    0    0 -0.27606798375E+02  0.30374142588E+02  0.60557149911E+03  0.60696092493E+03  0.00000000000E+00 0. -1.
        -14    1    5    5    0    0  0.10844592061E+02 -0.12076133552E+02  0.29094194871E+02  0.33315317104E+02  0.00000000000E+00 0.  1.
          5    1    4    4  501    0 -0.71062146935E+02  0.72177365973E+01  0.12099352020E+01  0.71560189993E+02  0.41800000000E+01 0. -1.
         -5    1    4    4    0  501  0.29585286399E+02 -0.29025533178E+02 -0.63222880786E+02  0.75712454738E+02  0.41800000000E+01 0. -1.
</event>
<event>
11    1  0.8041700E-009  0.1307025E+03  0.7561462E-02  0.1118409E+00
         22   -1    0    0    0    0  0.00000000000E+00  0.00000000000E+00  0.71608523917E+03  0.71608523917E+03  0.00000000000E+00 0. -1.
         22   -1    0    0    0    0 -0.00000000000E+00 -0.00000000000E+00 -0.33041910479E+04  0.33041910479E+04  0.00000000000E+00 0.  1.
         24    2    1    2    0    0 -0.38016436655E+02  0.15034892713E+01 -0.32310726153E+04  0.32323810501E+04  0.83722741651E+02 0.  0.
         25    2    1    2    0    0  0.23388008806E+02  0.15952494240E+02 -0.11096340871E+02  0.12873615586E+03  0.12509351708E+03 0.  0.
        -24    2    1    2    0    0  0.14628427849E+02 -0.17455983512E+02  0.65406314744E+03  0.65915908116E+03  0.78570930825E+02 0.  0.
        -13    1    3    3    0    0  0.10906164634E+02  0.31103485717E+02 -0.15072654566E+04  0.15076257918E+04  0.00000000000E+00 0.  1.
         14    1    3    3    0    0 -0.48922601289E+02 -0.29599996445E+02 -0.17238071587E+04  0.17247552583E+04  0.00000000000E+00 0. -1.
         11    1    5    5    0    0  0.36607773293E+02 -0.95994830089E+01  0.58569215662E+03  0.58691360648E+03  0.00000000000E+00 0. -1.
        -12    1    5    5    0    0 -0.21979345444E+02 -0.78565005028E+01  0.68370990822E+02  0.72245474684E+02  0.00000000000E+00 0.  1.
          5    1    4    4  501    0 -0.23057586570E+02 -0.42755560224E+02  0.12135976232E+02  0.50243850844E+02  0.41800000000E+01 0. -1.
         -5    1    4    4    0  501  0.46445595376E+02  0.58708054464E+02 -0.23232317104E+02  0.78492305017E+02  0.41800000000E+01 0. -1.
</event>
<event>
11    1  0.8041700E-009  0.4138036E+03  0.7561462E-02  0.9609885E-01
         22   -1    0    0    0    0  0.00000000000E+00  0.00000000000E+00  0.79751619124E+03  0.79751619124E+03  0.00000000000E+00 0.  1.
         22   -1    0    0    0    0 -0.00000000000E+00 -0.00000000000E+00 -0.92774006396E+03  0.92774006396E+03  0.00000000000E+00 0.  1.
        -24    2    1    2    0    0  0.13982476759E+01  0.25123063406E+02 -0.50320684116E+03  0.50956482471E+03  0.76197520838E+02 0.  0.
         25    2    1    2    0    0 -0.38353888297E+03 -0.11851652560E+03 -0.23914759026E+03  0.48372240307E+03  0.12509017432E+03 0.  0.
         24    2    1    2    0    0  0.38214063530E+03  0.93393462192E+02  0.61213055869E+03  0.73196902743E+03  0.79504920021E+02 0.  0.
        -11    1    5    5    0    0  0.32407401186E+03  0.91960084710E+02  0.46849738066E+03  0.57703588972E+03  0.00000000000E+00 0.  1.
         12    1    5    5    0    0  0.58066623437E+02  0.14333774826E+01  0.14363317803E+03  0.15493313771E+03  0.00000000000E+00 0. -1.
         13    1    3    3    0    0  0.23597724524E+02  0.49337592107E+01 -0.51510814542E+02  0.56873179948E+02  0.00000000000E+00 0. -1.
        -14    1    3    3    0    0 -0.22199476848E+02  0.20189304196E+02 -0.45169602662E+03  0.45269164476E+03  0.00000000000E+00 0.  1.
          5    1    4    4  501    0 -0.17724849832E+03  0.88453780365E+01 -0.89738825449E+02  0.19891153828E+03  0.41800000000E+01 0. -1.
         -5    1    4    4    0  501 -0.20629038466E+03 -0.12736190364E+03 -0.14940876481E+03  0.28481086479E+03  0.41800000000E+01 0. -1.
</event>
<event>
11    1  0.8041700E-009  0.1420771E+03  0.7561462E-02  0.1105261E+00
         22   -1    0    0    0    0  0.00000000000E+00  0.00000000000E+00  0.18303158338E+04  0.18303158338E+04  0.00000000000E+00 0. -1.
         22   -1    0    0    0    0 -0.00000000000E+00 -0.00000000000E+00 -0.29442433925E+03  0.29442433925E+03  0.00000000000E+00 0. -1.
         24    2    1    2    0    0  0.57409658174E+02 -0.41558345696E+02 -0.24649567549E+03  0.27463694676E+03  0.98195567847E+02 0.  0.
         25    2    1    2    0    0 -0.47945949052E+02 -0.12329355698E+02  0.10651791737E+03  0.17159823943E+03  0.12509621102E+03 0.  0.
        -24    2    1    2    0    0 -0.94637091220E+01  0.53887701394E+02  0.16758692527E+04  0.16785049869E+04  0.76470861977E+02 0.  0.
        -13    1    3    3    0    0  0.31750635947E+02 -0.46507333755E+02 -0.46748936069E+02  0.73188100123E+02  0.00000000000E+00 0.  1.
         14    1    3    3    0    0  0.25659022227E+02  0.49489880588E+01 -0.19974673942E+03  0.20144884664E+03  0.00000000000E+00 0. -1.
         13    1    5    5    0    0 -0.29986765423E+02  0.64133702912E+02  0.12062781433E+04  0.12083539618E+04  0.00000000000E+00 0. -1.
        -14    1    5    5    0    0  0.20523056301E+02 -0.10246001518E+02  0.46959110939E+03  0.47015102510E+03  0.00000000000E+00 0.  1.
          5    1    4    4  501    0 -0.73773942626E+02 -0.44818905037E+02  0.45455731081E+02  0.97647451311E+02  0.41800000000E+01 0.  1.
         -5    1    4    4    0  501  0.25827993575E+02  0.32489549339E+02  0.61062186293E+02  0.73950788117E+02  0.41800000000E+01 0.  1.
</event>
<event>
11    1  0.8041700E-009  0.1634732E+03  0.7561462E-02  0.1083855E+00
         22   -1    0    0    0    0  0.00000000000E+00  0.00000000000E+00  0.26857760344E+04  0.26857760344E+04  0.00000000000E+00 0. -1.
         22   -1    0    0    0    0 -0.00000000000E+00 -0.00000000000E+00 -0.18672421347E+03  0.18672421347E+03  0.00000000000E+00 0.  1.
         24    2    1    2    0    0 -0.62134952250E+02 -0.85477163982E+02 -0.15473595546E+03  0.20251338706E+03  0.76820297924E+02 0.  0.
         25    2    1    2    0    0  0.38366922560E+02  0.83277040907E+02  0.83437953269E+03  0.84867199591E+03  0.12509142971E+03 0.  0.
        -24    2    1    2    0    0  0.23768029690E+02  0.22001230755E+01  0.18194082437E+04  0.18213148648E+04  0.79823054778E+02 0.  0.
        -11    1    3    3    0    0 -0.41770668195E+02 -0.69243575491E+02 -0.15676280436E+03  0.17639171834E+03  0.00000000000E+00 0.  1.
         12    1    3    3    0    0 -0.20364284055E+02 -0.16233588491E+02  0.20268488986E+01  0.26121668722E+02  0.00000000000E+00 0. -1.
         11    1    5    5    0    0  0.70467292188E+00 -0.12902713945E+02  0.16154737141E+04  0.16155253936E+04  0.00000000000E+00 0. -1.
        -12    1    5    5    0    0  0.23063356768E+02  0.15102837020E+02  0.20393452959E+03  0.20578947123E+03  0.00000000000E+00 0.  1.
          5    1    4    4  501    0  0.41250133888E+02  0.45706551266E+02  0.77968121904E+03  0.78211951650E+03  0.41800000000E+01 0.  1.
         -5    1    4    4    0  501 -0.28832113278E+01  0.37570489640E+02  0.54698313653E+02  0.66552479412E+02  0.41800000000E+01 0.  1.
</event>
<event>
11    1  0.8041700E-009  0.1355922E+03  0.7561462E-02  0.1112583E+00
         22   -1    0    0    0    0  0.00000000000E+00  0.00000000000E+00  0.11514819906E+03  0.11514819906E+03  0.00000000000E+00 0.  1.
         22   -1    0    0    0    0 -0.00000000000E+00 -0.00000000000E+00 -0.20960516918E+04  0.20960516918E+04  0.00000000000E+00 0.  1.
        -24    2    1    2    0    0 -0.49511954920E+02 -0.15664558408E+02 -0.19597451260E+04  0.19621449872E+04  0.81946201002E+02 0.  0.
         25    2    1    2    0    0  0.69390601494E+02  0.46505152179E+01 -0.62257922820E+02  0.15607800460E+03  0.12509041410E+03 0.  0.
         24    2    1    2    0    0 -0.19878646574E+02  0.11014043190E+02  0.41099556079E+02  0.92976899063E+02  0.80243756844E+02 0.  0.
        -13    1    5    5    0    0  0.97250022821E+01  0.60926559101E+00  0.56980859716E+02  0.57808003321E+02  0.00000000000E+00 0.  1.
         14    1    5    5    0    0 -0.29603648856E+02  0.10404777599E+02 -0.15881303638E+02  0.35168895742E+02  0.00000000000E+00 0. -1.
         13    1    3    3    0    0 -0.37543125604E+02  0.12146816060E+02 -0.36755857345E+03  0.36967057814E+03  0.00000000000E+00 0. -1.
        -14    1    3    3    0    0 -0.11968829316E+02 -0.27811374468E+02 -0.15921865526E+04  0.15924744091E+04  0.00000000000E+00 0.  1.
          5    1    4    4  501    0  0.78569137978E+02  0.22969099477E+02 -0.89744481663E+02  0.12154107685E+03  0.41800000000E+01 0. -1.
         -5    1    4    4    0  501 -0.91785364843E+01 -0.18318584259E+02  0.27486558844E+02  0.34536927749E+02  0.41800000000E+01 0. -1.
</event>
<event>
11    1  0.8041700E-009  0.1308664E+03  0.7561462E-02  0.1118209E+00
         22   -1    0    0    0    0  0.00000000000E+00  0.00000000000E+00  0.60661304842E+03  0.60661304842E+03  0.00000000000E+00 0. -1.
         22   -1    0    0    0    0 -0.00000000000E+00 -0.00000000000E+00 -0.12255828656E+04  0.12255828656E+04  0.00000000000E+00 0. -1.
         24    2    1    2    0    0  0.27110639521E+02 -0.31883820602E+02 -0.11982617881E+04  0.12016320308E+04  0.79603138785E+02 0.  0.
         25    2    1    2    0    0  0.15843999851E+02  0.33820693552E+02  0.18718156989E+03  0.22820976610E+03  0.12509150889E+03 0.  0.
        -24    2    1    2    0    0 -0.42954639372E+02 -0.19368729495E+01  0.39211040109E+03  0.40235411710E+03  0.79305840809E+02 0.  0.
        -11    1    3    3    0    0  0.39239704338E+02 -0.20703285340E+02 -0.30422335666E+03  0.30744142719E+03  0.00000000000E+00 0.  1.
         12    1    3    3    0    0 -0.12129064816E+02 -0.11180535262E+02 -0.89403843146E+03  0.89419060357E+03  0.00000000000E+00 0. -1.
         11    1    5    5    0    0  0.16229721259E+02 -0.11200590786E+01  0.21500522430E+03  0.21561981555E+03  0.00000000000E+00 0. -1.
        -12    1    5    5    0    0 -0.59184360631E+02 -0.81681387088E+00  0.17710517680E+03  0.18673430155E+03  0.00000000000E+00 0.  1.
          5    1    4    4  501    0  0.68691298677E+02  0.15283376637E+02  0.76071163955E+02  0.10371292350E+03  0.41800000000E+01 0. -1.
         -5    1    4    4    0  501 -0.52847298826E+02  0.18537316915E+02  0.11111040593E+03  0.12449684260E+03  0.41800000000E+01 0. -1.
</event>
<event>
11    1  0.8041700E-009  0.1376583E+03  0.7561462E-02  0.1110202E+00
         22   -1    0    0    0    0  0.00000000000E+00  0.00000000000E+00  0.68907557587E+02  0.68907557587E+02  0.00000000000E+00 0. -1.
         22   -1    0    0    0    0 -0.00000000000E+00 -0.00000000000E+00 -0.17158546957E+04  0.17158546957E+04  0.00000000000E+00 0.  1.
        -24    2    1    2    0    0 -0.54730457210E+02 -0.61672943564E+01 -0.10073716335E+04  0.10137377431E+04  0.99162217817E+02 0.  0.
         25    2    1    2    0    0  0.58243669839E+02  0.31692754451E+02 -0.66729457247E+03  0.68214775417E+03  0.12508699499E+03 0.  0.
         24    2    1    2    0    0 -0.35132126282E+01 -0.25525460095E+02  0.27719067843E+02  0.88876755976E+02  0.80416660305E+02 0.  0.
        -11    1    5    5    0    0  0.14875506591E+01  0.27980845929E+02 -0.81390082923E+00  0.28032177590E+02  0.00000000000E+00 0.  1.
         12    1    5    5    0    0 -0.50007632873E+01 -0.53506306023E+02  0.28532968672E+02  0.60844578386E+02  0.00000000000E+00 0. -1.
         13    1    3    3    0    0 -0.73718589497E+02  0.11030045759E+02 -0.48083399584E+03  0.48657725379E+03  0.00000000000E+00 0. -1.
        -14    1    3    3    0    0  0.18988132287E+02 -0.17197340115E+02 -0.52653763763E+03  0.52716048934E+03  0.00000000000E+00 0.  1.
          5    1    4    4  501    0  0.53316654223E+02  0.69421801821E+02 -0.29093223442E+03  0.30384385729E+03  0.41800000000E+01 0.  1.
         -5    1    4    4    0  501  0.49270156159E+01 -0.37729047370E+02 -0.37636233805E+03  0.37830389689E+03  0.41800000000E+01 0.  1.
</event>
<event>
11    1  0.8041700E-009  0.1564289E+03  0.7561462E-02  0.1090485E+00
         22   -1    0    0    0    0  0.00000000000E+00  0.00000000000E+00  0.10613525008E+03  0.10613525008E+03  0.00000000000E+00 0.  1.
         22   -1    0    0    0    0 -0.00000000000E+00 -0.00000000000E+00 -0.15120030829E+04  0.15120030829E+04  0.00000000000E+00 0.  1.
         24    2    1    2    0    0  0.86820596661E+02  0.35297395027E+02 -0.13297218708E+04  0.13354434180E+04  0.80406136368E+02 0.  0.
         25    2    1    2    0    0 -0.68417443289E+02 -0.89176765209E+02 -0.76199508192E+02  0.18462789921E+03  0.12509058366E+03 0.  0.
        -24    2    1    2    0    0 -0.18403153372E+02  0.53879370182E+02  0.53546219275E-01  0.98067015760E+02  0.79846566160E+02 0.  0.
        -13    1    3    3    0    0  0.87696351027E+02  0.32012321878E+02 -0.13285815288E+04  0.13318574688E+04  0.00000000000E+00 0.  1.
         14    1    3    3    0    0 -0.87575436606E+00  0.32850731489E+01 -0.11403420859E+01  0.35859491598E+01  0.00000000000E+00 0. -1.
         13    1    5    5    0    0  0.27810289050E+02  0.19602076477E+02  0.17069072237E+02  0.38065822023E+02  0.00000000000E+00 0. -1.
        -14    1    5    5    0    0 -0.46213442422E+02  0.34277293705E+02 -0.17015526018E+02  0.60001193737E+02  0.00000000000E+00 0.  1.
          5    1    4    4  501    0 -0.38983763435E+02 -0.58698476085E+02  0.24961866379E+02  0.74871971253E+02  0.41800000000E+01 0.  1.
         -5    1    4    4    0  501 -0.29433679854E+02 -0.30478289124E+02 -0.10116137457E+03  0.10975592796E+03  0.41800000000E+01 0.  1.
</event>
<event>
11    1  0.8041700E-009  0.1313078E+03  0.7561462E-02  0.1117672E+00
         22   -1    0    0    0    0  0.00000000000E+00  0.00000000000E+00  0.31051202874E+03  0.31051202874E+03  0.00000000000E+00 0. -1.
         22   -1    0    0    0    0 -0.00000000000E+00 -0.00000000000E+00 -0.20312820237E+04  0.20312820237E+04  0.00000000000E+00 0.  1.
        -24    2    1    2    0    0  0.42982509190E+02 -0.14988509220E+02 -0.19495153517E+04  0.19516128244E+04  0.78168781249E+02 0.  0.
         25    2    1    2    0    0 -0.10044106820E+01 -0.15253907402E+01 -0.16799146040E+02  0.12622767874E+03  0.12509148618E+03 0.  0.
         24    2    1    2    0    0 -0.41978098508E+02  0.16513899960E+02  0.24554450271E+03  0.26395354935E+03  0.85700080249E+02 0.  0.
        -13    1    5    5    0    0  0.12029226749E+02 -0.19043409779E+02  0.22947092934E+02  0.32154670366E+02  0.00000000000E+00 0.  1.
         14    1    5    5    0    0 -0.54007325257E+02  0.35557309739E+02  0.22259740978E+03  0.23179887898E+03  0.00000000000E+00 0. -1.
         11    1    3    3    0    0  0.16650954975E+02  0.32271481408E+02 -0.81262518604E+03  0.81343616578E+03  0.00000000000E+00 0. -1.
        -12    1    3    3    0    0  0.26331554215E+02 -0.47259990627E+02 -0.11368901656E+04  0.11381766586E+04  0.00000000000E+00 0.  1.
          5    1    4    4  501    0 -0.19359599468E+02  0.23069388486E+01 -0.68357580677E+02  0.71206371164E+02  0.41800000000E+01 0. -1.
         -5    1    4    4    0  501  0.18355188786E+02 -0.38323295888E+01  0.51558434637E+02  0.55021307579E+02  0.41800000000E+01 0. -1.
</event>
<event>
11    1  0.8041700E-009  0.1313325E+03  0.7561462E-02  0.1117642E+00
         22   -1    0    0    0    0  0.00000000000E+00  0.00000000000E+00  0.35857106413E+02  0.35857106413E+02  0.00000000000E+00 0.  1.
         22   -1    0    0    0    0 -0.00000000000E+00 -0.00000000000E+00 -0.11054798265E+04  0.11054798265E+04  0.00000000000E+00 0. -1.
        -24    2    1    2    0    0  0.45694764015E+01  0.40079502415E+02 -0.63927194148E+03  0.64553941467E+03  0.80157807490E+02 0.  0.
         25    2    1    2    0    0  0.12457461741E+02 -0.39113748274E+02 -0.37867293786E+03  0.40091947620E+03  0.12513256519E+03 0.  0.
         24    2    1    2    0    0 -0.17026938142E+02 -0.96575414031E+00 -0.51677840742E+02  0.94878042038E+02  0.77719973840E+02 0.  0.
        -13    1    5    5    0    0  0.26195620986E+02 -0.11459304139E+02 -0.27022857391E+01  0.28719828663E+02  0.00000000000E+00 0.  1.
         14    1    5    5    0    0 -0.43222559128E+02  0.10493549999E+02 -0.48975555003E+02  0.66158213375E+02  0.00000000000E+00 0. -1.
         13    1    3    3    0    0  0.88366020371E+01  0.54666445574E+02 -0.25393404411E+03  0.25990191335E+03  0.00000000000E+00 0. -1.
        -14    1    3    3    0    0 -0.42671256356E+01 -0.14586943159E+02 -0.38533789737E+03  0.38563750132E+03  0.00000000000E+00 0.  1.
          5    1    4    4  501    0 -0.10498077196E+02 -0.81104852259E+02 -0.20571993003E+03  0.22141898901E+03  0.41800000000E+01 0. -1.
         -5    1    4    4    0  501  0.22955538937E+02  0.41991103985E+02 -0.17295300783E+03  0.17950048718E+03  0.41800000000E+01 0. -1.
</event>
<event>
11    1  0.8041700E-009  0.1704178E+03  0.7561462E-02  0.1077669E+00
         22   -1    0    0    0    0  0.00000000000E+00  0.00000000000E+00  0.46063458146E+03  0.46063458146E+03  0.00000000000E+00 0.  1.
         22   -1    0    0    0    0 -0.00000000000E+00 -0.00000000000E+00 -0.19171287827E+04  0.19171287827E+04  0.00000000000E+00 0.  1.
        -24    2    1    2    0    0 -0.41573518171E+02  0.28501717214E+02 -0.18141643968E+04  0.18164741916E+04  0.76454721985E+02 0.  0.
         25    2    1    2    0    0 -0.17125169630E+02 -0.12751883273E+03  0.28159434199E+01  0.17946826133E+03  0.12508638275E+03 0.  0.
         24    2    1    2    0    0  0.58698687801E+02  0.99017115519E+02  0.35485425221E+03  0.38182091125E+03  0.81337216802E+02 0.  0.
        -11    1    5    5    0    0  0.69931094498E+01  0.58945977860E+02  0.25938517974E+03  0.26609059238E+03  0.00000000000E+00 0.  1.
         12    1    5    5    0    0  0.51705578351E+02  0.40071137658E+02  0.95469072476E+02  0.11573031887E+03  0.00000000000E+00 0. -1.
         11    1    3    3    0    0 -0.39109064996E+01  0.21054696833E+02 -0.12138802828E+03  0.12326252009E+03  0.00000000000E+00 0. -1.
        -12    1    3    3    0    0 -0.37662611671E+02  0.74470203811E+01 -0.16927763686E+04  0.16932116715E+04  0.00000000000E+00 0.  1.
          5    1    4    4  501    0 -0.36852648501E+02 -0.10677135675E+03  0.50416815363E+02  0.12376416281E+03  0.41800000000E+01 0.  1.
         -5    1    4    4    0  501  0.19727478871E+02 -0.20747475983E+02 -0.47600871943E+02  0.55704098521E+02  0.41800000000E+01 0.  1.
</event>
<event>
11    1  0.8041700E-009  0.2199372E+03  0.7561462E-02  0.1041257E+00
         22   -1    0    0    0    0  0.00000000000E+00  0.00000000000E+00  0.15711102830E+04  0.15711102830E+04  0.00000000000E+00 0. -1.
         22   -1    0    0    0    0 -0.00000000000E+00 -0.00000000000E+00 -0.35869434181E+03  0.35869434181E+03  0.00000000000E+00 0. -1.
        -24    2    1    2    0    0 -0.39765775006E+01 -0.38537305227E+02 -0.16298425724E+03  0.18656044247E+03  0.82097463553E+02 0.  0.
         25    2    1    2    0    0  0.18347924666E+03  0.15889948036E+02 -0.10750008406E+03  0.24722678933E+03  0.12509073862E+03 0.  0.
         24    2    1    2    0    0 -0.17950266916E+03  0.22647357191E+02  0.14829002825E+04  0.14960173930E+04  0.79628395533E+02 0.  0.
        -13    1    5    5    0    0 -0.75804010198E+02 -0.26850832552E+02  0.50044193653E+03  0.50686225645E+03  0.00000000000E+00 0.  1.
         14    1    5    5    0    0 -0.10369865896E+03  0.49498189743E+02  0.98245834598E+03  0.98915513659E+03  0.00000000000E+00 0. -1.
         11    1    3    3    0    0 -0.26000809821E+02 -0.14401167093E+02 -0.14738707228E+03  0.15035419781E+03  0.00000000000E+00 0. -1.
        -12    1    3    3    0    0  0.22024232320E+02 -0.24136138134E+02 -0.15597184966E+02  0.36206244657E+02  0.00000000000E+00 0.  1.
          5    1    4    4  501    0  0.10445221646E+03  0.56139503513E+02 -0.15998124275E+02  0.11973020403E+03  0.41800000000E+01 0.  1.
         -5    1    4    4    0  501  0.79027030199E+02 -0.40249555478E+02 -0.91501959781E+02  0.12749658530E+03  0.41800000000E+01 0.  1.
</event>
<event>
11    1  0.8041700E-009  0.1576245E+03  0.7561462E-02  0.1089333E+00
         22   -1    0    0    0    0  0.00000000000E+00  0.00000000000E+00  0.19813661511E+04  0.19813661511E+04  0.00000000000E+00 0. -1.
         22   -1    0    0    0    0 -0.00000000000E+00 -0.00000000000E+00 -0.56479355697E+03  0.56479355697E+03  0.00000000000E+00 0.  1.
        -24    2    1    2    0    0 -0.24855287697E+02 -0.88616436769E+02 -0.46873497506E+03  0.48426590113E+03  0.79563358200E+02 0.  0.
         25    2    1    2    0    0  0.12939281495E+02  0.15489271373E+03  0.27320463430E+02  0.20137716179E+03  0.12508867175E+03 0.  0.
         24    2    1    2    0    0  0.11916006202E+02 -0.66276276958E+02  0.18579871058E+04  0.18605166451E+04  0.69796601487E+02 0.  0.
        -11    1    5    5    0    0  0.30825594049E+02 -0.26832336896E+02  0.45048004970E+03  0.45233004182E+03  0.00000000000E+00 0.  1.
         12    1    5    5    0    0 -0.18909587847E+02 -0.39443940062E+02  0.14075070561E+04  0.14081866033E+04  0.00000000000E+00 0. -1.
         13    1    3    3    0    0 -0.26279933839E+02  0.58509348333E+00 -0.18438676206E+03  0.18625105444E+03  0.00000000000E+00 0. -1.
        -14    1    3    3    0    0  0.14246461424E+01 -0.89201530252E+02 -0.28434821299E+03  0.29801484669E+03  0.00000000000E+00 0.  1.
          5    1    4    4  501    0  0.67054731176E+02  0.62386909068E+02  0.20233150102E+02  0.93889915109E+02  0.41800000000E+01 0.  1.
         -5    1    4    4    0  501 -0.54115449681E+02  0.92505804660E+02  0.70873133287E+01  0.10748724669E+03  0.41800000000E+01 0.  1.
</event>
<event>
11    1  0.8041700E-009  0.1357082E+03  0.7561462E-02  0.1112448E+00
         22   -1    0    0    0    0  0.00000000000E+00  0.00000000000E+00  0.13426648694E+04  0.13426648694E+04  0.00000000000E+00 0. -1.
         22   -1    0    0    0    0 -0.00000000000E+00 -0.00000000000E+00 -0.22758863379E+04  0.22758863379E+04  0.00000000000E+00 0. -1.
         24    2    1    2    0    0  0.52319707039E+02  0.13220478886E+01 -0.22213088767E+04  0.22234288386E+04  0.81753135811E+02 0.  0.
         25    2    1    2    0    0 -0.82481109786E+02  0.50813334346E+01  0.56094726663E+02  0.16007062875E+03  0.12508810658E+03 0.  0.
        -24    2    1    2    0    0  0.30161402747E+02 -0.64033813232E+01  0.12319926815E+04  0.12350517399E+04  0.81216498325E+02 0.  0.
        -13    1    3    3    0    0  0.34669279923E+02 -0.34966349666E+02 -0.77844550621E+03  0.78000128892E+03  0.00000000000E+00 0.  1.
         14    1    3    3    0    0  0.17650427116E+02  0.36288397554E+02 -0.14428633704E+04  0.14434275497E+04  0.00000000000E+00 0. -1.
         11    1    5    5    0    0 -0.93990006045E+00 -0.85951448358E+01  0.10727862563E+04  0.10728210996E+04  0.00000000000E+00 0. -1.
        -12    1    5    5    0    0  0.31101302808E+02  0.21917635127E+01  0.15920642516E+03  0.16223064038E+03  0.00000000000E+00 0.  1.
          5    1    4    4  501    0 -0.27502049328E+02  0.88379881001E+01  0.90419047140E+02  0.95013416087E+02  0.41800000000E+01 0.  1.
         -5    1    4    4    0  501 -0.54979060458E+02 -0.37566546655E+01 -0.34324320477E+02  0.65057212662E+02  0.41800000000E+01 0.  1.
</event>
<event>
11    1  0.1158792E-008  0.2060466E+03  0.7561462E-02  0.1050328E+00
         22   -1    0    0    0    0  0.00000000000E+00  0.00000000000E+00  0.23110471218E+04  0.23110471218E+04  0.00000000000E+00 0.  1.
         22   -1    0    0    0    0 -0.00000000000E+00 -0.00000000000E+00 -0.27839895024E+03  0.27839895024E+03  0.00000000000E+00 0. -1.
         24    2    1    2    0    0 -0.74866502464E+02  0.16478438276E+02 -0.12821782705E+03  0.16843786073E+03  0.77813685400E+02 0.  0.
         25    2    1    2    0    0  0.13366338020E+03  0.13594773445E+03 -0.23346242637E+02  0.22922049734E+03  0.12509717682E+03 0.  0.
        -24    2    1    2    0    0 -0.58796877733E+02 -0.15242617272E+03  0.21842122413E+04  0.21917877140E+04  0.80370749214E+02 0.  0.
        -13    1    3    3    0    0 -0.33928933094E+02 -0.96876105224E+01 -0.45606740954E+01  0.35578392975E+02  0.00000000000E+00 0.  1.
         14    1    3    3    0    0 -0.40937569370E+02  0.26166048798E+02 -0.12365715296E+03  0.13285946776E+03  0.00000000000E+00 0. -1.
         13    1    5    5    0    0 -0.43598543283E+02 -0.18852512568E+02  0.60833492634E+03  0.61018655574E+03  0.00000000000E+00 0. -1.
        -14    1    5    5    0    0 -0.15198334450E+02 -0.13357366016E+03  0.15758773149E+04  0.15816011582E+04  0.00000000000E+00 0.  1.
          5    1    4    4  501    0  0.32732256323E+02  0.75739385230E+02 -0.64305268523E+02  0.10469238291E+03  0.41800000000E+01 0.  1.
         -5    1    4    4    0  501  0.10093112387E+03  0.60208349219E+02  0.40959025886E+02  0.12452811443E+03  0.41800000000E+01 0.  1.
</event>
<event>
11    1  0.8041700E-009  0.4305587E+03  0.7561462E-02  0.9563661E-01
         22   -1    0    0    0    0  0.00000000000E+00  0.00000000000E+00  0.19653299032E+03  0.19653299032E+03  0.00000000000E+00 0.  1.
         22   -1    0    0    0    0 -0.00000000000E+00 -0.00000000000E+00 -0.15365965489E+04  0.15365965489E+04  0.00000000000E+00 0. -1.
         24    2    1    2    0    0 -0.26047892514E+02 -0.83583790962E+02 -0.39833229629E+03  0.41553130039E+03  0.79579523257E+02 0.  0.
         25    2    1    2    0    0 -0.23539032037E+03 -0.26682497701E+03 -0.73811518045E+03  0.82889452580E+03  0.12509174241E+03 0.  0.
        -24    2    1    2    0    0  0.26143821288E+03  0.35040876797E+03 -0.20361608182E+03  0.48870371300E+03  0.78965603288E+02 0.  0.
        -13    1    3    3    0    0 -0.22665069235E+02  0.83636434986E+01 -0.11926351119E+03  0.12168582907E+03  0.00000000000E+00 0.  1.
         14    1    3    3    0    0 -0.33828232793E+01 -0.91947434460E+02 -0.27906878510E+03  0.29384547132E+03  0.00000000000E+00 0. -1.
         11    1    5    5    0    0  0.31413958510E+02  0.92511607133E+02 -0.58666514915E+02  0.11396049410E+03  0.00000000000E+00 0. -1.
        -12    1    5    5    0    0  0.23002425437E+03  0.25789716084E+03 -0.14494956691E+03  0.37474321890E+03  0.00000000000E+00 0.  1.
          5    1    4    4  501    0 -0.21974522675E+03 -0.27619210553E+03 -0.72400151164E+03  0.80545993388E+03  0.41800000000E+01 0.  1.
         -5    1    4    4    0  501 -0.15645093618E+02  0.93671285243E+01 -0.14113668807E+02  0.23434591917E+02  0.41800000000E+01 0.  1.
</event>
<event>
11    1  0.8041700E-009  0.3283195E+03  0.7561462E-02  0.9888704E-01
         22   -1    0    0    0    0  0.00000000000E+00  0.00000000000E+00  0.16472025473E+04  0.16472025473E+04  0.00000000000E+00 0.  1.
         22   -1    0    0    0    0 -0.00000000000E+00 -0.00000000000E+00 -0.49863955774E+03  0.49863955774E+03  0.00000000000E+00 0. -1.
        -24    2    1    2    0    0  0.25297308215E+02  0.17830538819E+03 -0.35872693777E+03  0.40887468480E+03  0.77850669406E+02 0.  0.
         25    2    1    2    0    0 -0.23098686067E+03 -0.36736875864E+03  0.43900686484E+03  0.62983238204E+03  0.12508823871E+03 0.  0.
         24    2    1    2    0    0  0.20568955245E+03  0.18906337045E+03  0.10682830625E+04  0.11071350382E+04  0.80412319851E+02 0.  0.
        -11    1    5    5    0    0  0.16459982712E+03  0.10880075750E+03  0.80545685922E+03  0.82927164426E+03  0.00000000000E+00 0.  1.
         12    1    5    5    0    0  0.41089725333E+02  0.80262612948E+02  0.26282620326E+03  0.27786339393E+03  0.00000000000E+00 0. -1.
         13    1    3    3    0    0  0.47051593737E+02  0.14645242117E+03 -0.31508938782E+03  0.35063297971E+03  0.00000000000E+00 0. -1.
        -14    1    3    3    0    0 -0.21754285523E+02  0.31852967022E+02 -0.43637549949E+02  0.58241705094E+02  0.00000000000E+00 0.  1.
          5    1    4    4  501    0 -0.14925949147E+03 -0.17932641273E+03  0.30825091713E+03  0.38661668149E+03  0.41800000000E+01 0.  1.
         -5    1    4    4    0  501 -0.81727369200E+02 -0.18804234591E+03  0.13075594771E+03  0.24321570055E+03  0.41800000000E+01 0.  1.
</event>
<event>
11    1  0.8041700E-009  0.1469284E+03  0.7561462E-02  0.1100059E+00
         22   -1    0    0    0    0  0.00000000000E+00  0.00000000000E+00  0.46718811149E+03  0.46718811149E+03  0.00000000000E+00 0. -1.
         22   -1    0    0    0    0 -0.00000000000E+00 -0.00000000000E+00 -0.14978347223E+04  0.14978347223E+04  0.00000000000E+00 0.  1.
         24    2    1    2    0    0  0.54927138931E+02 -0.28758696586E+02 -0.14140343831E+04  0.14177332769E+04  0.81426990920E+02 0.  0.
         25    2    1    2    0    0 -0.12611724529E+03  0.32405920849E+02  0.37155911873E+02  0.18434822989E+03  0.12509198540E+03 0.  0.
        -24    2    1    2    0    0  0.71190106355E+02 -0.36472242628E+01  0.34623186035E+03  0.36294132699E+03  0.82271332975E+02 0.  0.
        -13    1    3    3    0    0  0.65619184299E+01  0.11725737352E+02 -0.86241781153E+03  0.86252248280E+03  0.00000000000E+00 0.  1.
         14    1    3    3    0    0  0.48365220501E+02 -0.40484433938E+02 -0.55161657153E+03  0.55521079415E+03  0.00000000000E+00 0. -1.
         13    1    5    5    0    0  0.46122699306E+02  0.31321595339E+02  0.26722164037E+03  0.27297573301E+03  0.00000000000E+00 0. -1.
        -14    1    5    5    0    0  0.25067407049E+02 -0.34968819602E+02  0.79010219972E+02  0.89965593983E+02  0.00000000000E+00 0.  1.
          5    1    4    4  501    0 -0.68453059556E+02 -0.31738560830E+02 -0.23132991020E+02  0.79030154243E+02  0.41800000000E+01 0.  1.
         -5    1    4    4    0  501 -0.57664185730E+02  0.64144481679E+02  0.60288902893E+02  0.10531807565E+03  0.41800000000E+01 0.  1.
</event>
<event>
11    1  0.8041700E-009  0.1558491E+03  0.7561462E-02  0.1091048E+00
         22   -1    0    0    0    0  0.00000000000E+00  0.00000000000E+00  0.16674921117E+04  0.16674921117E+04  0.00000000000E+00 0. -1.
         22   -1    0    0    0    0 -0.00000000000E+00 -0.00000000000E+00 -0.10202869683E+04  0.10202869683E+04  0.00000000000E+00 0.  1.
         24    2    1    2    0    0 -0.84310524651E+02 -0.47084134573E+02 -0.94860390872E+03  0.95733448849E+03  0.85526410729E+02 0.  0.
         25    2    1    2    0    0 -0.15640952706E+02  0.75071354116E+02  0.18104745064E+02  0.14783656509E+03  0.12509004986E+03 0.  0.
        -24    2    1    2    0    0  0.99951477357E+02 -0.27987219543E+02  0.15777043070E+04  0.15826080264E+04  0.68729198502E+02 0.  0.
        -11    1    3    3    0    0  0.92810480179E+01  0.91305482149E+01 -0.24161300156E+03  0.24196352470E+03  0.00000000000E+00 0.  1.
         12    1    3    3    0    0 -0.93591572669E+02 -0.56214682788E+02 -0.70699090716E+03  0.71537096379E+03  0.00000000000E+00 0. -1.
         11    1    5    5    0    0  0.10966239511E+03 -0.23425204609E+02  0.14969338159E+04  0.15011280526E+04  0.00000000000E+00 0. -1.
        -12    1    5    5    0    0 -0.97109177550E+01 -0.45620149345E+01  0.80770491099E+02  0.81479973836E+02  0.00000000000E+00 0.  1.
          5    1    4    4  501    0 -0.52811044947E+02  0.10344893513E+02 -0.27179566750E+02  0.60433637479E+02  0.41800000000E+01 0.  1.
         -5    1    4    4    0  501  0.37170092241E+02  0.64726460603E+02  0.45284311814E+02  0.87402927616E+02  0.41800000000E+01 0.  1.
</event>
<event>
11    1  0.8041700E-009  0.1381232E+03  0.7561462E-02  0.1109672E+00
         22   -1    0    0    0    0  0.00000000000E+00  0.00000000000E+00  0.26315341151E+03  0.26315341151E+03  0.00000000000E+00 0. -1.
         22   -1    0    0    0    0 -0.00000000000E+00 -0.00000000000E+00 -0.84136497492E+03  0.84136497492E+03  0.00000000000E+00 0. -1.
        -24    2    1    2    0    0  0.36947393606E+02  0.30124645076E+02 -0.53664047657E+03  0.54464386858E+03  0.79883279579E+02 0.  0.
         25    2    1    2    0    0 -0.71810342887E+02  0.17024083101E+02 -0.27109111394E+03  0.30754397778E+03  0.12508541667E+03 0.  0.
         24    2    1    2    0    0  0.34862949281E+02 -0.47148728177E+02  0.22952002709E+03  0.25233054007E+03  0.86907023954E+02 0.  0.
        -11    1    5    5    0    0 -0.92613309164E+01 -0.55986683507E+02  0.97020744417E+02  0.11239797964E+03  0.00000000000E+00 0.  1.
         12    1    5    5    0    0  0.44124280198E+02  0.88379553298E+01  0.13249928268E+03  0.13993256042E+03  0.00000000000E+00 0. -1.
         13    1    3    3    0    0  0.38063697590E+02 -0.19138456306E+01 -0.45990057236E+03  0.46147702471E+03  0.00000000000E+00 0. -1.
        -14    1    3    3    0    0 -0.11163039842E+01  0.32038490707E+02 -0.76739904208E+02  0.83166843870E+02  0.00000000000E+00 0.  1.
          5    1    4    4  501    0 -0.83933396512E+02  0.40878376443E+02 -0.11065179320E+03  0.14483490066E+03  0.41800000000E+01 0.  1.
         -5    1    4    4    0  501  0.12123053625E+02 -0.23854293342E+02 -0.16043932074E+03  0.16270907712E+03  0.41800000000E+01 0.  1.
</event>
<event>
11    1  0.8041700E-009  0.1421154E+03  0.7561462E-02  0.1105219E+00
         22   -1    0    0    0    0  0.00000000000E+00  0.00000000000E+00  0.32361139375E+04  0.32361139375E+04  0.00000000000E+00 0.  1.
         22   -1    0    0    0    0 -0.00000000000E+00 -0.00000000000E+00 -0.35052772929E+03  0.35052772929E+03  0.00000000000E+00 0.  1.
         24    2    1    2    0    0 -0.36193690900E+02 -0.36498002551E+02 -0.29595145852E+03  0.31245193719E+03  0.86004998705E+02 0.  0.
         25    2    1    2    0    0 -0.11819678585E+02 -0.12332290701E+02  0.42442283419E+02  0.13320246176E+03  0.12509899360E+03 0.  0.
        -24    2    1    2    0    0  0.48013369486E+02  0.48830293251E+02  0.31390953833E+04  0.31409872678E+04  0.84802771801E+02 0.  0.
        -13    1    3    3    0    0 -0.47943974543E+02 -0.24675581643E+02 -0.28965925218E+03  0.29463535328E+03  0.00000000000E+00 0.  1.
         14    1    3    3    0    0  0.11750283642E+02 -0.11822420908E+02 -0.62922063368E+01  0.17816583914E+02  0.00000000000E+00 0. -1.
         11    1    5    5    0    0  0.30298555350E+02 -0.19109957378E+02  0.14331999593E+04  0.14336475565E+04  0.00000000000E+00 0. -1.
        -12    1    5    5    0    0  0.17714814135E+02  0.67940250630E+02  0.17058954240E+04  0.17073397114E+04  0.00000000000E+00 0.  1.
          5    1    4    4  501    0 -0.39862740684E+02 -0.37353578648E+02 -0.21548289009E+02  0.58873840471E+02  0.41800000000E+01 0. -1.
         -5    1    4    4    0  501  0.28043062098E+02  0.25021287947E+02  0.63990572428E+02  0.74328621284E+02  0.41800000000E+01 0. -1.
</event>
<event>
11    1  0.8041700E-009  0.1889874E+03  0.7561462E-02  0.1062596E+00
         22   -1    0    0    0    0  0.00000000000E+00  0.00000000000E+00  0.29408474445E+03  0.29408474445E+03  0.00000000000E+00 0. -1.
         22   -1    0    0    0    0 -0.00000000000E+00 -0.00000000000E+00 -0.74659912901E+03  0.74659912901E+03  0.00000000000E+00 0.  1.
        -24    2    1    2    0    0  0.74092553283E+01  0.58521762455E+02 -0.59844710234E+03  0.60669996404E+03  0.80412799447E+02 0.  0.
         25    2    1    2    0    0 -0.14707670626E+03 -0.55293485356E+02 -0.21044775693E+02  0.20191751532E+03  0.12505548114E+03 0.  0.
         24    2    1    2    0    0  0.13966745094E+03 -0.32282770988E+01  0.16697749347E+03  0.23206639410E+03  0.80348673429E+02 0.  0.
        -13    1    5    5    0    0  0.56263640079E+02 -0.30297166187E+02  0.32934683363E+02  0.71890255544E+02  0.00000000000E+00 0.  1.
         14    1    5    5    0    0  0.83403810856E+02  0.27068889089E+02  0.13404281011E+03  0.16017613856E+03  0.00000000000E+00 0. -1.
         13    1    3    3    0    0  0.37358571015E+02  0.18133644742E+02 -0.15702157798E+03  0.16242003525E+03  0.00000000000E+00 0. -1.
        -14    1    3    3    0    0 -0.29949315686E+02  0.40388117713E+02 -0.44142552436E+03  0.44427992879E+03  0.00000000000E+00 0.  1.
          5    1    4    4  501    0 -0.54440390294E+02 -0.11852676143E+02 -0.69048851793E+02  0.88822623025E+02  0.41800000000E+01 0.  1.
         -5    1    4    4    0  501 -0.92636315970E+02 -0.43440809213E+02  0.48004076101E+02  0.11309489230E+03  0.41800000000E+01 0.  1.
</event>
<event>
11    1  0.8041700E-009  0.1254921E+03  0.7561462E-02  0.1124935E+00
         22   -1    0    0    0    0  0.00000000000E+00  0.00000000000E+00  0.48137408212E+03  0.48137408212E+03  0.00000000000E+00 0. -1.
         22   -1    0    0    0    0 -0.00000000000E+00 -0.00000000000E+00 -0.11136942115E+04  0.11136942115E+04  0.00000000000E+00 0.  1.
         24    2    1    2    0    0  0.20328765447E+01 -0.82318269473E+01 -0.97546741854E+03  0.97872362262E+03  0.79318026259E+02 0.  0.
         25    2    1    2    0    0  0.25274001402E+02  0.42232165350E+02 -0.99759045813E+02  0.16740951699E+03  0.12510694714E+03 0.  0.
        -24    2    1    2    0    0 -0.27306877947E+02 -0.34000338403E+02  0.44290633501E+03  0.44893515397E+03  0.58949658874E+02 0.  0.
        -13    1    3    3    0    0 -0.18010367693E+02  0.81479933379E+01 -0.86644357204E+03  0.86666904103E+03  0.00000000000E+00 0.  1.
         14    1    3    3    0    0  0.20043244238E+02 -0.16379820285E+02 -0.10902384650E+03  0.11205458160E+03  0.00000000000E+00 0. -1.
         13    1    5    5    0    0 -0.32935588857E+02 -0.46056344160E+02  0.29169328671E+03  0.29713786928E+03  0.00000000000E+00 0. -1.
        -14    1    5    5    0    0  0.56287109106E+01  0.12056005757E+02  0.15121304830E+03  0.15179728468E+03  0.00000000000E+00 0.  1.
          5    1    4    4  501    0  0.33773825177E+02 -0.36847010933E+02 -0.60581097827E+02  0.78650589926E+02  0.41800000000E+01 0. -1.
         -5    1    4    4    0  501 -0.84998237751E+01  0.79079176284E+02 -0.39177947986E+02  0.88758927068E+02  0.41800000000E+01 0. -1.
</event>
<event>
11    1  0.8041700E-009  0.2499187E+03  0.7561462E-02  0.1023943E+00
         22   -1    0    0    0    0  0.00000000000E+00  0.00000000000E+00  0.36692740350E+03  0.36692740350E+03  0.00000000000E+00 0.  1.
         22   -1    0    0    0    0 -0.00000000000E+00 -0.00000000000E+00 -0.10290440176E+04  0.10290440176E+04  0.00000000000E+00 0.  1.
         24    2    1    2    0    0  0.13097647745E+02 -0.12208464395E+02 -0.77140220950E+03  0.77340654369E+03  0.52685083524E+02 0.  0.
         25    2    1    2    0    0 -0.88349892079E+02  0.21199060507E+03 -0.12955913341E+03  0.29185392024E+03  0.12508965441E+03 0.  0.
        -24    2    1    2    0    0  0.75252244335E+02 -0.19978214068E+03  0.23884472881E+03  0.33071095717E+03  0.82140907592E+02 0.  0.
        -13    1    3    3    0    0  0.30565518978E+02 -0.11739451948E+02 -0.64140292047E+03  0.64223809609E+03  0.00000000000E+00 0.  1.
         14    1    3    3    0    0 -0.17467871233E+02 -0.46901244768E+00 -0.12999928903E+03  0.13116844760E+03  0.00000000000E+00 0. -1.
         13    1    5    5    0    0 -0.37251777278E+01 -0.13978849976E+02 -0.38980612025E+01  0.14982659206E+02  0.00000000000E+00 0. -1.
        -14    1    5    5    0    0  0.78977422062E+02 -0.18580329070E+03  0.24274279001E+03  0.31572829796E+03  0.00000000000E+00 0.  1.
          5    1    4    4  501    0 -0.75704774574E+02  0.16983101082E+03 -0.37502854944E+02  0.18973065556E+03  0.41800000000E+01 0.  1.
         -5    1    4    4    0  501 -0.12645117505E+02  0.42159594250E+02 -0.92056278469E+02  0.10212326468E+03  0.41800000000E+01 0.  1.
</event>
<event>
11    1  0.8041700E-009  0.1362650E+03  0.7561462E-02  0.1111802E+00
         22   -1    0    0    0    0  0.00000000000E+00  0.00000000000E+00  0.19686159563E+04  0.19686159563E+04  0.00000000000E+00 0. -1.
         22   -1    0    0    0    0 -0.00000000000E+00 -0.00000000000E+00 -0.14738601879E+03  0.14738601879E+03  0.00000000000E+00 0. -1.
        -24    2    1    2    0    0 -0.49709552879E+02 -0.22821937718E+02 -0.12012089255E+03  0.15433296151E+03  0.79985959345E+02 0.  0.
         25    2    1    2    0    0  0.10390059038E+02  0.55024549363E+02  0.54368288025E+03  0.56069060674E+03  0.12508887980E+03 0.  0.
         24    2    1    2    0    0  0.39319493841E+02 -0.32202611644E+02  0.13976679498E+04  0.14009784069E+04  0.81742080533E+02 0.  0.
        -13    1    5    5    0    0  0.29402462027E+02 -0.56929047917E+00  0.14921163657E+03  0.15208202179E+03  0.00000000000E+00 0.  1.
         14    1    5    5    0    0  0.99170318138E+01 -0.31633321165E+02  0.12484563133E+04  0.12488963851E+04  0.00000000000E+00 0. -1.
         13    1    3    3    0    0 -0.32567078504E+02 -0.23978354193E+02 -0.12885957985E+03  0.13505690427E+03  0.00000000000E+00 0. -1.
        -14    1    3    3    0    0 -0.17142474375E+02  0.11564164742E+01  0.87386873030E+01  0.19276057235E+02  0.00000000000E+00 0.  1.
          5    1    4    4  501    0 -0.59473565862E+01  0.38943102607E+02  0.53398229300E+03  0.53544980897E+03  0.41800000000E+01 0.  1.
         -5    1    4    4    0  501  0.16337415624E+02  0.16081446755E+02  0.97005872524E+01  0.25240797770E+02  0.41800000000E+01 0.  1.
</event>
<event>
11    1  0.8041700E-009  0.1320233E+03  0.7561462E-02  0.1116808E+00
         22   -1    0    0    0    0  0.00000000000E+00  0.00000000000E+00  0.11102129364E+04  0.11102129364E+04  0.00000000000E+00 0. -1.
         22   -1    0    0    0    0 -0.00000000000E+00 -0.00000000000E+00 -0.28482961713E+03  0.28482961713E+03  0.00000000000E+00 0. -1.
         24    2    1    2    0    0  0.46770748964E+02 -0.29354827457E+02 -0.26370724490E+03  0.28104976476E+03  0.79989064298E+02 0.  0.
         25    2    1    2    0    0 -0.19867710213E+02 -0.20574821084E+02  0.47699655736E+03  0.49394899099E+03  0.12506734505E+03 0.  0.
        -24    2    1    2    0    0 -0.26903038752E+02  0.49929648541E+02  0.61209400681E+03  0.62004379777E+03  0.81107919980E+02 0.  0.
        -11    1    3    3    0    0 -0.39796228128E+00  0.17248241654E+02 -0.12676220696E+02  0.21409035131E+02  0.00000000000E+00 0.  1.
         12    1    3    3    0    0  0.47168711246E+02 -0.46603069110E+02 -0.25103102420E+03  0.25964072963E+03  0.00000000000E+00 0. -1.
         11    1    5    5    0    0  0.26505530169E+02  0.31533367307E+02  0.30864975186E+03  0.31138652139E+03  0.00000000000E+00 0. -1.
        -12    1    5    5    0    0 -0.53408568921E+02  0.18396281234E+02  0.30344425495E+03  0.30865727637E+03  0.00000000000E+00 0.  1.
          5    1    4    4  501    0  0.62954739679E+01  0.48607647315E+01  0.44542722706E+03  0.44551784143E+03  0.41800000000E+01 0.  1.
         -5    1    4    4    0  501 -0.26163184181E+02 -0.25435585816E+02  0.31569330297E+02  0.48431149559E+02  0.41800000000E+01 0.  1.
</event>
<event>
11    1  0.8041700E-009  0.1517352E+03  0.7561462E-02  0.1095119E+00
         22   -1    0    0    0    0  0.00000000000E+00  0.00000000000E+00  0.50582670736E+02  0.50582670736E+02  0.00000000000E+00 0.  1.
         22   -1    0    0    0    0 -0.00000000000E+00 -0.00000000000E+00 -0.23883117136E+04  0.23883117136E+04  0.00000000000E+00 0.  1.
        -24    2    1    2    0    0  0.44295904157E+02  0.69034708303E+02 -0.15329030181E+04  0.15372001523E+04  0.80403527248E+02 0.  0.
         25    2    1    2    0    0 -0.93380284419E+02 -0.57580805287E+02 -0.78760911212E+03  0.80499125517E+03  0.12508949094E+03 0.  0.
         24    2    1    2    0    0  0.49084380262E+02 -0.11453903016E+02 -0.17216912639E+02  0.96702976886E+02  0.80712919522E+02 0.  0.
        -13    1    5    5    0    0  0.39499443791E+02  0.53240735250E+00  0.28348521013E+02  0.48622301067E+02  0.00000000000E+00 0.  1.
         14    1    5    5    0    0  0.95849364703E+01 -0.11986310368E+02 -0.45565433652E+02  0.48080675819E+02  0.00000000000E+00 0. -1.
         13    1    3    3    0    0 -0.35958533444E+01 -0.14721306631E+02 -0.11130535124E+03  0.11233222265E+03  0.00000000000E+00 0. -1.
        -14    1    3    3    0    0  0.47891757501E+02  0.83756014935E+02 -0.14215976668E+04  0.14248679296E+04  0.00000000000E+00 0.  1.
          5    1    4    4  501    0 -0.64115179336E+01 -0.73692348319E+02 -0.27575269781E+03  0.28553229680E+03  0.41800000000E+01 0. -1.
         -5    1    4    4    0  501 -0.86968766485E+02  0.16111543031E+02 -0.51185641431E+03  0.51945895837E+03  0.41800000000E+01 0. -1.
</event>
<event>
11    1  0.8041700E-009  0.2004456E+03  0.7561462E-02  0.1054209E+00
         22   -1    0    0    0    0  0.00000000000E+00  0.00000000000E+00  0.15627105398E+03  0.15627105398E+03  0.00000000000E+00 0. -1.
         22   -1    0    0    0    0 -0.00000000000E+00 -0.00000000000E+00 -0.21251288519E+04  0.21251288519E+04  0.00000000000E+00 0. -1.
         24    2    1    2    0    0 -0.15415689878E+03 -0.10059009757E+00 -0.10205280034E+04  0.10353381902E+04  0.81752080921E+02 0.  0.
         25    2    1    2    0    0  0.13778471544E+03 -0.13910252650E+03 -0.10361127187E+04  0.10618428346E+04  0.12508596604E+03 0.  0.
        -24    2    1    2    0    0  0.16372183341E+02  0.13920311660E+03  0.87782924132E+02  0.18421888113E+03  0.81149234989E+02 0.  0.
        -11    1    3    3    0    0 -0.15999009240E+03 -0.11122459078E+02 -0.90105846734E+03  0.91521959132E+03  0.00000000000E+00 0.  1.
         12    1    3    3    0    0  0.58331936225E+01  0.11021868980E+02 -0.11946953604E+03  0.12011859883E+03  0.00000000000E+00 0. -1.
         11    1    5    5    0    0 -0.72386521278E+01  0.11671482562E+03  0.95186776725E+02  0.15078219745E+03  0.00000000000E+00 0. -1.
        -12    1    5    5    0    0  0.23610835469E+02  0.22488290975E+02 -0.74038525932E+01  0.33436683683E+02  0.00000000000E+00 0.  1.
          5    1    4    4  501    0  0.11506167919E+01 -0.69095801775E+02 -0.47787399452E+03  0.48286290061E+03  0.41800000000E+01 0.  1.
         -5    1    4    4    0  501  0.13663409865E+03 -0.70006724724E+02 -0.55823872414E+03  0.57897993398E+03  0.41800000000E+01 0.  1.
</event>
<event>
11    1  0.8041700E-009  0.1625818E+03  0.7561462E-02  0.1084674E+00
         22   -1    0    0    0    0  0.00000000000E+00  0.00000000000E+00  0.10479004032E+03  0.10479004032E+03  0.00000000000E+00 0.  1.
         22   -1    0    0    0    0 -0.00000000000E+00 -0.00000000000E+00 -0.40292459709E+03  0.40292459709E+03  0.00000000000E+00 0. -1.
         24    2    1    2    0    0  0.13045899562E+03  0.37024072764E+02 -0.14436571945E+03  0.21318285521E+03  0.78836142086E+02 0.  0.
         25    2    1    2    0    0 -0.57845781508E+02 -0.47033578672E+02 -0.11085436763E+03  0.18301822781E+03  0.12509471983E+03 0.  0.
        -24    2    1    2    0    0 -0.72613214114E+02  0.10009505907E+02 -0.42914469701E+02  0.11151355439E+03  0.72254771683E+02 0.  0.
        -13    1    3    3    0    0  0.12073669666E+03  0.40733058793E+01 -0.12459526787E+03  0.17354515988E+03  0.00000000000E+00 0.  1.
         14    1    3    3    0    0  0.97222989639E+01  0.32950766885E+02 -0.19770451579E+02  0.39637695330E+02  0.00000000000E+00 0. -1.
         13    1    5    5    0    0 -0.43679558359E+02 -0.29645765107E+02 -0.30147522113E+02  0.60791843998E+02  0.00000000000E+00 0. -1.
        -14    1    5    5    0    0 -0.28933655755E+02  0.39655271014E+02 -0.12766947587E+02  0.50721710394E+02  0.00000000000E+00 0.  1.
          5    1    4    4  501    0 -0.23541065399E+01 -0.68235918131E+02 -0.14777446719E+02  0.69982338289E+02  0.41800000000E+01 0. -1.
         -5    1    4    4    0  501 -0.55491674968E+02  0.21202339459E+02 -0.96076920907E+02  0.11303588952E+03  0.41800000000E+01 0. -1.
</event>
<event>
11    1  0.8041700E-009  0.1391387E+03  0.7561462E-02  0.1108524E+00
         22   -1    0    0    0    0  0.00000000000E+00  0.00000000000E+00  0.19697045251E+04  0.19697045251E+04  0.00000000000E+00 0.  1.
         22   -1    0    0    0    0 -0.00000000000E+00 -0.00000000000E+00 -0.35947072312E+03  0.35947072312E+03  0.00000000000E+00 0.  1.
        -24    2    1    2    0    0  0.18215866247E+02 -0.58189373702E+02 -0.33606855438E+03  0.35091404325E+03  0.80503239131E+02 0.  0.
         25    2    1    2    0    0 -0.24721218806E+01  0.60984175090E+02  0.30767838257E+03  0.33769569111E+03  0.12508881522E+03 0.  0.
         24    2    1    2    0    0 -0.15743744367E+02 -0.27948013879E+01  0.16386239738E+04  0.16405655139E+04  0.78172893941E+02 0.  0.
        -11    1    5    5    0    0  0.13685834431E+02  0.99389321348E+01  0.13595688839E+04  0.13596740913E+04  0.00000000000E+00 0.  1.
         12    1    5    5    0    0 -0.29429578798E+02 -0.12733733523E+02  0.27905508997E+03  0.28089142264E+03  0.00000000000E+00 0. -1.
         13    1    3    3    0    0  0.62484837136E+01  0.16995695203E+02 -0.26325245025E+02  0.31951771935E+02  0.00000000000E+00 0. -1.
        -14    1    3    3    0    0  0.11967382534E+02 -0.75185068905E+02 -0.30974330936E+03  0.31896227132E+03  0.00000000000E+00 0.  1.
          5    1    4    4  501    0 -0.81973525980E+01 -0.35537418767E+02  0.13327718262E+03  0.13824031441E+03  0.41800000000E+01 0.  1.
         -5    1    4    4    0  501  0.57252307174E+01  0.96521593857E+02  0.17440119995E+03  0.19945537669E+03  0.41800000000E+01 0.  1.
</event>
<event>
11    1  0.8041700E-009  0.2527358E+03  0.7561462E-02  0.1022452E+00
         22   -1    0    0    0    0  0.00000000000E+00  0.00000000000E+00  0.42065763795E+03  0.42065763795E+03  0.00000000000E+00 0. -1.
         22   -1    0    0    0    0 -0.00000000000E+00 -0.00000000000E+00 -0.49801241679E+03  0.49801241679E+03  0.00000000000E+00 0.  1.
        -24    2    1    2    0    0 -0.85461890105E+02 -0.91070541781E+02 -0.32644562523E+03  0.35804225859E+03  0.77652652666E+02 0.  0.
         25    2    1    2    0    0 -0.17147804096E+03  0.13502235705E+02  0.54147802269E+02  0.21946883271E+03  0.12509018802E+03 0.  0.
         24    2    1    2    0    0  0.25693993107E+03  0.77568306075E+02  0.19494304412E+03  0.34115896344E+03  0.79697412759E+02 0.  0.
        -11    1    5    5    0    0  0.12773935682E+03  0.18111653622E+02  0.13524483965E+03  0.18691319357E+03  0.00000000000E+00 0.  1.
         12    1    5    5    0    0  0.12920057424E+03  0.59456652453E+02  0.59698204471E+02  0.15424576987E+03  0.00000000000E+00 0. -1.
         13    1    3    3    0    0 -0.43433700155E+01 -0.13360295441E+02 -0.13827713787E+01  0.14116458977E+02  0.00000000000E+00 0. -1.
        -14    1    3    3    0    0 -0.81118520090E+02 -0.77710246340E+02 -0.32506285385E+03  0.34392579962E+03  0.00000000000E+00 0.  1.
          5    1    4    4  501    0 -0.24293603887E+02  0.20889318764E+02 -0.34638446221E+02  0.47369158583E+02  0.41800000000E+01 0. -1.
         -5    1    4    4    0  501 -0.14718443707E+03 -0.73870830588E+01  0.88786248489E+02  0.17209967412E+03  0.41800000000E+01 0. -1.
</event>
<event>
11    1  0.8041700E-009  0.1598527E+03  0.7561462E-02  0.1087216E+00
         22   -1    0    0    0    0  0.00000000000E+00  0.00000000000E+00  0.45353758519E+03  0.45353758519E+03  0.00000000000E+00 0.  1.
         22   -1    0    0    0    0 -0.00000000000E+00 -0.00000000000E+00 -0.12051348103E+04  0.12051348103E+04  0.00000000000E+00 0. -1.
        -24    2    1    2    0    0  0.30355505033E+02 -0.45513285684E+02 -0.85115751041E+03  0.85679839639E+03  0.81495206400E+02 0.  0.
         25    2    1    2    0    0 -0.18136167852E+02  0.14315250234E+03 -0.31496391072E+03  0.36833578276E+03  0.12508966502E+03 0.  0.
         24    2    1    2    0    0 -0.12219337181E+02 -0.97639216658E+02  0.41452419604E+03  0.43353821632E+03  0.80264232881E+02 0.  0.
        -13    1    5    5    0    0  0.39042218151E+01 -0.42526777603E+02  0.32074185584E+03  0.32357241516E+03  0.00000000000E+00 0.  1.
         14    1    5    5    0    0 -0.16123558996E+02 -0.55112439054E+02  0.93782340193E+02  0.10996580116E+03  0.00000000000E+00 0. -1.
         13    1    3    3    0    0  0.27204570789E+02  0.18833066163E+01 -0.63033774455E+03  0.63092733949E+03  0.00000000000E+00 0. -1.
        -14    1    3    3    0    0  0.31509342440E+01 -0.47396592301E+02 -0.22081976586E+03  0.22587105690E+03  0.00000000000E+00 0.  1.
          5    1    4    4  501    0 -0.20694900096E+02  0.13925716351E+03 -0.15966725319E+03  0.21291298838E+03  0.41800000000E+01 0. -1.
         -5    1    4    4    0  501  0.25587322441E+01  0.38953388358E+01 -0.15529665752E+03  0.15542279438E+03  0.41800000000E+01 0. -1.
</event>
<event>
11    1  0.8041700E-009  0.1746790E+03  0.7561462E-02  0.1074030E+00
         22   -1    0    0    0    0  0.00000000000E+00  0.00000000000E+00  0.16754179661E+03  0.16754179661E+03  0.00000000000E+00 0. -1.
         22   -1    0    0    0    0 -0.00000000000E+00 -0.00000000000E+00 -0.18985194692E+04  0.18985194692E+04  0.00000000000E+00 0. -1.
        -24    2    1    2    0    0 -0.10775294700E+03  0.35789447338E+02 -0.16092557056E+04  0.16153154710E+04  0.81538719082E+02 0.  0.
         25    2    1    2    0    0  0.16207829786E+02  0.65974930171E+02 -0.22100059756E+03  0.26287721338E+03  0.12509108697E+03 0.  0.
         24    2    1    2    0    0  0.91545117218E+02 -0.10176437751E+03  0.99278630597E+02  0.18786858140E+03  0.81864890937E+02 0.  0.
        -13    1    5    5    0    0 -0.96411433615E+00  0.58547733293E+01 -0.80056095159E+01  0.99648216699E+01  0.00000000000E+00 0.  1.
         14    1    5    5    0    0  0.92509231554E+02 -0.10761915084E+03  0.10728424011E+03  0.17790375973E+03  0.00000000000E+00 0. -1.
         11    1    3    3    0    0 -0.11893818562E+03  0.42814209936E+02 -0.14321925379E+04  0.14377603465E+04  0.00000000000E+00 0. -1.
        -12    1    3    3    0    0  0.11185238612E+02 -0.70247625984E+01 -0.17706316780E+03  0.17755512452E+03  0.00000000000E+00 0.  1.
          5    1    4    4  501    0 -0.50421548918E+02  0.53213193438E+02 -0.12988153650E+03  0.14920007532E+03  0.41800000000E+01 0.  1.
         -5    1    4    4    0  501  0.66629378704E+02  0.12761736733E+02 -0.91119061057E+02  0.11367713807E+03  0.41800000000E+01 0.  1.
</event>
<event>
11    1  0.8041700E-009  0.1436148E+03  0.7561462E-02  0.1103588E+00
         22   -1    0    0    0    0  0.00000000000E+00  0.00000000000E+00  0.39962601206E+03  0.39962601206E+03  0.00000000000E+00 0. -1.
         22   -1    0    0    0    0 -0.00000000000E+00 -0.00000000000E+00 -0.32474512552E+04  0.32474512552E+04  0.00000000000E+00 0.  1.
         24    2    1    2    0    0  0.32284693885E+02 -0.47704924168E+01 -0.32077951359E+04  0.32089325030E+04  0.78950081916E+02 0.  0.
         25    2    1    2    0    0 -0.42717644745E+01  0.71878744445E+02  0.22328691401E+03  0.26587597921E+03  0.12509271953E+03 0.  0.
        -24    2    1    2    0    0 -0.28012929410E+02 -0.67108252028E+02  0.13668297877E+03  0.17226878510E+03  0.75538440070E+02 0.  0.
        -13    1    3    3    0    0  0.46938465222E+02 -0.76054725621E+01 -0.30632073330E+04  0.30635763786E+04  0.00000000000E+00 0.  1.
         14    1    3    3    0    0 -0.14653771337E+02  0.28349801453E+01 -0.14458780291E+03  0.14535612432E+03  0.00000000000E+00 0. -1.
         13    1    5    5    0    0 -0.37104143717E+02 -0.80306943827E+02  0.12056703255E+03  0.14954040272E+03  0.00000000000E+00 0. -1.
        -14    1    5    5    0    0  0.90912143072E+01  0.13198691799E+02  0.16115946220E+02  0.22728382374E+02  0.00000000000E+00 0.  1.
          5    1    4    4  501    0  0.25345273085E+02 -0.22689634090E+02  0.11043717350E+03  0.11563323075E+03  0.41800000000E+01 0.  1.
         -5    1    4    4    0  501 -0.29617037560E+02  0.94568378535E+02  0.11284974051E+03  0.15024274846E+03  0.41800000000E+01 0.  1.
</event>
<event>
11    1  0.8041700E-009  0.1290477E+03  0.7561462E-02  0.1120445E+00
         22   -1    0    0    0    0  0.00000000000E+00  0.00000000000E+00  0.18784116163E+03  0.18784116163E+03  0.00000000000E+00 0. -1.
         22   -1    0    0    0    0 -0.00000000000E+00 -0.00000000000E+00 -0.85039684626E+03  0.85039684626E+03  0.00000000000E+00 0.  1.
        -24    2    1    2    0    0 -0.47679637687E+01  0.20386140472E+02 -0.65422036421E+03  0.65964826893E+03  0.81812135768E+02 0.  0.
         25    2    1    2    0    0  0.19877019617E+02 -0.46953727347E+02 -0.15666020537E+03  0.20684646399E+03  0.12507314379E+03 0.  0.
         24    2    1    2    0    0 -0.15109055848E+02  0.26567586875E+02  0.14832488496E+03  0.17174327496E+03  0.81002226859E+02 0.  0.
        -11    1    5    5    0    0  0.74009269529E+01 -0.24275959971E+02  0.21489181758E+02  0.33254787398E+02  0.00000000000E+00 0.  1.
         12    1    5    5    0    0 -0.22509982801E+02  0.50843546846E+02  0.12683570320E+03  0.13848848756E+03  0.00000000000E+00 0. -1.
         11    1    3    3    0    0  0.16788189927E+02  0.46690003467E+02 -0.34181510022E+03  0.34539739791E+03  0.00000000000E+00 0. -1.
        -12    1    3    3    0    0 -0.21556153696E+02 -0.26303862994E+02 -0.31240526399E+03  0.31425087103E+03  0.00000000000E+00 0.  1.
          5    1    4    4  501    0 -0.29812569739E+02  0.19183378560E+02 -0.10081920016E+03  0.10695220824E+03  0.41800000000E+01 0.  1.
         -5    1    4    4    0  501  0.49689589355E+02 -0.66137105908E+02 -0.55841005213E+02  0.99894255747E+02  0.41800000000E+01 0.  1.
</event>
<event>
11    1  0.8041700E-009  0.1569226E+03  0.7561462E-02  0.1090008E+00
         22   -1    0    0    0    0  0.00000000000E+00  0.00000000000E+00  0.41782807622E+03  0.41782807622E+03  0.00000000000E+00 0. -1.
         22   -1    0    0    0    0 -0.00000000000E+00 -0.00000000000E+00 -0.60640394086E+03  0.60640394086E+03  0.00000000000E+00 0. -1.
        -24    2    1    2    0    0 -0.16384468436E+01 -0.12459682672E+02 -0.39978134428E+03  0.40762170313E+03  0.78564632192E+02 0.  0.
         25    2    1    2    0    0 -0.41460781589E+02 -0.72594826015E+02 -0.16295111603E+03  0.22178771509E+03  0.12509084369E+03 0.  0.
         24    2    1    2    0    0  0.43099228433E+02  0.85054508687E+02  0.37415659567E+03  0.39482259886E+03  0.82461588291E+02 0.  0.
        -11    1    5    5    0    0 -0.41152805743E+01 -0.14216278384E+02  0.66211292658E+02  0.67845216344E+02  0.00000000000E+00 0.  1.
         12    1    5    5    0    0  0.47214509007E+02  0.99270787071E+02  0.30794530301E+03  0.32697738251E+03  0.00000000000E+00 0. -1.
         11    1    3    3    0    0  0.29981600442E+02 -0.30802383620E+02 -0.22097507738E+03  0.22511700963E+03  0.00000000000E+00 0. -1.
        -12    1    3    3    0    0 -0.31620047285E+02  0.18342700948E+02 -0.17880626690E+03  0.18250469351E+03  0.00000000000E+00 0.  1.
          5    1    4    4  501    0 -0.68828934373E+01 -0.99455719518E+02 -0.79980109536E+02  0.12787925824E+03  0.41800000000E+01 0.  1.
         -5    1    4    4    0  501 -0.34577888152E+02  0.26860893503E+02 -0.82971006498E+02  0.93908456851E+02  0.41800000000E+01 0.  1.
</event>
<event>
11    1  0.1164500E-008  0.1631211E+03  0.7561462E-02  0.1084178E+00
         22   -1    0    0    0    0  0.00000000000E+00  0.00000000000E+00  0.46990504296E+03  0.46990504296E+03  0.00000000000E+00 0.  1.
         22   -1    0    0    0    0 -0.00000000000E+00 -0.00000000000E+00 -0.71674311302E+03  0.71674311302E+03  0.00000000000E+00 0.  1.
         24    2    1    2    0    0 -0.27636195268E+02  0.43876550618E+02 -0.57934397706E+03  0.58710158598E+03  0.79749091089E+02 0.  0.
         25    2    1    2    0    0  0.58531489626E+02  0.58913613650E+02 -0.77190297771E+02  0.16882619401E+03  0.12508873875E+03 0.  0.
        -24    2    1    2    0    0 -0.30895294358E+02 -0.10279016427E+03  0.40969620477E+03  0.43072037598E+03  0.78413806189E+02 0.  0.
        -11    1    3    3    0    0 -0.38305073095E+02  0.55541985665E+02 -0.30827188231E+03  0.31556892151E+03  0.00000000000E+00 0.  1.
         12    1    3    3    0    0  0.10668877827E+02 -0.11665435047E+02 -0.27107209474E+03  0.27153266447E+03  0.00000000000E+00 0. -1.
         11    1    5    5    0    0 -0.33130677897E+02 -0.46105457746E+01  0.80072167065E+02  0.86778170578E+02  0.00000000000E+00 0. -1.
        -12    1    5    5    0    0  0.22353835384E+01 -0.98179618494E+02  0.32962403770E+03  0.34394220540E+03  0.00000000000E+00 0.  1.
          5    1    4    4  501    0  0.17874272942E+02 -0.91147664718E+01 -0.86523022723E+02  0.88917233775E+02  0.41800000000E+01 0. -1.
         -5    1    4    4    0  501  0.40657216685E+02  0.68028380122E+02  0.93327249521E+01  0.79908960234E+02  0.41800000000E+01 0. -1.
</event>
<event>
11    1  0.8041700E-009  0.1372089E+03  0.7561462E-02  0.1110716E+00
         22   -1    0    0    0    0  0.00000000000E+00  0.00000000000E+00  0.44445040675E+03  0.44445040675E+03  0.00000000000E+00 0. -1.
         22   -1    0    0    0    0 -0.00000000000E+00 -0.00000000000E+00 -0.37936381387E+04  0.37936381387E+04  0.00000000000E+00 0. -1.
        -24    2    1    2    0    0 -0.18803201766E+02 -0.13579382304E+02 -0.37504597763E+04  0.37512126525E+04  0.71483361216E+02 0.  0.
         25    2    1    2    0    0 -0.38747366392E+02 -0.49097847706E+01  0.88223237418E+02  0.15797611199E+03  0.12509055900E+03 0.  0.
         24    2    1    2    0    0  0.57550568158E+02  0.18489167074E+02  0.31304880687E+03  0.32889978098E+03  0.80756382104E+02 0.  0.
        -13    1    5    5    0    0  0.11616425368E+02 -0.27932454305E+02  0.55600381209E+02  0.63297438593E+02  0.00000000000E+00 0.  1.
         14    1    5    5    0    0  0.45934142790E+02  0.46421621379E+02  0.25744842566E+03  0.26560234238E+03  0.00000000000E+00 0. -1.
         11    1    3    3    0    0 -0.33869504679E+02 -0.51503230696E+01 -0.34960249316E+04  0.34961927852E+04  0.00000000000E+00 0. -1.
        -12    1    3    3    0    0  0.15066302912E+02 -0.84290592339E+01 -0.25443484471E+03  0.25501986732E+03  0.00000000000E+00 0.  1.
          5    1    4    4  501    0 -0.10031803148E+02 -0.57801557237E+02  0.10757822411E+02  0.59790134943E+02  0.41800000000E+01 0. -1.
         -5    1    4    4    0  501 -0.28715563244E+02  0.52891772466E+02  0.77465415007E+02  0.98185977050E+02  0.41800000000E+01 0. -1.
</event>
<event>
11    1  0.8041700E-009  0.1733801E+03  0.7561462E-02  0.1075127E+00
         22   -1    0    0    0    0  0.00000000000E+00  0.00000000000E+00  0.34265063221E+03  0.34265063221E+03  0.00000000000E+00 0.  1.
         22   -1    0    0    0    0 -0.00000000000E+00 -0.00000000000E+00 -0.18411470857E+03  0.18411470857E+03  0.00000000000E+00 0. -1.
         24    2    1    2    0    0 -0.99858761764E+02 -0.50407976261E+02 -0.18647285694E+02  0.13897692724E+03  0.80337591892E+02 0.  0.
         25    2    1    2    0    0  0.65900489217E+02  0.14781919490E+03  0.62628385418E+02  0.21392551414E+03  0.12509365323E+03 0.  0.
        -24    2    1    2    0    0  0.33958272547E+02 -0.97411218641E+02  0.11455482391E+03  0.17386289941E+03  0.80395213270E+02 0.  0.
        -13    1    3    3    0    0 -0.71832298796E+02 -0.48115813951E+02  0.22314975032E+02  0.89291482311E+02  0.00000000000E+00 0.  1.
         14    1    3    3    0    0 -0.28026462968E+02 -0.22921623092E+01 -0.40962260726E+02  0.49685444934E+02  0.00000000000E+00 0. -1.
         13    1    5    5    0    0  0.23121417482E+02 -0.17577286302E+02  0.81958333902E+02  0.86952455032E+02  0.00000000000E+00 0. -1.
        -14    1    5    5    0    0  0.10836855065E+02 -0.79833932338E+02  0.32596490011E+02  0.86910444374E+02  0.00000000000E+00 0.  1.
          5    1    4    4  501    0 -0.20401047183E+02  0.10690330411E+03  0.31267226958E+02  0.11331209573E+03  0.41800000000E+01 0.  1.
         -5    1    4    4    0  501  0.86301536400E+02  0.40915890789E+02  0.31361158460E+02  0.10061341841E+03  0.41800000000E+01 0.  1.
</event>
<event>
11    1  0.8041700E-009  0.1317827E+03  0.7561462E-02  0.1117098E+00
         22   -1    0    0    0    0  0.00000000000E+00  0.00000000000E+00  0.88555113008E+03  0.88555113008E+03  0.00000000000E+00 0.  1.
         22   -1    0    0    0    0 -0.00000000000E+00 -0.00000000000E+00 -0.55063112047E+03  0.55063112047E+03  0.00000000000E+00 0. -1.
        -24    2    1    2    0    0 -0.40394438316E+02 -0.88488618210E+01 -0.52832236351E+03  0.53610726101E+03  0.81095391471E+02 0.  0.
         25    2    1    2    0    0  0.52712720842E+02 -0.50624712980E+01  0.28185859422E+03  0.31288250417E+03  0.12508770815E+03 0.  0.
         24    2    1    2    0    0 -0.12318282526E+02  0.13911333119E+02  0.58138377891E+03  0.58719248537E+03  0.80266127462E+02 0.  0.
        -13    1    5    5    0    0 -0.84056359759E+00  0.23429818030E+02  0.56315115659E+03  0.56363896963E+03  0.00000000000E+00 0.  1.
         14    1    5    5    0    0 -0.11477718928E+02 -0.95184849112E+01  0.18232622324E+02  0.23553515738E+02  0.00000000000E+00 0. -1.
         13    1    3    3    0    0 -0.63411917498E+02 -0.11286671264E+02 -0.44471967673E+03  0.44935960110E+03  0.00000000000E+00 0. -1.
        -14    1    3    3    0    0  0.23017479183E+02  0.24378094428E+01 -0.83602686783E+02  0.86747659912E+02  0.00000000000E+00 0.  1.
          5    1    4    4  501    0  0.46972621521E+02 -0.53096145789E+02  0.23464855448E+03  0.24515922253E+03  0.41800000000E+01 0.  1.
         -5    1    4    4    0  501  0.57400993210E+01  0.48033674491E+02  0.47210039737E+02  0.67723281649E+02  0.41800000000E+01 0.  1.
</event>
<event>
11    1  0.8041700E-009  0.1475557E+03  0.7561462E-02  0.1099403E+00
         22   -1    0    0    0    0  0.00000000000E+00  0.00000000000E+00  0.43285946284E+03  0.43285946284E+03  0.00000000000E+00 0.  1.
         22   -1    0    0    0    0 -0.00000000000E+00 -0.00000000000E+00 -0.57633385281E+03  0.57633385281E+03  0.00000000000E+00 0.  1.
        -24    2    1    2    0    0  0.57391785873E+02 -0.33116292649E+02 -0.51045779610E+03  0.52100272247E+03  0.80536757423E+02 0.  0.
         25    2    1    2    0    0 -0.10936674025E+03  0.75382814767E+02  0.11567078255E+03  0.21603491446E+03  0.12509077382E+03 0.  0.
         24    2    1    2    0    0  0.51974954379E+02 -0.42266522118E+02  0.25131262359E+03  0.27215567871E+03  0.80142522474E+02 0.  0.
        -11    1    5    5    0    0  0.59750518170E+02 -0.53512585835E+02  0.15161584942E+03  0.17152576208E+03  0.00000000000E+00 0.  1.
         12    1    5    5    0    0 -0.77755637904E+01  0.11246063717E+02  0.99696774168E+02  0.10062991663E+03  0.00000000000E+00 0. -1.
         11    1    3    3    0    0 -0.11390533586E+02 -0.30227923452E+02 -0.22797410332E+03  0.23025130488E+03  0.00000000000E+00 0. -1.
        -12    1    3    3    0    0  0.68782319459E+02 -0.28883691966E+01 -0.28248369278E+03  0.29075141759E+03  0.00000000000E+00 0.  1.
          5    1    4    4  501    0  0.93092640036E+01 -0.18596881821E+02 -0.56957722200E+01  0.21964075918E+02  0.41800000000E+01 0. -1.
         -5    1    4    4    0  501 -0.11867600426E+03  0.93979696588E+02  0.12136655477E+03  0.19407083855E+03  0.41800000000E+01 0. -1.
</event>
<event>
11    1  0.8041700E-009  0.1677623E+03  0.7561462E-02  0.1079996E+00
         22   -1    0    0    0    0  0.00000000000E+00  0.00000000000E+00  0.16138258794E+04  0.16138258794E+04  0.00000000000E+00 0. -1.
         22   -1    0    0    0    0 -0.00000000000E+00 -0.00000000000E+00 -0.12950996419E+04  0.12950996419E+04  0.00000000000E+00 0. -1.
         24    2    1    2    0    0  0.11136466552E+03 -0.62677150814E+01 -0.12561697127E+04  0.12637820228E+04  0.82105304111E+02 0.  0.
         25    2    1    2    0    0 -0.12799099974E+03 -0.20003577163E+02  0.20645136014E+03  0.27395978911E+03  0.12509981147E+03 0.  0.
        -24    2    1    2    0    0  0.16626334218E+02  0.26271292245E+02  0.13684445901E+04  0.13711837094E+04  0.80855135029E+02 0.  0.
        -13    1    3    3    0    0 -0.98169907322E+01 -0.13739268710E+02 -0.13230289708E+03  0.13337615000E+03  0.00000000000E+00 0.  1.
         14    1    3    3    0    0  0.12118165625E+03  0.74715536287E+01 -0.11238668156E+04  0.11304058728E+04  0.00000000000E+00 0. -1.
         13    1    5    5    0    0  0.30208984358E+02 -0.18046548287E+02  0.83073147665E+03  0.83147642596E+03  0.00000000000E+00 0. -1.
        -14    1    5    5    0    0 -0.13582650140E+02  0.44317840532E+02  0.53771311348E+03  0.53970728343E+03  0.00000000000E+00 0.  1.
          5    1    4    4  501    0 -0.11884614906E+02 -0.26094024374E+02  0.13356719343E+03  0.13667410048E+03  0.41800000000E+01 0.  1.
         -5    1    4    4    0  501 -0.11610638483E+03  0.60904472110E+01  0.72884166710E+02  0.13728568863E+03  0.41800000000E+01 0.  1.
</event>
<event>
11    1  0.8041700E-009  0.1700837E+03  0.7561462E-02  0.1077959E+00
         22   -1    0    0    0    0  0.00000000000E+00  0.00000000000E+00  0.47189586467E+03  0.47189586467E+03  0.00000000000E+00 0. -1.
         22   -1    0    0    0    0 -0.00000000000E+00 -0.00000000000E+00 -0.41905966869E+03  0.41905966869E+03  0.00000000000E+00 0.  1.
         24    2    1    2    0    0 -0.93509313500E+02 -0.70737470076E+02 -0.34252892220E+03  0.37142571820E+03  0.82965174696E+02 0.  0.
         25    2    1    2    0    0  0.77918510253E+02  0.62299504709E+02  0.54384721256E+02  0.16898965331E+03  0.12508909821E+03 0.  0.
        -24    2    1    2    0    0  0.15590803247E+02  0.84379653672E+01  0.34098039692E+03  0.35054016186E+03  0.79350498345E+02 0.  0.
        -13    1    3    3    0    0 -0.84865253273E+02 -0.64093194798E+02 -0.34432654380E+03  0.36037593926E+03  0.00000000000E+00 0.  1.
         14    1    3    3    0    0 -0.86440602264E+01 -0.66442752779E+01  0.17976216007E+01  0.11049778938E+02  0.00000000000E+00 0. -1.
         11    1    5    5    0    0  0.25956973763E+02 -0.29397684493E+02  0.12439096952E+03  0.13042661400E+03  0.00000000000E+00 0. -1.
        -12    1    5    5    0    0 -0.10366170517E+02  0.37835649860E+02  0.21658942740E+03  0.22011354786E+03  0.00000000000E+00 0.  1.
          5    1    4    4  501    0 -0.40742621458E+00  0.69206333418E+02  0.57665877841E+02  0.90180421648E+02  0.41800000000E+01 0.  1.
         -5    1    4    4    0  501  0.78325936468E+02 -0.69068287096E+01 -0.32811565856E+01  0.78809231661E+02  0.41800000000E+01 0.  1.
</event>
<event>
11    1  0.8041700E-009  0.1296928E+03  0.7561462E-02  0.1119647E+00
         22   -1    0    0    0    0  0.00000000000E+00  0.00000000000E+00  0.36492924593E+03  0.36492924593E+03  0.00000000000E+00 0. -1.
         22   -1    0    0    0    0 -0.00000000000E+00 -0.00000000000E+00 -0.21077269117E+03  0.21077269117E+03  0.00000000000E+00 0. -1.
         24    2    1    2    0    0 -0.24368309247E+02 -0.24764237889E+02 -0.14944066482E+03  0.17296495163E+03  0.79857875123E+02 0.  0.
         25    2    1    2    0    0  0.11755048442E+02  0.30019316561E+02  0.54264390398E+02  0.14011847248E+03  0.12509684942E+03 0.  0.
        -24    2    1    2    0    0  0.12613260804E+02 -0.52550786721E+01  0.24933282918E+03  0.26261851299E+03  0.81332118246E+02 0.  0.
        -11    1    3    3    0    0 -0.41919538885E+02 -0.24125397346E+02 -0.41875169410E+02  0.63975091642E+02  0.00000000000E+00 0.  1.
         12    1    3    3    0    0  0.17551229638E+02 -0.63884054228E+00 -0.10756549541E+03  0.10898985999E+03  0.00000000000E+00 0. -1.
         11    1    5    5    0    0  0.30865478350E+02 -0.31196362226E+02  0.89638172088E+02  0.99804271778E+02  0.00000000000E+00 0. -1.
        -12    1    5    5    0    0 -0.18252217546E+02  0.25941283554E+02  0.15969465709E+03  0.16281424121E+03  0.00000000000E+00 0.  1.
          5    1    4    4  501    0 -0.49094218679E+02  0.25198972764E+02  0.56241347056E+02  0.78903688473E+02  0.41800000000E+01 0. -1.
         -5    1    4    4    0  501  0.60849267121E+02  0.48203437963E+01 -0.19769566575E+01  0.61214784007E+02  0.41800000000E+01 0. -1.
</event>
<event>
11    1  0.8041700E-009  0.1574809E+03  0.7561462E-02  0.1089471E+00
         22   -1    0    0    0    0  0.00000000000E+00  0.00000000000E+00  0.18478351941E+04  0.18478351941E+04  0.00000000000E+00 0. -1.
         22   -1    0    0    0    0 -0.00000000000E+00 -0.00000000000E+00 -0.26063478894E+03  0.26063478894E+03  0.00000000000E+00 0.  1.
         24    2    1    2    0    0  0.15243944524E+02  0.93052853078E+02 -0.20256112331E+03  0.23775032800E+03  0.81258836300E+02 0.  0.
         25    2    1    2    0    0  0.24006205247E+02 -0.11498532840E+03  0.14860941797E+03  0.22700158963E+03  0.12508812473E+03 0.  0.
        -24    2    1    2    0    0 -0.39250149771E+02  0.21932475320E+02  0.16411521105E+04  0.16437180654E+04  0.80045118549E+02 0.  0.
        -11    1    3    3    0    0 -0.22946384784E+02  0.58164748161E+02 -0.15634412940E+03  0.16838396985E+03  0.00000000000E+00 0.  1.
         12    1    3    3    0    0  0.38190329308E+02  0.34888104917E+02 -0.46216993907E+02  0.69366358151E+02  0.00000000000E+00 0. -1.
         13    1    5    5    0    0 -0.37786451394E+02  0.49012435829E+02  0.13083276488E+04  0.13097905449E+04  0.00000000000E+00 0. -1.
        -14    1    5    5    0    0 -0.14636983768E+01 -0.27079960509E+02  0.33282446168E+03  0.33392752053E+03  0.00000000000E+00 0.  1.
          5    1    4    4  501    0  0.59340099492E+02 -0.15698062031E+02  0.81023664113E+02  0.10173486671E+03  0.41800000000E+01 0.  1.
         -5    1    4    4    0  501 -0.35333894245E+02 -0.99287266367E+02  0.67585753859E+02  0.12526672291E+03  0.41800000000E+01 0.  1.
</event>
<event>
11    1  0.8041700E-009  0.1852515E+03  0.7561462E-02  0.1065472E+00
         22   -1    0    0    0    0  0.00000000000E+00  0.00000000000E+00  0.11272064660E+04  0.11272064660E+04  0.00000000000E+00 0. -1.
         22   -1    0    0    0    0 -0.00000000000E+00 -0.00000000000E+00 -0.66397915094E+03  0.66397915094E+03  0.00000000000E+00 0. -1.
        -24    2    1    2    0    0  0.13383426343E+03  0.25285749753E+02 -0.63414476804E+03  0.65357793181E+03  0.80458355091E+02 0.  0.
         25    2    1    2    0    0 -0.16454361866E+03 -0.34123731459E+02  0.68048169111E+03  0.71199861115E+03  0.12509060258E+03 0.  0.
         24    2    1    2    0    0  0.30709355231E+02  0.88379817063E+01  0.41689039201E+03  0.42560907400E+03  0.79525533608E+02 0.  0.
        -11    1    5    5    0    0  0.37201805093E+02 -0.27682943821E+02  0.27847866954E+03  0.28231310468E+03  0.00000000000E+00 0.  1.
         12    1    5    5    0    0 -0.64924498626E+01  0.36520925527E+02  0.13841172247E+03  0.14329596932E+03  0.00000000000E+00 0. -1.
         13    1    3    3    0    0  0.13979233094E+03  0.22993719305E+02 -0.63051363604E+03  0.64623374421E+03  0.00000000000E+00 0. -1.
        -14    1    3    3    0    0 -0.59580675039E+01  0.22920304480E+01 -0.36311320016E+01  0.73441876044E+01  0.00000000000E+00 0.  1.
          5    1    4    4  501    0 -0.13027144321E+03 -0.34392769877E+02  0.28783072286E+03  0.31783251715E+03  0.41800000000E+01 0.  1.
         -5    1    4    4    0  501 -0.34272175452E+02  0.26903841844E+00  0.39265096824E+03  0.39416609399E+03  0.41800000000E+01 0.  1.
</event>
<event>
11    1  0.8041700E-009  0.1895067E+03  0.7561462E-02  0.1062202E+00
         22   -1    0    0    0    0  0.00000000000E+00  0.00000000000E+00  0.21732304632E+03  0.21732304632E+03  0.00000000000E+00 0. -1.
         22   -1    0    0    0    0 -0.00000000000E+00 -0.00000000000E+00 -0.23601893465E+04  0.23601893465E+04  0.00000000000E+00 0.  1.
         24    2    1    2    0    0 -0.11760309060E+03  0.35019270286E+02 -0.17391430735E+04  0.17452319753E+04  0.78480450953E+02 0.  0.
         25    2    1    2    0    0  0.14918036523E+03 -0.17024545224E+03 -0.55504604035E+03  0.61233930077E+03  0.12508004233E+03 0.  0.
        -24    2    1    2    0    0 -0.31577274628E+02  0.13522618195E+03  0.15132281365E+03  0.21994111679E+03  0.78690891261E+02 0.  0.
        -11    1    3    3    0    0 -0.92885088896E+02  0.16403510919E+02 -0.15958885980E+04  0.15986735539E+04  0.00000000000E+00 0.  1.
         12    1    3    3    0    0 -0.24718001703E+02  0.18615759367E+02 -0.14325447553E+03  0.14655842134E+03  0.00000000000E+00 0. -1.
         13    1    5    5    0    0 -0.42753906210E+02  0.13930899074E+03  0.12887434712E+03  0.19453402978E+03  0.00000000000E+00 0. -1.
        -14    1    5    5    0    0  0.11176631582E+02 -0.40828087841E+01  0.22448466527E+02  0.25407087014E+02  0.00000000000E+00 0.  1.
          5    1    4    4  501    0  0.14430249715E+03 -0.18637526958E+03 -0.54055163309E+03  0.58972238572E+03  0.41800000000E+01 0. -1.
         -5    1    4    4    0  501  0.48778680797E+01  0.16129817341E+02 -0.14494407264E+02  0.22616915050E+02  0.41800000000E+01 0. -1.
</event>
<event>
11    1  0.8041700E-009  0.1563725E+03  0.7561462E-02  0.1090540E+00
         22   -1    0    0    0    0  0.00000000000E+00  0.00000000000E+00  0.14029426849E+04  0.14029426849E+04  0.00000000000E+00 0.  1.
         22   -1    0    0    0    0 -0.00000000000E+00 -0.00000000000E+00 -0.10400142926E+03  0.10400142926E+03  0.00000000000E+00 0.  1.
         24    2    1    2    0    0  0.40093384660E+02 -0.62804036841E+02 -0.38712561469E+02  0.11693075989E+03  0.81377599233E+02 0.  0.
         25    2    1    2    0    0 -0.31342344588E+02 -0.40766872904E+02  0.18477566083E+03  0.22898611840E+03  0.12509323360E+03 0.  0.
        -24    2    1    2    0    0 -0.87510400721E+01  0.10357090975E+03  0.11528781563E+04  0.11610272359E+04  0.89736754678E+02 0.  0.
        -11    1    3    3    0    0  0.19279196421E+02 -0.44176939651E+02 -0.63407193088E+02  0.79647734098E+02  0.00000000000E+00 0.  1.
         12    1    3    3    0    0  0.20814188239E+02 -0.18627097191E+02  0.24694631619E+02  0.37283025797E+02  0.00000000000E+00 0. -1.
         13    1    5    5    0    0 -0.98583350750E+01 -0.15430752771E+02  0.15365329804E+03  0.15474052766E+03  0.00000000000E+00 0. -1.
        -14    1    5    5    0    0  0.11072950029E+01  0.11900166252E+03  0.99922485824E+03  0.10062867082E+04  0.00000000000E+00 0.  1.
          5    1    4    4  501    0 -0.33974566619E+02 -0.76273150796E+02  0.17143944687E+03  0.19073757116E+03  0.41800000000E+01 0. -1.
         -5    1    4    4    0  501  0.26322220309E+01  0.35506277893E+02  0.13336213958E+02  0.38248547232E+02  0.41800000000E+01 0. -1.
</event>
<event>
11    1  0.8041700E-009  0.2072675E+03  0.7561462E-02  0.1049500E+00
         22   -1    0    0    0    0  0.00000000000E+00  0.00000000000E+00  0.17406030849E+04  0.17406030849E+04  0.00000000000E+00 0. -1.
         22   -1    0    0    0    0 -0.00000000000E+00 -0.00000000000E+00 -0.72943475934E+02  0.72943475934E+02  0.00000000000E+00 0.  1.
         24    2    1    2    0    0  0.32073151386E+02  0.22820612240E+02  0.11499854989E+02  0.93758027339E+02  0.84314018069E+02 0.  0.
         25    2    1    2    0    0  0.12270263956E+03  0.55799631870E+02  0.31312331009E+03  0.36312804687E+03  0.12508490887E+03 0.  0.
        -24    2    1    2    0    0 -0.15477579095E+03 -0.78620244110E+02  0.13430364439E+04  0.13566604866E+04  0.81511337384E+02 0.  0.
        -11    1    3    3    0    0  0.39096012657E+02  0.28347047253E+02 -0.26250092052E+02  0.54964721653E+02  0.00000000000E+00 0.  1.
         12    1    3    3    0    0 -0.70228612720E+01 -0.55264350135E+01  0.37749947041E+02  0.38793305686E+02  0.00000000000E+00 0. -1.
         11    1    5    5    0    0 -0.10955230904E+03 -0.44048463231E+02  0.60388295578E+03  0.61531829146E+03  0.00000000000E+00 0. -1.
        -12    1    5    5    0    0 -0.45223481906E+02 -0.34571780879E+02  0.73915348812E+03  0.74134219518E+03  0.00000000000E+00 0.  1.
          5    1    4    4  501    0  0.12523402996E+03  0.44484903820E+01  0.17182031309E+03  0.21270412247E+03  0.41800000000E+01 0. -1.
         -5    1    4    4    0  501 -0.25313903954E+01  0.51351141488E+02  0.14130299701E+03  0.15042392440E+03  0.41800000000E+01 0. -1.
</event>
<event>
11    1  0.8041700E-009  0.1307460E+03  0.7561462E-02  0.1118356E+00
         22   -1    0    0    0    0  0.00000000000E+00  0.00000000000E+00  0.34209068300E+03  0.34209068300E+03  0.00000000000E+00 0.  1.
         22   -1    0    0    0    0 -0.00000000000E+00 -0.00000000000E+00 -0.19699509308E+03  0.19699509308E+03  0.00000000000E+00 0. -1.
         24    2    1    2    0    0 -0.37693852219E+02 -0.12356696878E+02 -0.13495635918E+03  0.16273640104E+03  0.81831551906E+02 0.  0.
         25    2    1    2    0    0  0.32250851665E+02 -0.21477066115E+02  0.68467167524E+02  0.14777289595E+03  0.12509074285E+03 0.  0.
        -24    2    1    2    0    0  0.54430005533E+01  0.33833762994E+02  0.21158478158E+03  0.22857647909E+03  0.79402375427E+02 0.  0.
        -11    1    3    3    0    0 -0.17550471130E+02  0.27937971585E+02 -0.18399767352E+02  0.37776986802E+02  0.00000000000E+00 0.  1.
         12    1    3    3    0    0 -0.20143381088E+02 -0.40294668464E+02 -0.11655659182E+03  0.12495941423E+03  0.00000000000E+00 0. -1.
         11    1    5    5    0    0  0.27911846755E+02  0.85962146924E+01  0.23515952012E+02  0.37496214413E+02  0.00000000000E+00 0. -1.
        -12    1    5    5    0    0 -0.22468846201E+02  0.25237548301E+02  0.18806882957E+03  0.19108026467E+03  0.00000000000E+00 0.  1.
          5    1    4    4  501    0  0.31224522513E+02 -0.22098025507E+01  0.10314384708E+03  0.10787019803E+03  0.41800000000E+01 0.  1.
         -5    1    4    4    0  501  0.10263291521E+01 -0.19267263565E+02 -0.34676679552E+02  0.39902697924E+02  0.41800000000E+01 0.  1.
</event>
<event>
11    1  0.8041700E-009  0.2386429E+03  0.7561462E-02  0.1030129E+00
         22   -1    0    0    0    0  0.00000000000E+00  0.00000000000E+00  0.43852951808E+03  0.43852951808E+03  0.00000000000E+00 0.  1.
         22   -1    0    0    0    0 -0.00000000000E+00 -0.00000000000E+00 -0.16544015353E+04  0.16544015353E+04  0.00000000000E+00 0.  1.
         24    2    1    2    0    0 -0.96751045592E+01  0.42567680271E+01 -0.15309642857E+04  0.15332006506E+04  0.82102760192E+02 0.  0.
         25    2    1    2    0    0  0.15718649337E+03  0.13300687549E+03  0.12668579541E+03  0.27220556556E+03  0.12509259185E+03 0.  0.
        -24    2    1    2    0    0 -0.14751138881E+03 -0.13726364352E+03  0.18840647312E+03  0.28752483716E+03  0.81071667137E+02 0.  0.
        -13    1    3    3    0    0  0.11897000473E+02 -0.22474226696E+02 -0.12331211132E+04  0.12333832775E+04  0.00000000000E+00 0.  1.
         14    1    3    3    0    0 -0.21572105032E+02  0.26730994724E+02 -0.29784317252E+03  0.29981737310E+03  0.00000000000E+00 0. -1.
         13    1    5    5    0    0 -0.55906835987E+02 -0.53571863195E+02  0.23043700258E+02  0.80786947942E+02  0.00000000000E+00 0. -1.
        -14    1    5    5    0    0 -0.91604552821E+02 -0.83691780323E+02  0.16536277286E+03  0.20673788922E+03  0.00000000000E+00 0.  1.
          5    1    4    4  501    0  0.17272947587E+03  0.10873557374E+03  0.84502910278E+02  0.22094594605E+03  0.41800000000E+01 0. -1.
         -5    1    4    4    0  501 -0.15542982504E+02  0.24271301754E+02  0.42182885133E+02  0.51259619508E+02  0.41800000000E+01 0. -1.
</event>
<event>
11    1  0.8041700E-009  0.1468592E+03  0.7561462E-02  0.1100132E+00
         22   -1    0    0    0    0  0.00000000000E+00  0.00000000000E+00  0.97780154486E+03  0.97780154486E+03  0.00000000000E+00 0.  1.
         22   -1    0    0    0    0 -0.00000000000E+00 -0.00000000000E+00 -0.12568655427E+03  0.12568655427E+03  0.00000000000E+00 0. -1.
        -24    2    1    2    0    0 -0.17191160962E+02  0.26556156242E+02 -0.33014145971E+02  0.92346535100E+02  0.80232058812E+02 0.  0.
         25    2    1    2    0    0  0.73786775740E+02 -0.76089673376E+02  0.53697749586E+02  0.17252328764E+03  0.12508680905E+03 0.  0.
         24    2    1    2    0    0 -0.56595614777E+02  0.49533517134E+02  0.83143138698E+03  0.83861827639E+03  0.79660713773E+02 0.  0.
        -13    1    5    5    0    0 -0.63898052193E+02  0.40807042742E+02  0.81563021715E+03  0.81914640141E+03  0.00000000000E+00 0.  1.
         14    1    5    5    0    0  0.73024374158E+01  0.87264743921E+01  0.15801169824E+02  0.19471874983E+02  0.00000000000E+00 0. -1.
         13    1    3    3    0    0  0.63477114694E+01  0.47596644439E+02 -0.36869714913E+02  0.60540150979E+02  0.00000000000E+00 0. -1.
        -14    1    3    3    0    0 -0.23538872432E+02 -0.21040488198E+02  0.38555689422E+01  0.31806384121E+02  0.00000000000E+00 0.  1.
          5    1    4    4  501    0  0.52326996457E+02 -0.96425663660E+02  0.77459766850E+02  0.13436335457E+03  0.41800000000E+01 0.  1.
         -5    1    4    4    0  501  0.21459779283E+02  0.20335990284E+02 -0.23762017264E+02  0.38159933073E+02  0.41800000000E+01 0.  1.
</event>
<event>
11    1  0.8041700E-009  0.1496944E+03  0.7561462E-02  0.1097191E+00
         22   -1    0    0    0    0  0.00000000000E+00  0.00000000000E+00  0.18022090834E+03  0.18022090834E+03  0.00000000000E+00 0.  1.
         22   -1    0    0    0    0 -0.00000000000E+00 -0.00000000000E+00 -0.43620440498E+03  0.43620440498E+03  0.00000000000E+00 0. -1.
        -24    2    1    2    0    0 -0.37709267233E+02 -0.36112920596E+02 -0.30214365021E+03  0.31656142391E+03  0.78703353677E+02 0.  0.
         25    2    1    2    0    0  0.50427233677E+02  0.10684673230E+03 -0.20165530344E+02  0.17324283540E+03  0.12508917341E+03 0.  0.
         24    2    1    2    0    0 -0.12717966444E+02 -0.70733811699E+02  0.66325683909E+02  0.12662105401E+03  0.80428702499E+02 0.  0.
        -11    1    5    5    0    0 -0.20857094283E+02 -0.89451683081E+01  0.59795700712E+02  0.63957487768E+02  0.00000000000E+00 0.  1.
         12    1    5    5    0    0  0.81391278393E+01 -0.61788643391E+02  0.65299831968E+01  0.62663566246E+02  0.00000000000E+00 0. -1.
         13    1    3    3    0    0 -0.41100379936E+02 -0.57117251878E+02 -0.25996556492E+03  0.26932084330E+03  0.00000000000E+00 0. -1.
        -14    1    3    3    0    0  0.33911127034E+01  0.21004331281E+02 -0.42178085288E+02  0.47240580611E+02  0.00000000000E+00 0.  1.
          5    1    4    4  501    0  0.92107604222E+02  0.65068563571E+02 -0.15267566863E+02  0.11387844273E+03  0.41800000000E+01 0. -1.
         -5    1    4    4    0  501 -0.41680370545E+02  0.41778168724E+02 -0.48979634809E+01  0.59364392669E+02  0.41800000000E+01 0. -1.
</event>
<event>
11    1  0.8041700E-009  0.1400776E+03  0.7561462E-02  0.1107472E+00
         22   -1    0    0    0    0  0.00000000000E+00  0.00000000000E+00  0.39530116433E+03  0.39530116433E+03  0.00000000000E+00 0. -1.
         22   -1    0    0    0    0 -0.00000000000E+00 -0.00000000000E+00 -0.47618621282E+03  0.47618621282E+03  0.00000000000E+00 0.  1.
        -24    2    1    2    0    0 -0.28847470561E+02 -0.30148794435E+02 -0.38886052455E+03  0.39932570707E+03  0.80668373049E+02 0.  0.
         25    2    1    2    0    0  0.82255555804E+02  0.55929141501E+02  0.11703998254E+02  0.16024391134E+03  0.12508829769E+03 0.  0.
         24    2    1    2    0    0 -0.53408085243E+02 -0.25780347066E+02  0.29627147781E+03  0.31191775874E+03  0.77452241957E+02 0.  0.
        -11    1    5    5    0    0 -0.22297326480E+02 -0.49788016745E+01  0.13205079758E+02  0.26388129257E+02  0.00000000000E+00 0.  1.
         12    1    5    5    0    0 -0.31110758763E+02 -0.20801545392E+02  0.28306639806E+03  0.28552962948E+03  0.00000000000E+00 0. -1.
         11    1    3    3    0    0  0.18434567152E+02 -0.54114790428E+01 -0.24780423395E+02  0.31355808954E+02  0.00000000000E+00 0. -1.
        -12    1    3    3    0    0 -0.47282037713E+02 -0.24737315392E+02 -0.36408010116E+03  0.36796989812E+03  0.00000000000E+00 0.  1.
          5    1    4    4  501    0  0.69919937850E+02  0.94981976142E+02  0.14896855766E+02  0.11895277303E+03  0.41800000000E+01 0. -1.
         -5    1    4    4    0  501  0.12335617955E+02 -0.39052834641E+02 -0.31928575122E+01  0.41291138310E+02  0.41800000000E+01 0. -1.
</event>
<event>
11    1  0.8041700E-009  0.1434032E+03  0.7561462E-02  0.1103817E+00
         22   -1    0    0    0    0  0.00000000000E+00  0.00000000000E+00  0.75358493871E+02  0.75358493871E+02  0.00000000000E+00 0.  1.
         22   -1    0    0    0    0 -0.00000000000E+00 -0.00000000000E+00 -0.17227696725E+04  0.17227696725E+04  0.00000000000E+00 0.  1.
         24    2    1    2    0    0  0.52320492399E+01  0.46711171127E+02 -0.13566677205E+04  0.13598580901E+04  0.80358032634E+02 0.  0.
         25    2    1    2    0    0  0.30631815355E+02 -0.10095838050E+03 -0.29314170191E+03  0.33572626386E+03  0.12509661924E+03 0.  0.
        -24    2    1    2    0    0 -0.35863864595E+02  0.54247209372E+02  0.23982438043E+01  0.10254381242E+03  0.79249639647E+02 0.  0.
        -11    1    3    3    0    0 -0.10212393926E+02  0.32250542210E+02 -0.12764170805E+04  0.12768652841E+04  0.00000000000E+00 0.  1.
         12    1    3    3    0    0  0.15444443166E+02  0.14460628917E+02 -0.80250640015E+02  0.82992805930E+02  0.00000000000E+00 0. -1.
         11    1    5    5    0    0 -0.24945131419E+02  0.21877018834E+02 -0.37465075767E+02  0.50044934177E+02  0.00000000000E+00 0. -1.
        -12    1    5    5    0    0 -0.10918733176E+02  0.32370190538E+02  0.39863319571E+02  0.52498878244E+02  0.00000000000E+00 0.  1.
          5    1    4    4  501    0  0.25027917384E+02 -0.69076594738E+01 -0.20486937177E+03  0.20655034326E+03  0.41800000000E+01 0.  1.
         -5    1    4    4    0  501  0.56038979717E+01 -0.94050721025E+02 -0.88272330132E+02  0.12917592061E+03  0.41800000000E+01 0.  1.
</event>
<event>
11    1  0.8041700E-009  0.1508329E+03  0.7561462E-02  0.1096031E+00
         22   -1    0    0    0    0  0.00000000000E+00  0.00000000000E+00  0.29646844434E+03  0.29646844434E+03  0.00000000000E+00 0. -1.
         22   -1    0    0    0    0 -0.00000000000E+00 -0.00000000000E+00 -0.35843702333E+03  0.35843702333E+03  0.00000000000E+00 0.  1.
         24    2    1    2    0    0  0.62883471409E+01  0.96930911008E+02 -0.24132401615E+03  0.28193076641E+03  0.10868547031E+03 0.  0.
         25    2    1    2    0    0 -0.74266684435E+02 -0.27807981094E+02 -0.68741814742E+01  0.14826559637E+03  0.12508640400E+03 0.  0.
        -24    2    1    2    0    0  0.67978337294E+02 -0.69122929913E+02  0.18622961863E+03  0.22470910489E+03  0.80085436770E+02 0.  0.
        -11    1    3    3    0    0  0.43360780325E+02  0.27998309857E+02 -0.16390955547E+03  0.17184412995E+03  0.00000000000E+00 0.  1.
         12    1    3    3    0    0 -0.37072433184E+02  0.68932601151E+02 -0.77414460688E+02  0.11008663646E+03  0.00000000000E+00 0. -1.
         13    1    5    5    0    0  0.34429549165E+02 -0.75965965546E+02  0.16369927925E+03  0.18372173471E+03  0.00000000000E+00 0. -1.
        -14    1    5    5    0    0  0.33548788129E+02  0.68430356326E+01  0.22530339381E+02  0.40987370179E+02  0.00000000000E+00 0.  1.
          5    1    4    4  501    0 -0.27887333273E+02 -0.55342683953E+02 -0.49473517717E+02  0.79407917612E+02  0.41800000000E+01 0. -1.
         -5    1    4    4    0  501 -0.46379351162E+02  0.27534702859E+02  0.42599336243E+02  0.68857678759E+02  0.41800000000E+01 0. -1.
</event>
<event>
11    1  0.8041700E-009  0.1326355E+03  0.7561462E-02  0.1116073E+00
         22   -1    0    0    0    0  0.00000000000E+00  0.00000000000E+00  0.39345908931E+03  0.39345908931E+03  0.00000000000E+00 0. -1.
         22   -1    0    0    0    0 -0.00000000000E+00 -0.00000000000E+00 -0.11919988577E+04  0.11919988577E+04  0.00000000000E+00 0. -1.
         24    2    1    2    0    0 -0.13449146060E+02  0.29671588071E+02 -0.10285144570E+04  0.10322958447E+04  0.82045354036E+02 0.  0.
         25    2    1    2    0    0 -0.12631303784E+02  0.73054323671E+01 -0.13044661085E+03  0.18131461104E+03  0.12508297533E+03 0.  0.
        -24    2    1    2    0    0  0.26080449844E+02 -0.36977020438E+02  0.36042129944E+03  0.37184749126E+03  0.79495621030E+02 0.  0.
        -13    1    3    3    0    0  0.18804923126E+02  0.37913003339E+02 -0.29432396284E+03  0.29735099807E+03  0.00000000000E+00 0.  1.
         14    1    3    3    0    0 -0.32254069186E+02 -0.82414152681E+01 -0.73419049417E+03  0.73494484666E+03  0.00000000000E+00 0. -1.
         13    1    5    5    0    0  0.23445726492E+02 -0.48177035907E+02  0.35518988715E+03  0.35920827498E+03  0.00000000000E+00 0. -1.
        -14    1    5    5    0    0  0.26347233526E+01  0.11200015468E+02  0.52314122854E+01  0.12639216279E+02  0.00000000000E+00 0.  1.
          5    1    4    4  501    0  0.44901322262E+02 -0.22937348710E+02 -0.93816841629E+02  0.10658950643E+03  0.41800000000E+01 0. -1.
         -5    1    4    4    0  501 -0.57532626046E+02  0.30242781077E+02 -0.36629769219E+02  0.74725104618E+02  0.41800000000E+01 0. -1.
</event>
<event>
11    1  0.8041700E-009  0.1288434E+03  0.7561462E-02  0.1120698E+00
         22   -1    0    0    0    0  0.00000000000E+00  0.00000000000E+00  0.18659547023E+04  0.18659547023E+04  0.00000000000E+00 0.  1.
         22   -1    0    0    0    0 -0.00000000000E+00 -0.00000000000E+00 -0.60744809783E+02  0.60744809783E+02  0.00000000000E+00 0. -1.
        -24    2    1    2    0    0  0.26662028931E+02  0.17134968242E+02 -0.17727003264E+02  0.88800568292E+02  0.81035938699E+02 0.  0.
         25    2    1    2    0    0 -0.24838125663E+02  0.11001609140E+02  0.68070353129E+03  0.69263390724E+03  0.12508582675E+03 0.  0.
         24    2    1    2    0    0 -0.18239032677E+01 -0.28136577382E+02  0.11422333645E+04  0.11452650365E+04  0.78357841901E+02 0.  0.
        -13    1    5    5    0    0  0.36654666185E+02 -0.21552002013E+02  0.47892522545E+03  0.48080913564E+03  0.00000000000E+00 0.  1.
         14    1    5    5    0    0 -0.38478569453E+02 -0.65845753695E+01  0.66330813904E+03  0.66445590091E+03  0.00000000000E+00 0. -1.
         13    1    3    3    0    0  0.21765756419E+02  0.22600770838E+02 -0.48168593437E+02  0.57487010608E+02  0.00000000000E+00 0. -1.
        -14    1    3    3    0    0  0.48962725112E+01 -0.54658025962E+01  0.30441590173E+02  0.31313557683E+02  0.00000000000E+00 0.  1.
          5    1    4    4  501    0  0.13268503461E+02  0.27722742100E+02  0.60775983012E+03  0.60855080899E+03  0.41800000000E+01 0. -1.
         -5    1    4    4    0  501 -0.38106629124E+02 -0.16721132960E+02  0.72943701174E+02  0.84083098252E+02  0.41800000000E+01 0. -1.
</event>
<event>
11    1  0.8041700E-009  0.1663462E+03  0.7561462E-02  0.1081256E+00
         22   -1    0    0    0    0  0.00000000000E+00  0.00000000000E+00  0.15720734076E+04  0.15720734076E+04  0.00000000000E+00 0.  1.
         22   -1    0    0    0    0 -0.00000000000E+00 -0.00000000000E+00 -0.41325395338E+03  0.41325395338E+03  0.00000000000E+00 0.  1.
        -24    2    1    2    0    0  0.66536384725E+01  0.17632839445E+02 -0.37155950070E+03  0.38060494552E+03  0.80302391351E+02 0.  0.
         25    2    1    2    0    0 -0.85828449505E+02  0.59188235201E+02  0.16220803439E+03  0.22984472748E+03  0.12508949756E+03 0.  0.
         24    2    1    2    0    0  0.79174811033E+02 -0.76821074646E+02  0.13681709206E+04  0.13748776880E+04  0.78910461282E+02 0.  0.
        -11    1    5    5    0    0  0.63044602758E+02 -0.93093833234E+02  0.11683920360E+04  0.11737891776E+04  0.00000000000E+00 0.  1.
         12    1    5    5    0    0  0.16130208274E+02  0.16272758588E+02  0.19977888456E+03  0.20108851038E+03  0.00000000000E+00 0. -1.
         11    1    3    3    0    0  0.23716407241E+02  0.18701835087E+01 -0.30147500525E+02  0.38403611115E+02  0.00000000000E+00 0. -1.
        -12    1    3    3    0    0 -0.17062768768E+02  0.15762655937E+02 -0.34141200018E+03  0.34220133440E+03  0.00000000000E+00 0.  1.
          5    1    4    4  501    0  0.24776623359E+02  0.32819747749E+02  0.15407819063E+02  0.44112245416E+02  0.41800000000E+01 0. -1.
         -5    1    4    4    0  501 -0.11060507286E+03  0.26368487452E+02  0.14680021532E+03  0.18573248206E+03  0.41800000000E+01 0. -1.
</event>
<event>
11    1  0.8041700E-009  0.1483388E+03  0.7561462E-02  0.1098588E+00
         22   -1    0    0    0    0  0.00000000000E+00  0.00000000000E+00  0.68318312717E+03  0.68318312717E+03  0.00000000000E+00 0. -1.
         22   -1    0    0    0    0 -0.00000000000E+00 -0.00000000000E+00 -0.21237756540E+03  0.21237756540E+03  0.00000000000E+00 0. -1.
        -24    2    1    2    0    0 -0.36042621348E+01  0.88500198391E+02 -0.14973154832E+03  0.19285607874E+03  0.83238541096E+02 0.  0.
         25    2    1    2    0    0 -0.30847108462E+02 -0.30125776148E+02  0.85945540268E+02  0.15777116227E+03  0.12508396085E+03 0.  0.
         24    2    1    2    0    0  0.34451370597E+02 -0.58374422243E+02  0.53459156981E+03  0.54493345156E+03  0.81054611262E+02 0.  0.
        -11    1    5    5    0    0  0.19948946396E+02 -0.91677795857E+01  0.27198863652E+02  0.34954067414E+02  0.00000000000E+00 0.  1.
         12    1    5    5    0    0  0.14502424201E+02 -0.49206642657E+02  0.50739270616E+03  0.50997938415E+03  0.00000000000E+00 0. -1.
         11    1    3    3    0    0 -0.36082172897E+02  0.75938757969E+02 -0.12285036886E+03  0.14886514465E+03  0.00000000000E+00 0. -1.
        -12    1    3    3    0    0  0.32477910762E+02  0.12561440422E+02 -0.26881179463E+02  0.43990934092E+02  0.00000000000E+00 0.  1.
          5    1    4    4  501    0 -0.14802635235E+02 -0.78958556950E+02  0.47205924384E+02  0.93270806914E+02  0.41800000000E+01 0. -1.
         -5    1    4    4    0  501 -0.16044473227E+02  0.48832780802E+02  0.38739615884E+02  0.64500355354E+02  0.41800000000E+01 0. -1.
</event>
<event>
11    1  0.8041700E-009  0.1901533E+03  0.7561462E-02  0.1061714E+00
         22   -1    0    0    0    0  0.00000000000E+00  0.00000000000E+00  0.24363593552E+04  0.24363593552E+04  0.00000000000E+00 0. -1.
         22   -1    0    0    0    0 -0.00000000000E+00 -0.00000000000E+00 -0.17440406405E+04  0.17440406405E+04  0.00000000000E+00 0.  1.
         24    2    1    2    0    0 -0.92199860041E+01 -0.45846448628E+02 -0.17151963717E+04  0.17179227663E+04  0.84694347641E+02 0.  0.
         25    2    1    2    0    0 -0.13505571271E+03  0.43796603606E+02  0.34569335239E+03  0.39409337195E+03  0.12508998325E+03 0.  0.
        -24    2    1    2    0    0  0.14427569871E+03  0.20498450221E+01  0.20618217340E+04  0.20683838575E+04  0.79266890108E+02 0.  0.
        -11    1    3    3    0    0  0.35188315036E+02 -0.37701829883E+02 -0.89444275491E+03  0.89592828245E+03  0.00000000000E+00 0.  1.
         12    1    3    3    0    0 -0.44408301040E+02 -0.81446187456E+01 -0.82075361676E+03  0.82199448383E+03  0.00000000000E+00 0. -1.
         13    1    5    5    0    0  0.13028597558E+03  0.26704571158E+02  0.18318837214E+04  0.18367050766E+04  0.00000000000E+00 0. -1.
        -14    1    5    5    0    0  0.13989723136E+02 -0.24654726136E+02  0.22993801264E+03  0.23167878092E+03  0.00000000000E+00 0.  1.
          5    1    4    4  501    0 -0.15713996181E+03  0.25070641835E+02  0.27798506122E+03  0.32033524836E+03  0.41800000000E+01 0.  1.
         -5    1    4    4    0  501  0.22084249106E+02  0.18725961771E+02  0.67708291167E+02  0.73758123590E+02  0.41800000000E+01 0.  1.
</event>
<event>
11    1  0.8041700E-009  0.1287252E+03  0.7561462E-02  0.1120845E+00
         22   -1    0    0    0    0  0.00000000000E+00  0.00000000000E+00  0.69573433050E+03  0.69573433050E+03  0.00000000000E+00 0.  1.
         22   -1    0    0    0    0 -0.00000000000E+00 -0.00000000000E+00 -0.45211420700E+03  0.45211420700E+03  0.00000000000E+00 0.  1.
        -24    2    1    2    0    0 -0.32878105033E+02  0.55646833537E+01 -0.37734788382E+03  0.38751253002E+03  0.81624751197E+02 0.  0.
         25    2    1    2    0    0 -0.37850264960E+01  0.21750602720E+01 -0.78261831448E+01  0.12541260107E+03  0.12509202233E+03 0.  0.
         24    2    1    2    0    0  0.36663131529E+02 -0.77397436257E+01  0.62879419047E+03  0.63492340641E+03  0.79633593317E+02 0.  0.
        -13    1    5    5    0    0  0.17825762096E+02 -0.27200036605E+02  0.94425539920E+02  0.99868825840E+02  0.00000000000E+00 0.  1.
         14    1    5    5    0    0  0.18837369433E+02  0.19460292979E+02  0.53436865055E+03  0.53505458057E+03  0.00000000000E+00 0. -1.
         11    1    3    3    0    0  0.37719950241E+00  0.39534890727E+02 -0.20212636312E+03  0.20595683172E+03  0.00000000000E+00 0. -1.
        -12    1    3    3    0    0 -0.33255304535E+02 -0.33970207373E+02 -0.17522152071E+03  0.18155569830E+03  0.00000000000E+00 0.  1.
          5    1    4    4  501    0 -0.62436605279E+02  0.14899293958E+02 -0.10572011146E+02  0.65188637499E+02  0.41800000000E+01 0.  1.
         -5    1    4    4    0  501  0.58651578783E+02 -0.12724233686E+02  0.27458280012E+01  0.60223963570E+02  0.41800000000E+01 0.  1.
</event>
<event>
11    1  0.8041700E-009  0.1410957E+03  0.7561462E-02  0.1106341E+00
         22   -1    0    0    0    0  0.00000000000E+00  0.00000000000E+00  0.11144079580E+04  0.11144079580E+04  0.00000000000E+00 0.  1.
         22   -1    0    0    0    0 -0.00000000000E+00 -0.00000000000E+00 -0.54278988265E+03  0.54278988265E+03  0.00000000000E+00 0. -1.
         24    2    1    2    0    0  0.42488258467E+02  0.19855265726E+02 -0.48811054144E+03  0.49687140602E+03  0.80186094621E+02 0.  0.
         25    2    1    2    0    0 -0.10382196764E+03 -0.45627010114E+01  0.91749392561E+02  0.18672392445E+03  0.12509218090E+03 0.  0.
        -24    2    1    2    0    0  0.61333709171E+02 -0.15292564715E+02  0.96797922418E+03  0.97360251014E+03  0.83200858714E+02 0.  0.
        -11    1    3    3    0    0 -0.17961071218E+02  0.71548871888E+01 -0.38959945715E+02  0.43493331214E+02  0.00000000000E+00 0.  1.
         12    1    3    3    0    0  0.60449329685E+02  0.12700378538E+02 -0.44915059572E+03  0.45337807480E+03  0.00000000000E+00 0. -1.
         11    1    5    5    0    0  0.88199941424E+01  0.15659025312E+01  0.79100983265E+01  0.11950481285E+02  0.00000000000E+00 0. -1.
        -12    1    5    5    0    0  0.52513715028E+02 -0.16858467246E+02  0.96006912585E+03  0.96165202886E+03  0.00000000000E+00 0.  1.
          5    1    4    4  501    0 -0.17091360391E+02 -0.37177808069E+02 -0.16370490693E+02  0.44269282560E+02  0.41800000000E+01 0.  1.
         -5    1    4    4    0  501 -0.86730607246E+02  0.32615107057E+02  0.10811988325E+03  0.14245464189E+03  0.41800000000E+01 0.  1.
</event>
<event>
11    1  0.8041700E-009  0.1429322E+03  0.7561462E-02  0.1104328E+00
         22   -1    0    0    0    0  0.00000000000E+00  0.00000000000E+00  0.52705494450E+03  0.52705494450E+03  0.00000000000E+00 0. -1.
         22   -1    0    0    0    0 -0.00000000000E+00 -0.00000000000E+00 -0.33203308801E+03  0.33203308801E+03  0.00000000000E+00 0.  1.
        -24    2    1    2    0    0  0.40938940546E+02  0.70663738661E+01 -0.27076830066E+03  0.28538116833E+03  0.80006300398E+02 0.  0.
         25    2    1    2    0    0  0.33239021732E+02 -0.11697055245E+02  0.42709917917E+02  0.13679633391E+03  0.12508975264E+03 0.  0.
         24    2    1    2    0    0 -0.74177962278E+02  0.46306813784E+01  0.42308023923E+03  0.43691053028E+03  0.79812964752E+02 0.  0.
        -11    1    5    5    0    0 -0.59025142922E+02 -0.26155556700E+02  0.17616477685E+03  0.18762225147E+03  0.00000000000E+00 0.  1.
         12    1    5    5    0    0 -0.15152819357E+02  0.30786238078E+02  0.24691546238E+03  0.24928827881E+03  0.00000000000E+00 0. -1.
         11    1    3    3    0    0 -0.86789317501E+01 -0.74605464310E+00  0.12180283537E+01  0.87956834256E+01  0.00000000000E+00 0. -1.
        -12    1    3    3    0    0  0.49617872296E+02  0.78124285092E+01 -0.27198632901E+03  0.27658548490E+03  0.00000000000E+00 0.  1.
          5    1    4    4  501    0  0.56187723709E+01 -0.26070006070E+02  0.82093505039E+02  0.86417774729E+02  0.41800000000E+01 0. -1.
         -5    1    4    4    0  501  0.27620249361E+02  0.14372950825E+02 -0.39383587122E+02  0.50378559178E+02  0.41800000000E+01 0. -1.
</event>
<event>
11    1  0.8041700E-009  0.1307436E+03  0.7561462E-02  0.1118359E+00
         22   -1    0    0    0    0  0.00000000000E+00  0.00000000000E+00  0.22454550980E+03  0.22454550980E+03  0.00000000000E+00 0.  1.
         22   -1    0    0    0    0 -0.00000000000E+00 -0.00000000000E+00 -0.47675653805E+03  0.47675653805E+03  0.00000000000E+00 0. -1.
         24    2    1    2    0    0 -0.37843857491E+02 -0.99595894104E+01 -0.42086686091E+03  0.43017718109E+03  0.79950869598E+02 0.  0.
         25    2    1    2    0    0  0.74650091700E+01  0.11083888756E+02  0.86272758760E+02  0.15253929949E+03  0.12508665010E+03 0.  0.
        -24    2    1    2    0    0  0.30378848321E+02 -0.11242993452E+01  0.82383073893E+02  0.11858556728E+03  0.79695843229E+02 0.  0.
        -11    1    3    3    0    0  0.19277881139E+02  0.14405083143E+02 -0.74598101841E+02  0.78383798836E+02  0.00000000000E+00 0.  1.
         12    1    3    3    0    0 -0.57121738630E+02 -0.24364672554E+02 -0.34626875906E+03  0.35179338225E+03  0.00000000000E+00 0. -1.
         11    1    5    5    0    0  0.36694763307E+02  0.21555166763E+02  0.11775371616E+02  0.44156429260E+02  0.00000000000E+00 0. -1.
        -12    1    5    5    0    0 -0.63159149861E+01 -0.22679466108E+02  0.70607702277E+02  0.74429138016E+02  0.00000000000E+00 0.  1.
          5    1    4    4  501    0 -0.19350200178E+02 -0.52755148607E+02  0.35919032042E+02  0.66822041380E+02  0.41800000000E+01 0.  1.
         -5    1    4    4    0  501  0.26815209348E+02  0.63839037362E+02  0.50353726718E+02  0.85717258111E+02  0.41800000000E+01 0.  1.
</event>
<event>
11    1  0.8041700E-009  0.1416689E+03  0.7561462E-02  0.1105709E+00
         22   -1    0    0    0    0  0.00000000000E+00  0.00000000000E+00  0.30291327806E+03  0.30291327806E+03  0.00000000000E+00 0. -1.
         22   -1    0    0    0    0 -0.00000000000E+00 -0.00000000000E+00 -0.10681051516E+04  0.10681051516E+04  0.00000000000E+00 0. -1.
         24    2    1    2    0    0  0.62863582150E+02  0.23925566863E+01 -0.88048122580E+03  0.88714158868E+03  0.88405062602E+02 0.  0.
         25    2    1    2    0    0 -0.10830760059E+03 -0.12705094228E+02 -0.13646423152E+03  0.21485427244E+03  0.12509163096E+03 0.  0.
        -24    2    1    2    0    0  0.45444018437E+02  0.10312537542E+02  0.25175358383E+03  0.26902256850E+03  0.82593995852E+02 0.  0.
        -11    1    3    3    0    0 -0.14540639348E+02  0.25437747751E+01 -0.33220942476E+02  0.36352881616E+02  0.00000000000E+00 0.  1.
         12    1    3    3    0    0  0.77404221498E+02 -0.15121808886E+00 -0.84726028333E+03  0.85078870707E+03  0.00000000000E+00 0. -1.
         11    1    5    5    0    0 -0.99693694592E+01 -0.25311371128E+02  0.98995745020E+02  0.10266553155E+03  0.00000000000E+00 0. -1.
        -12    1    5    5    0    0  0.55413387896E+02  0.35623908670E+02  0.15275783881E+03  0.16635703696E+03  0.00000000000E+00 0.  1.
          5    1    4    4  501    0  0.56118993284E+01  0.28827044490E+02  0.32172720841E+01  0.29838149201E+02  0.41800000000E+01 0.  1.
         -5    1    4    4    0  501 -0.11391949992E+03 -0.41532138718E+02 -0.13968150361E+03  0.18501612324E+03  0.41800000000E+01 0.  1.
</event>
<event>
11    1  0.8041700E-009  0.1315535E+03  0.7561462E-02  0.1117375E+00
         22   -1    0    0    0    0  0.00000000000E+00  0.00000000000E+00  0.13102030190E+04  0.13102030190E+04  0.00000000000E+00 0.  1.
         22   -1    0    0    0    0 -0.00000000000E+00 -0.00000000000E+00 -0.41616176724E+03  0.41616176724E+03  0.00000000000E+00 0. -1.
        -24    2    1    2    0    0  0.34277345660E+02  0.21819299416E+02 -0.38216144508E+03  0.39233791515E+03  0.78934474800E+02 0.  0.
         25    2    1    2    0    0 -0.30537133380E+02 -0.33698380723E+02  0.13372049017E+03  0.18867014128E+03  0.12508858996E+03 0.  0.
         24    2    1    2    0    0 -0.37402122804E+01  0.11879081307E+02  0.11424822067E+04  0.11453567298E+04  0.80133290370E+02 0.  0.
        -13    1    5    5    0    0 -0.36432964721E+01  0.33092533693E+02  0.10477309851E+04  0.10482597991E+04  0.00000000000E+00 0.  1.
         14    1    5    5    0    0 -0.96915808256E-01 -0.21213452386E+02  0.94751221601E+02  0.97096930691E+02  0.00000000000E+00 0. -1.
         13    1    3    3    0    0  0.33899602860E+02  0.45555073471E+02 -0.17891759777E+03  0.18771242522E+03  0.00000000000E+00 0. -1.
        -14    1    3    3    0    0  0.37774279999E+00 -0.23735774056E+02 -0.20324384731E+03  0.20462548993E+03  0.00000000000E+00 0.  1.
          5    1    4    4  501    0  0.51659104047E+01  0.41790133400E+02  0.18190933649E+02  0.46059573890E+02  0.41800000000E+01 0. -1.
         -5    1    4    4    0  501 -0.35703043784E+02 -0.75488514123E+02  0.11552955653E+03  0.14261056739E+03  0.41800000000E+01 0. -1.
</event>
<event>
11    1  0.8041700E-009  0.1455668E+03  0.7561462E-02  0.1101497E+00
         22   -1    0    0    0    0  0.00000000000E+00  0.00000000000E+00  0.15370664160E+04  0.15370664160E+04  0.00000000000E+00 0.  1.
         22   -1    0    0    0    0 -0.00000000000E+00 -0.00000000000E+00 -0.10877277910E+04  0.10877277910E+04  0.00000000000E+00 0.  1.
        -24    2    1    2    0    0  0.45866558879E+01  0.46974496860E+02 -0.94168309598E+03  0.94638528587E+03  0.81550078400E+02 0.  0.
         25    2    1    2    0    0 -0.44681638654E+01  0.28137006972E+02 -0.11260574649E+03  0.17070256418E+03  0.12509058968E+03 0.  0.
         24    2    1    2    0    0 -0.11849202249E+00 -0.75111503831E+02  0.15036274674E+04  0.15077063569E+04  0.81493225876E+02 0.  0.
        -13    1    5    5    0    0  0.56453946864E+01 -0.45454452479E+02  0.13674876342E+04  0.13682545112E+04  0.00000000000E+00 0.  1.
         14    1    5    5    0    0 -0.57638867088E+01 -0.29657051353E+02  0.13613983323E+03  0.13945184573E+03  0.00000000000E+00 0. -1.
         13    1    3    3    0    0 -0.32986578968E+02  0.29418151431E+02 -0.28633127752E+03  0.28972252676E+03  0.00000000000E+00 0. -1.
        -14    1    3    3    0    0  0.37573234856E+02  0.17556345429E+02 -0.65535181847E+03  0.65666275912E+03  0.00000000000E+00 0.  1.
          5    1    4    4  501    0  0.27257277886E+02 -0.12007541686E+02 -0.11543305013E+03  0.11928705595E+03  0.41800000000E+01 0. -1.
         -5    1    4    4    0  501 -0.31725441751E+02  0.40144548657E+02  0.28273036401E+01  0.51415508235E+02  0.41800000000E+01 0. -1.
</event>
<event>
11    1  0.8041700E-009  0.1796919E+03  0.7561462E-02  0.1069892E+00
         22   -1    0    0    0    0  0.00000000000E+00  0.00000000000E+00  0.11463676799E+03  0.11463676799E+03  0.00000000000E+00 0.  1.
         22   -1    0    0    0    0 -0.00000000000E+00 -0.00000000000E+00 -0.12764486208E+04  0.12764486208E+04  0.00000000000E+00 0. -1.
         24    2    1    2    0    0  0.17338441069E+02  0.76934038569E+02 -0.80457169144E+03  0.81445347264E+03  0.98890771095E+02 0.  0.
         25    2    1    2    0    0 -0.14381054690E+03 -0.69951334413E+02 -0.37469213262E+03  0.42616460874E+03  0.12508963551E+03 0.  0.
        -24    2    1    2    0    0  0.12647210583E+03 -0.69827041558E+01  0.17451971281E+02  0.15046730737E+03  0.79321419390E+02 0.  0.
        -13    1    3    3    0    0 -0.40671194715E+01  0.88441169082E+02 -0.42601036571E+03  0.43511287448E+03  0.00000000000E+00 0.  1.
         14    1    3    3    0    0  0.21405560540E+02 -0.11507130513E+02 -0.37856132573E+03  0.37934059816E+03  0.00000000000E+00 0. -1.
         11    1    5    5    0    0  0.57823365676E+00 -0.22583638374E+02  0.22479014001E+01  0.22702601989E+02  0.00000000000E+00 0. -1.
        -12    1    5    5    0    0  0.12589387217E+03  0.15600934218E+02  0.15204069881E+02  0.12776470538E+03  0.00000000000E+00 0.  1.
          5    1    4    4  501    0  0.78493216751E+01 -0.44088044232E+02 -0.52715116723E+02  0.69294468943E+02  0.41800000000E+01 0. -1.
         -5    1    4    4    0  501 -0.15165986857E+03 -0.25863290181E+02 -0.32197701589E+03  0.35687013980E+03  0.41800000000E+01 0. -1.
</event>
<event>
11    1  0.8041700E-009  0.2493244E+03  0.7561462E-02  0.1024260E+00
         22   -1    0    0    0    0  0.00000000000E+00  0.00000000000E+00  0.21670782805E+04  0.21670782805E+04  0.00000000000E+00 0.  1.
         22   -1    0    0    0    0 -0.00000000000E+00 -0.00000000000E+00 -0.42939589411E+03  0.42939589411E+03  0.00000000000E+00 0. -1.
         24    2    1    2    0    0 -0.11661251707E+03 -0.81541356549E+02 -0.33752105946E+03  0.37510477595E+03  0.80843400440E+02 0.  0.
         25    2    1    2    0    0  0.17727946767E+03 -0.12972491416E+03  0.17650265041E+03  0.30831367041E+03  0.12509025041E+03 0.  0.
        -24    2    1    2    0    0 -0.60666950600E+02  0.21126627071E+03  0.18987007954E+04  0.19130557282E+04  0.80022451334E+02 0.  0.
        -11    1    3    3    0    0 -0.60469453846E+02 -0.31023943449E+02 -0.71825329804E+02  0.98883355106E+02  0.00000000000E+00 0.  1.
         12    1    3    3    0    0 -0.56143063226E+02 -0.50517413100E+02 -0.26569572966E+03  0.27622142085E+03  0.00000000000E+00 0. -1.
         13    1    5    5    0    0  0.14557528316E+02  0.34842514272E+02  0.19747088816E+03  0.20104893459E+03  0.00000000000E+00 0. -1.
        -14    1    5    5    0    0 -0.75224478916E+02  0.17642375644E+03  0.17012299073E+04  0.17120067936E+04  0.00000000000E+00 0.  1.
          5    1    4    4  501    0  0.86824833705E+02 -0.11801971772E+03  0.15730903324E+03  0.21501351087E+03  0.41800000000E+01 0. -1.
         -5    1    4    4    0  501  0.90454633967E+02 -0.11705196435E+02  0.19193617172E+02  0.93300159538E+02  0.41800000000E+01 0. -1.
</event>
<event>
11    1  0.8041700E-009  0.1429253E+03  0.7561462E-02  0.1104335E+00
         22   -1    0    0    0    0  0.00000000000E+00  0.00000000000E+00  0.76451345663E+02  0.76451345663E+02  0.00000000000E+00 0.  1.
         22   -1    0    0    0    0 -0.00000000000E+00 -0.00000000000E+00 -0.12147931457E+04  0.12147931457E+04  0.00000000000E+00 0.  1.
        -24    2    1    2    0    0  0.43206383335E+02 -0.52525012344E+02 -0.95977638782E+03  0.96566860682E+03  0.81972404429E+02 0.  0.
         25    2    1    2    0    0 -0.86224303812E+02  0.31516868320E+02 -0.16846409244E+03  0.22903743767E+03  0.12510017529E+03 0.  0.
         24    2    1    2    0    0  0.43017920478E+02  0.21008144024E+02 -0.10101319737E+02  0.96538446836E+02  0.83221099846E+02 0.  0.
        -11    1    5    5    0    0  0.19986081889E+02  0.28407412031E+02  0.32487237506E+02  0.47558859620E+02  0.00000000000E+00 0.  1.
         12    1    5    5    0    0  0.23031838589E+02 -0.73992680076E+01 -0.42588557243E+02  0.48979587216E+02  0.00000000000E+00 0. -1.
         11    1    3    3    0    0  0.73375882599E+01  0.21586003026E+02 -0.15089533619E+03  0.15260798869E+03  0.00000000000E+00 0. -1.
        -12    1    3    3    0    0  0.35868795075E+02 -0.74111015369E+02 -0.80888105163E+03  0.81306061813E+03  0.00000000000E+00 0.  1.
          5    1    4    4  501    0 -0.86021524355E+02  0.66398830931E+02 -0.15903744913E+03  0.19266263267E+03  0.41800000000E+01 0. -1.
         -5    1    4    4    0  501 -0.20277945690E+00 -0.34881962611E+02 -0.94266433151E+01  0.36374805007E+02  0.41800000000E+01 0. -1.
</event>
<event>
11    1  0.8041700E-009  0.1852816E+03  0.7561462E-02  0.1065449E+00
         22   -1    0    0    0    0  0.00000000000E+00  0.00000000000E+00  0.28759083322E+03  0.28759083322E+03  0.00000000000E+00 0.  1.
         22   -1    0    0    0    0 -0.00000000000E+00 -0.00000000000E+00 -0.16939653403E+04  0.16939653403E+04  0.00000000000E+00 0.  1.
        -24    2    1    2    0    0  0.76896483548E+02  0.11035649072E+03 -0.15274568469E+04  0.15353698596E+04  0.78387260214E+02 0.  0.
         25    2    1    2    0    0 -0.14918568167E+03 -0.12232562454E+03 -0.57445407685E+02  0.23699614668E+03  0.12508905886E+03 0.  0.
         24    2    1    2    0    0  0.72289198120E+02  0.11969133824E+02  0.17852774744E+03  0.20919016724E+03  0.80742684697E+02 0.  0.
        -13    1    5    5    0    0  0.43087899898E+02  0.42170694544E+02  0.13897981401E+03  0.15149364111E+03  0.00000000000E+00 0.  1.
         14    1    5    5    0    0  0.29201298222E+02 -0.30201560720E+02  0.39547933436E+02  0.57696526125E+02  0.00000000000E+00 0. -1.
         13    1    3    3    0    0 -0.11470673058E+01  0.80626597086E+01 -0.47603811039E+03  0.47610776594E+03  0.00000000000E+00 0. -1.
        -14    1    3    3    0    0  0.78043550854E+02  0.10229383101E+03 -0.10514187365E+04  0.10592620937E+04  0.00000000000E+00 0.  1.
          5    1    4    4  501    0 -0.23529378394E+02  0.18803811536E+02 -0.35459359172E+02  0.46712455821E+02  0.41800000000E+01 0. -1.
         -5    1    4    4    0  501 -0.12565630327E+03 -0.14112943608E+03 -0.21986048512E+02  0.19028369086E+03  0.41800000000E+01 0. -1.
</event>
<event>
11    1  0.8041700E-009  0.1409692E+03  0.7561462E-02  0.1106481E+00
         22   -1    0    0    0    0  0.00000000000E+00  0.00000000000E+00  0.25561656613E+03  0.25561656613E+03  0.00000000000E+00 0. -1.
         22   -1    0    0    0    0 -0.00000000000E+00 -0.00000000000E+00 -0.18269034633E+04  0.18269034633E+04  0.00000000000E+00 0. -1.
        -24    2    1    2    0    0  0.61954977614E+02 -0.28245955772E+02 -0.16427047778E+04  0.16460503867E+04  0.79791197558E+02 0.  0.
         25    2    1    2    0    0 -0.28430117331E+02 -0.11906960443E+02 -0.14969408629E+03  0.19749141555E+03  0.12507794557E+03 0.  0.
         24    2    1    2    0    0 -0.33524860282E+02  0.40152916215E+02  0.22111196702E+03  0.23897822711E+03  0.74053481594E+02 0.  0.
        -13    1    5    5    0    0 -0.30050427779E+02 -0.13565449945E+02  0.11978755187E+03  0.12424213144E+03  0.00000000000E+00 0.  1.
         14    1    5    5    0    0 -0.34744325034E+01  0.53718366160E+02  0.10132441514E+03  0.11473609566E+03  0.00000000000E+00 0. -1.
         11    1    3    3    0    0  0.53051038191E+02 -0.11883731471E+02 -0.15717859364E+04  0.15727258710E+04  0.00000000000E+00 0. -1.
        -12    1    3    3    0    0  0.89039394223E+01 -0.16362224301E+02 -0.70918841490E+02  0.73324515680E+02  0.00000000000E+00 0.  1.
          5    1    4    4  501    0 -0.63104704500E+02  0.38585714978E+01 -0.14580324373E+03  0.15897531439E+03  0.41800000000E+01 0.  1.
         -5    1    4    4    0  501  0.34674587169E+02 -0.15765531940E+02 -0.38908425635E+01  0.38516101160E+02  0.41800000000E+01 0.  1.
</event>
<event>
11    1  0.8041700E-009  0.1653551E+03  0.7561462E-02  0.1082146E+00
         22   -1    0    0    0    0  0.00000000000E+00  0.00000000000E+00  0.24420125912E+03  0.24420125912E+03  0.00000000000E+00 0.  1.
         22   -1    0    0    0    0 -0.00000000000E+00 -0.00000000000E+00 -0.16710681358E+04  0.16710681358E+04  0.00000000000E+00 0.  1.
         24    2    1    2    0    0  0.63719168280E+02 -0.44769238817E+02 -0.12078592709E+04  0.12127766292E+04  0.76411496213E+02 0.  0.
         25    2    1    2    0    0 -0.16006990396E+03 -0.36203684827E+00 -0.41698729897E+03  0.46383997458E+03  0.12508640731E+03 0.  0.
        -24    2    1    2    0    0  0.96350735681E+02  0.45131275666E+02  0.19797969325E+03  0.23865279112E+03  0.80242753336E+02 0.  0.
        -13    1    3    3    0    0  0.43884461705E+02 -0.66248267155E+02 -0.83488617625E+03  0.83865941012E+03  0.00000000000E+00 0.  1.
         14    1    3    3    0    0  0.19834706575E+02  0.21479028337E+02 -0.37297309468E+03  0.37411721906E+03  0.00000000000E+00 0. -1.
         11    1    5    5    0    0  0.26892315168E+02  0.84311837728E+01  0.28785208344E+01  0.28329619784E+02  0.00000000000E+00 0. -1.
        -12    1    5    5    0    0  0.69458420513E+02  0.36700091893E+02  0.19510117241E+03  0.21032317134E+03  0.00000000000E+00 0.  1.
          5    1    4    4  501    0 -0.21362254687E+02  0.21563106405E+02 -0.83953984415E+01  0.31768987994E+02  0.41800000000E+01 0.  1.
         -5    1    4    4    0  501 -0.13870764927E+03 -0.21925143253E+02 -0.40859190052E+03  0.43207098658E+03  0.41800000000E+01 0.  1.
</event>
<event>
11    1  0.8041700E-009  0.1398554E+03  0.7561462E-02  0.1107720E+00
         22   -1    0    0    0    0  0.00000000000E+00  0.00000000000E+00  0.89757774778E+03  0.89757774778E+03  0.00000000000E+00 0. -1.
         22   -1    0    0    0    0 -0.00000000000E+00 -0.00000000000E+00 -0.93119967054E+02  0.93119967054E+02  0.00000000000E+00 0.  1.
        -24    2    1    2    0    0  0.45069887123E+02 -0.49487428566E+02 -0.26336882682E+02  0.10828668022E+03  0.80944878856E+02 0.  0.
         25    2    1    2    0    0 -0.41144572696E+02 -0.21704571989E+02  0.18853272458E+03  0.23099005823E+03  0.12509138442E+03 0.  0.
         24    2    1    2    0    0 -0.39253144277E+01  0.71192000555E+02  0.64226193883E+03  0.65142097638E+03  0.82250722562E+02 0.  0.
        -13    1    5    5    0    0 -0.39236767127E+01 -0.32866371401E+01  0.34273420599E+03  0.34277242185E+03  0.00000000000E+00 0.  1.
         14    1    5    5    0    0 -0.16377149618E-02  0.74478637695E+02  0.29952773284E+03  0.30864855453E+03  0.00000000000E+00 0. -1.
         11    1    3    3    0    0  0.39985777362E+02 -0.59079631676E+02  0.84568580053E+01  0.71838594902E+02  0.00000000000E+00 0. -1.
        -12    1    3    3    0    0  0.50841097615E+01  0.95922031097E+01 -0.34793740688E+02  0.36448085322E+02  0.00000000000E+00 0.  1.
          5    1    4    4  501    0  0.70139518245E+01  0.24303522073E+02  0.15348635231E+03  0.15561294757E+03  0.41800000000E+01 0. -1.
         -5    1    4    4    0  501 -0.48158524520E+02 -0.46008094061E+02  0.35046372273E+02  0.75377110668E+02  0.41800000000E+01 0. -1.
</event>
<event>
11    1  0.8041700E-009  0.1281865E+03  0.7561462E-02  0.1121517E+00
         22   -1    0    0    0    0  0.00000000000E+00  0.00000000000E+00  0.37280147076E+03  0.37280147076E+03  0.00000000000E+00 0.  1.
         22   -1    0    0    0    0 -0.00000000000E+00 -0.00000000000E+00 -0.85615089184E+03  0.85615089184E+03  0.00000000000E+00 0.  1.
        -24    2    1    2    0    0 -0.12457900897E+02  0.25070685273E+02 -0.74828589991E+03  0.75289086148E+03  0.78288714014E+02 0.  0.
         25    2    1    2    0    0 -0.38447746917E+01 -0.33015171083E+02 -0.58755111456E+02  0.14214253998E+03  0.12509018641E+03 0.  0.
         24    2    1    2    0    0  0.16302675588E+02  0.79444858109E+01  0.32369159028E+03  0.33391896114E+03  0.79979590575E+02 0.  0.
        -13    1    5    5    0    0 -0.37733745642E+01  0.15601048086E+00  0.30607190655E+03  0.30609520524E+03  0.00000000000E+00 0.  1.
         14    1    5    5    0    0  0.20076050152E+02  0.77884753300E+01  0.17619683730E+02  0.27823755901E+02  0.00000000000E+00 0. -1.
         13    1    3    3    0    0 -0.11584924989E+02 -0.20577513501E+02 -0.90761198738E+02  0.93782939521E+02  0.00000000000E+00 0. -1.
        -14    1    3    3    0    0 -0.87297590713E+00  0.45648198773E+02 -0.65752470117E+03  0.65910792196E+03  0.00000000000E+00 0.  1.
          5    1    4    4  501    0  0.50449063428E+02 -0.49282184682E+02 -0.44684416750E+02  0.83594325335E+02  0.41800000000E+01 0. -1.
         -5    1    4    4    0  501 -0.54293838120E+02  0.16267013599E+02 -0.14070694705E+02  0.58548214650E+02  0.41800000000E+01 0. -1.
</event>
<event>
11    1  0.8041700E-009  0.1583691E+03  0.7561462E-02  0.1088621E+00
         22   -1    0    0    0    0  0.00000000000E+00  0.00000000000E+00  0.43964592579E+03  0.43964592579E+03  0.00000000000E+00 0.  1.
         22   -1    0    0    0    0 -0.00000000000E+00 -0.00000000000E+00 -0.13863748349E+04  0.13863748349E+04  0.00000000000E+00 0.  1.
        -24    2    1    2    0    0 -0.74598121340E+02 -0.66467001424E+02 -0.11946191354E+04  0.12014271984E+04  0.79559364010E+02 0.  0.
         25    2    1    2    0    0  0.42462697673E+02  0.62404044971E+02 -0.15476740933E+03  0.21283003300E+03  0.12508527663E+03 0.  0.
         24    2    1    2    0    0  0.32135423667E+02  0.40629564533E+01  0.40265763567E+03  0.41176352925E+03  0.79792477036E+02 0.  0.
        -13    1    5    5    0    0  0.50302236845E+02  0.90521439039E+01  0.15127357863E+03  0.15967451874E+03  0.00000000000E+00 0.  1.
         14    1    5    5    0    0 -0.18166813177E+02 -0.49891874505E+01  0.25138405703E+03  0.25208901052E+03  0.00000000000E+00 0. -1.
         13    1    3    3    0    0  0.12793924682E+02  0.19910770598E+01 -0.59499403741E+02  0.60891936594E+02  0.00000000000E+00 0. -1.
        -14    1    3    3    0    0 -0.87392046022E+02 -0.68458078484E+02 -0.11351197317E+04  0.11405352618E+04  0.00000000000E+00 0.  1.
          5    1    4    4  501    0  0.64035063314E+01 -0.28737250423E+02 -0.91213931378E+02  0.95938981299E+02  0.41800000000E+01 0.  1.
         -5    1    4    4    0  501  0.36059191342E+02  0.91141295394E+02 -0.63553477956E+02  0.11689105170E+03  0.41800000000E+01 0.  1.
</event>
<event>
11    1  0.8041700E-009  0.1447672E+03  0.7561462E-02  0.1102349E+00
         22   -1    0    0    0    0  0.00000000000E+00  0.00000000000E+00  0.31797382984E+03  0.31797382984E+03  0.00000000000E+00 0.  1.
         22   -1    0    0    0    0 -0.00000000000E+00 -0.00000000000E+00 -0.21728684099E+03  0.21728684099E+03  0.00000000000E+00 0. -1.
         24    2    1    2    0    0 -0.54955273130E+02  0.12723498875E+03 -0.53438723558E+02  0.16896955596E+03  0.80536881370E+02 0.  0.
         25    2    1    2    0    0 -0.56601885235E+02 -0.25143714734E+02  0.13310214888E+03  0.19287102823E+03  0.12508825561E+03 0.  0.
        -24    2    1    2    0    0  0.11155715837E+03 -0.10209127401E+03  0.21023563531E+02  0.17342008663E+03  0.82249063290E+02 0.  0.
        -11    1    3    3    0    0  0.14371040453E+02  0.25930864756E+02  0.93533601946E+01  0.31087326962E+02  0.00000000000E+00 0.  1.
         12    1    3    3    0    0 -0.69326313583E+02  0.10130412399E+03 -0.62792083753E+02  0.13788222900E+03  0.00000000000E+00 0. -1.
         13    1    5    5    0    0  0.11167402223E+00  0.99181840857E+01 -0.80329127359E+01  0.12763641082E+02  0.00000000000E+00 0. -1.
        -14    1    5    5    0    0  0.11144548434E+03 -0.11200945810E+03  0.29056476267E+02  0.16065644555E+03  0.00000000000E+00 0.  1.
          5    1    4    4  501    0 -0.18575212105E+02 -0.26341230212E+02  0.14820317064E+03  0.15172524872E+03  0.41800000000E+01 0. -1.
         -5    1    4    4    0  501 -0.38026673130E+02  0.11975154780E+01 -0.15101021760E+02  0.41145779502E+02  0.41800000000E+01 0. -1.
</event>
<event>
11    1  0.8041700E-009  0.2353312E+03  0.7561462E-02  0.1032017E+00
         22   -1    0    0    0    0  0.00000000000E+00  0.00000000000E+00  0.74693877975E+03  0.74693877975E+03  0.00000000000E+00 0. -1.
         22   -1    0    0    0    0 -0.00000000000E+00 -0.00000000000E+00 -0.14333380248E+04  0.14333380248E+04  0.00000000000E+00 0. -1.
        -24    2    1    2    0    0  0.18788946242E+03 -0.17525556565E+02 -0.11059584237E+04  0.11248110834E+04  0.80289122403E+02 0.  0.
         25    2    1    2    0    0 -0.28680492652E+03  0.69353122924E+02 -0.22814512250E+03  0.39340221253E+03  0.12509269511E+03 0.  0.
         24    2    1    2    0    0  0.98915464100E+02 -0.51827566359E+02  0.64770430116E+03  0.66206350861E+03  0.79604409598E+02 0.  0.
        -11    1    5    5    0    0  0.76176489922E+01  0.19708709030E+02  0.95426722779E+02  0.97738023349E+02  0.00000000000E+00 0.  1.
         12    1    5    5    0    0  0.91297815108E+02 -0.71536275389E+02  0.55227757838E+03  0.56432548526E+03  0.00000000000E+00 0. -1.
         13    1    3    3    0    0  0.17124556236E+03 -0.24011056667E+02 -0.10769482536E+04  0.10907424601E+04  0.00000000000E+00 0. -1.
        -14    1    3    3    0    0  0.16643900061E+02  0.64855001029E+01 -0.29010170147E+02  0.34068623288E+02  0.00000000000E+00 0.  1.
          5    1    4    4  501    0 -0.49214363423E+02  0.54347958224E+02 -0.96709913859E+02  0.12143324903E+03  0.41800000000E+01 0. -1.
         -5    1    4    4    0  501 -0.23759056310E+03  0.15005164699E+02 -0.13143520864E+03  0.27196896350E+03  0.41800000000E+01 0. -1.
</event>
<event>
11    1  0.8041700E-009  0.1333901E+03  0.7561462E-02  0.1115172E+00
         22   -1    0    0    0    0  0.00000000000E+00  0.00000000000E+00  0.23083918081E+04  0.23083918081E+04  0.00000000000E+00 0. -1.
         22   -1    0    0    0    0 -0.00000000000E+00 -0.00000000000E+00 -0.45065576249E+03  0.45065576249E+03  0.00000000000E+00 0. -1.
        -24    2    1    2    0    0  0.17131468187E+02  0.43309199299E+02 -0.42815793852E+03  0.43796319060E+03  0.79519570281E+02 0.  0.
         25    2    1    2    0    0 -0.13412646807E+02 -0.30674668329E+02  0.23239505408E+03  0.26603674369E+03  0.12508898218E+03 0.  0.
         24    2    1    2    0    0 -0.37188213798E+01 -0.12634530970E+02  0.20534989301E+04  0.20550476363E+04  0.78673189064E+02 0.  0.
        -11    1    5    5    0    0  0.24490977986E+01 -0.35893029967E+02  0.47324262901E+03  0.47460814742E+03  0.00000000000E+00 0.  1.
         12    1    5    5    0    0 -0.61679191785E+01  0.23258498997E+02  0.15802563011E+04  0.15804394889E+04  0.00000000000E+00 0. -1.
         11    1    3    3    0    0 -0.29329067567E+02  0.17054395270E+02 -0.23991553084E+03  0.24230251451E+03  0.00000000000E+00 0. -1.
        -12    1    3    3    0    0  0.46460535754E+02  0.26254804029E+02 -0.18824240769E+03  0.19566067609E+03  0.00000000000E+00 0.  1.
          5    1    4    4  501    0 -0.67023993989E+02 -0.33577648059E+02  0.14733703794E+03  0.16536429291E+03  0.41800000000E+01 0.  1.
         -5    1    4    4    0  501  0.53611347182E+02  0.29029797298E+01  0.85058016138E+02  0.10067245079E+03  0.41800000000E+01 0.  1.
</event>
<event>
11    1  0.8041700E-009  0.1688097E+03  0.7561462E-02  0.1079072E+00
         22   -1    0    0    0    0  0.00000000000E+00  0.00000000000E+00  0.10071725618E+03  0.10071725618E+03  0.00000000000E+00 0.  1.
         22   -1    0    0    0    0 -0.00000000000E+00 -0.00000000000E+00 -0.83490760138E+03  0.83490760138E+03  0.00000000000E+00 0.  1.
         24    2    1    2    0    0  0.98314593488E+02 -0.52033244975E+02 -0.33517954329E+03  0.36147778035E+03  0.77120954156E+02 0.  0.
         25    2    1    2    0    0 -0.12318237597E+03  0.28007023036E+01 -0.43594418246E+03  0.46997484677E+03  0.12508910701E+03 0.  0.
        -24    2    1    2    0    0  0.24867782477E+02  0.49232542671E+02  0.36933380551E+02  0.10417223044E+03  0.80284052794E+02 0.  0.
        -13    1    3    3    0    0  0.93116124868E+02 -0.46971906674E+02 -0.33797644901E+03  0.35370192650E+03  0.00000000000E+00 0.  1.
         14    1    3    3    0    0  0.51984686207E+01 -0.50613383007E+01  0.27969057204E+01  0.77758538441E+01  0.00000000000E+00 0. -1.
         11    1    5    5    0    0 -0.19513626354E+02 -0.89215848677E+01 -0.15509284832E+01  0.21512360846E+02  0.00000000000E+00 0. -1.
        -12    1    5    5    0    0  0.44381408831E+02  0.58154127539E+02  0.38484309034E+02  0.82659869595E+02  0.00000000000E+00 0.  1.
          5    1    4    4  501    0 -0.70490357284E+02  0.62975741480E+02 -0.25922111625E+03  0.27594907862E+03  0.41800000000E+01 0.  1.
         -5    1    4    4    0  501 -0.52692018682E+02 -0.60175039176E+02 -0.17672306621E+03  0.19402576815E+03  0.41800000000E+01 0.  1.
</event>
<event>
11    1  0.8041700E-009  0.1651431E+03  0.7561462E-02  0.1082337E+00
         22   -1    0    0    0    0  0.00000000000E+00  0.00000000000E+00  0.72590311885E+03  0.72590311885E+03  0.00000000000E+00 0. -1.
         22   -1    0    0    0    0 -0.00000000000E+00 -0.00000000000E+00 -0.76603328285E+03  0.76603328285E+03  0.00000000000E+00 0. -1.
        -24    2    1    2    0    0 -0.85362501036E+02 -0.60278947394E+02 -0.53717080833E+03  0.55269697144E+03  0.77467133912E+02 0.  0.
         25    2    1    2    0    0  0.17401169430E+03  0.99783293675E+00 -0.16086740638E+03  0.26796892496E+03  0.12509179384E+03 0.  0.
         24    2    1    2    0    0 -0.88649193260E+02  0.59281114457E+02  0.65790805070E+03  0.67127050531E+03  0.79925954045E+02 0.  0.
        -11    1    5    5    0    0 -0.44571104626E+02 -0.21074648513E+01  0.11902675517E+03  0.12711566867E+03  0.00000000000E+00 0.  1.
         12    1    5    5    0    0 -0.44078088634E+02  0.61388579308E+02  0.53888129553E+03  0.54415483664E+03  0.00000000000E+00 0. -1.
         13    1    3    3    0    0 -0.77257137257E+02 -0.89712110052E+01 -0.34197234696E+03  0.35070533781E+03  0.00000000000E+00 0. -1.
        -14    1    3    3    0    0 -0.81053637790E+01 -0.51307736389E+02 -0.19519846136E+03  0.20199163362E+03  0.00000000000E+00 0.  1.
          5    1    4    4  501    0  0.10977626155E+03 -0.59845114478E+02 -0.83931748918E+02  0.15064619545E+03  0.41800000000E+01 0. -1.
         -5    1    4    4    0  501  0.64235432748E+02  0.60842947415E+02 -0.76935657459E+02  0.11732272951E+03  0.41800000000E+01 0. -1.
</event>
<event>
11    1  0.8041700E-009  0.1329597E+03  0.7561462E-02  0.1115685E+00
         22   -1    0    0    0    0  0.00000000000E+00  0.00000000000E+00  0.64574456163E+03  0.64574456163E+03  0.00000000000E+00 0. -1.
         22   -1    0    0    0    0 -0.00000000000E+00 -0.00000000000E+00 -0.33178082907E+03  0.33178082907E+03  0.00000000000E+00 0.  1.
        -24    2    1    2    0    0 -0.35885969003E+02  0.10041544112E+02 -0.18194731365E+03  0.20361825133E+03  0.83468149315E+02 0.  0.
         25    2    1    2    0    0  0.61829986661E+02 -0.45695661061E+02 -0.95883988666E+02  0.17536492409E+03  0.12509227245E+03 0.  0.
         24    2    1    2    0    0 -0.25944017658E+02  0.35654116949E+02  0.59179503488E+03  0.59854221529E+03  0.78019946628E+02 0.  0.
        -11    1    5    5    0    0 -0.36999669767E+02 -0.66129977794E+01  0.15182115517E+03  0.15640450908E+03  0.00000000000E+00 0.  1.
         12    1    5    5    0    0  0.11055652109E+02  0.42267114728E+02  0.43997387971E+03  0.44213770621E+03  0.00000000000E+00 0. -1.
         11    1    3    3    0    0  0.11564189334E+02 -0.27932488161E+02 -0.69705976273E+02  0.75979454447E+02  0.00000000000E+00 0. -1.
        -12    1    3    3    0    0 -0.47450158337E+02  0.37974032273E+02 -0.11224133737E+03  0.12763879688E+03  0.00000000000E+00 0.  1.
          5    1    4    4  501    0  0.36408287018E+02  0.37747252016E+02 -0.62929346424E+02  0.82024346627E+02  0.41800000000E+01 0.  1.
         -5    1    4    4    0  501  0.25421699642E+02 -0.83442913077E+02 -0.32954642243E+02  0.93340577461E+02  0.41800000000E+01 0.  1.
</event>
<event>
11    1  0.8041700E-009  0.1453145E+03  0.7561462E-02  0.1101765E+00
         22   -1    0    0    0    0  0.00000000000E+00  0.00000000000E+00  0.16052744180E+03  0.16052744180E+03  0.00000000000E+00 0.  1.
         22   -1    0    0    0    0 -0.00000000000E+00 -0.00000000000E+00 -0.49460985621E+03  0.49460985621E+03  0.00000000000E+00 0.  1.
         24    2    1    2    0    0 -0.55169589130E+02 -0.84195490261E+02 -0.25642777595E+03  0.28697475877E+03  0.80416066479E+02 0.  0.
         25    2    1    2    0    0  0.13672472309E+02  0.34983628785E+02 -0.18035023168E+03  0.22267807602E+03  0.12509407936E+03 0.  0.
        -24    2    1    2    0    0  0.41497116820E+02  0.49211861476E+02  0.10269559322E+03  0.14548446322E+03  0.80470654011E+02 0.  0.
        -13    1    3    3    0    0 -0.27651488177E+02 -0.89179126090E+02 -0.14793054290E+03  0.17493132038E+03  0.00000000000E+00 0.  1.
         14    1    3    3    0    0 -0.27518100953E+02  0.49836358290E+01 -0.10849723305E+03  0.11204343838E+03  0.00000000000E+00 0. -1.
         11    1    5    5    0    0  0.25112615620E+02 -0.15181445578E+02  0.91419435526E+01  0.30735889202E+02  0.00000000000E+00 0. -1.
        -12    1    5    5    0    0  0.16384501201E+02  0.64393307053E+02  0.93553649669E+02  0.11474857402E+03  0.00000000000E+00 0.  1.
          5    1    4    4  501    0 -0.10341486889E+02 -0.16622316153E+02  0.11108599355E+02  0.22893691816E+02  0.41800000000E+01 0. -1.
         -5    1    4    4    0  501  0.24013959198E+02  0.51605944938E+02 -0.19145883104E+03  0.19978438420E+03  0.41800000000E+01 0. -1.
</event>
<event>
11    1  0.8041700E-009  0.3303903E+03  0.7561462E-02  0.9880911E-01
         22   -1    0    0    0    0  0.00000000000E+00  0.00000000000E+00  0.82388289544E+03  0.82388289544E+03  0.00000000000E+00 0.  1.
         22   -1    0    0    0    0 -0.00000000000E+00 -0.00000000000E+00 -0.20083108567E+03  0.20083108567E+03  0.00000000000E+00 0. -1.
        -24    2    1    2    0    0 -0.14055157642E+02  0.26809310803E+02 -0.23620948685E+02  0.10959306272E+03  0.10264698523E+03 0.  0.
         25    2    1    2    0    0  0.52631446976E+02  0.28837302161E+03  0.29055054522E+03  0.43127229628E+03  0.12508839037E+03 0.  0.
         24    2    1    2    0    0 -0.38576289334E+02 -0.31518233241E+03  0.35612221323E+03  0.48384862212E+03  0.80364330428E+02 0.  0.
        -11    1    5    5    0    0 -0.28058785152E+02 -0.24680998667E+03  0.22294511355E+03  0.33377685450E+03  0.00000000000E+00 0.  1.
         12    1    5    5    0    0 -0.10517504182E+02 -0.68372345746E+02  0.13317709968E+03  0.15007176762E+03  0.00000000000E+00 0. -1.
         11    1    3    3    0    0  0.11038268729E+02  0.61297750888E+02 -0.24509282732E+02  0.66932522591E+02  0.00000000000E+00 0. -1.
        -12    1    3    3    0    0 -0.25093426371E+02 -0.34488440084E+02  0.88833404716E+00  0.42660540127E+02  0.00000000000E+00 0.  1.
          5    1    4    4  501    0  0.61690189933E+02  0.51352434706E+02  0.89636890784E+02  0.12039516881E+03  0.41800000000E+01 0. -1.
         -5    1    4    4    0  501 -0.90587429573E+01  0.23702058691E+03  0.20091365443E+03  0.31087712746E+03  0.41800000000E+01 0. -1.
</event>
<event>
11    1  0.8041700E-009  0.1357491E+03  0.7561462E-02  0.1112400E+00
         22   -1    0    0    0    0  0.00000000000E+00  0.00000000000E+00  0.18215083457E+04  0.18215083457E+04  0.00000000000E+00 0. -1.
         22   -1    0    0    0    0 -0.00000000000E+00 -0.00000000000E+00 -0.13484225028E+03  0.13484225028E+03  0.00000000000E+00 0. -1.
        -24    2    1    2    0    0 -0.49090339402E+02  0.22900755869E+02 -0.10687987369E+03  0.14643229347E+03  0.84171272585E+02 0.  0.
         25    2    1    2    0    0  0.13986427236E+02  0.19590142786E+02  0.65720523621E+03  0.66943648889E+03  0.12508835399E+03 0.  0.
         24    2    1    2    0    0  0.35103912166E+02 -0.42490898655E+02  0.11363407329E+04  0.11404818137E+04  0.79942134573E+02 0.  0.
        -11    1    5    5    0    0 -0.15987178514E+02  0.13254589672E+02  0.19252492593E+03  0.19364173395E+03  0.00000000000E+00 0.  1.
         12    1    5    5    0    0  0.51091090680E+02 -0.55745488328E+02  0.94381580699E+03  0.94684007971E+03  0.00000000000E+00 0. -1.
         11    1    3    3    0    0 -0.52472693050E+02  0.29286001335E+00 -0.11139116594E+03  0.12313188512E+03  0.00000000000E+00 0. -1.
        -12    1    3    3    0    0  0.33823536478E+01  0.22607895856E+02  0.45112922579E+01  0.23300408346E+02  0.00000000000E+00 0.  1.
          5    1    4    4  501    0 -0.48702006704E+01  0.71271286581E+02  0.33713804121E+03  0.34464887404E+03  0.41800000000E+01 0. -1.
         -5    1    4    4    0  501  0.18856627906E+02 -0.51681143795E+02  0.32006719501E+03  0.32478761485E+03  0.41800000000E+01 0. -1.
</event>
<event>
11    1  0.8041700E-009  0.1341127E+03  0.7561462E-02  0.1114317E+00
         22   -1    0    0    0    0  0.00000000000E+00  0.00000000000E+00  0.53665205966E+03  0.53665205966E+03  0.00000000000E+00 0. -1.
         22   -1    0    0    0    0 -0.00000000000E+00 -0.00000000000E+00 -0.10072866788E+03  0.10072866788E+03  0.00000000000E+00 0. -1.
        -24    2    1    2    0    0 -0.43854654579E+02 -0.46061573776E+02  0.18002888071E+02  0.10482271745E+03  0.81356000444E+02 0.  0.
         25    2    1    2    0    0  0.25597741123E+02  0.14881406772E+02  0.26812331836E+02  0.13131344912E+03  0.12509044793E+03 0.  0.
         24    2    1    2    0    0  0.18256913456E+02  0.31180167004E+02  0.39110817188E+03  0.40124456096E+03  0.82012669065E+02 0.  0.
        -13    1    5    5    0    0  0.29579120511E+02 -0.11385549501E+02  0.66557888629E+02  0.73719113169E+02  0.00000000000E+00 0.  1.
         14    1    5    5    0    0 -0.11322207055E+02  0.42565716505E+02  0.32455028325E+03  0.32752544779E+03  0.00000000000E+00 0. -1.
         13    1    3    3    0    0  0.31657141937E+01 -0.54798327378E+02  0.15005060344E+02  0.56903692900E+02  0.00000000000E+00 0. -1.
        -14    1    3    3    0    0 -0.47020368773E+02  0.87367536011E+01  0.29978277271E+01  0.47919024553E+02  0.00000000000E+00 0.  1.
          5    1    4    4  501    0 -0.38349577435E+02 -0.29866266338E+01  0.47851867887E+02  0.61537660731E+02  0.41800000000E+01 0. -1.
         -5    1    4    4    0  501  0.63947318558E+02  0.17868033406E+02 -0.21039536051E+02  0.69775788392E+02  0.41800000000E+01 0. -1.
</event>
<event>
11    1  0.8041700E-009  0.3706358E+03  0.7561462E-02  0.9740606E-01
         22   -1    0    0    0    0  0.00000000000E+00  0.00000000000E+00  0.16219525161E+04  0.16219525161E+04  0.00000000000E+00 0.  1.
         22   -1    0    0    0    0 -0.00000000000E+00 -0.00000000000E+00 -0.73567927576E+02  0.73567927576E+02  0.00000000000E+00 0. -1.
         24    2    1    2    0    0 -0.18444501297E+03 -0.75394631252E+02  0.22001670059E+03  0.31641488058E+03  0.10957515634E+03 0.  0.
         25    2    1    2    0    0  0.25851563349E+02 -0.65045460517E+02  0.48496184874E+03  0.50570236433E+03  0.12509065227E+03 0.  0.
        -24    2    1    2    0    0  0.15859344962E+03  0.14044009177E+03  0.84340603915E+03  0.87340319872E+03  0.81388568185E+02 0.  0.
        -13    1    3    3    0    0 -0.16259802269E+02 -0.22512069519E+02  0.98375891100E+02  0.10222030324E+03  0.00000000000E+00 0.  1.
         14    1    3    3    0    0 -0.16818521070E+03 -0.52882561733E+02  0.12164080949E+03  0.21419457735E+03  0.00000000000E+00 0. -1.
         11    1    5    5    0    0  0.11678329497E+03  0.11219445030E+03  0.48167348458E+03  0.50816855315E+03  0.00000000000E+00 0. -1.
        -12    1    5    5    0    0  0.41810154651E+02  0.28245641466E+02  0.36173255456E+03  0.36523464557E+03  0.00000000000E+00 0.  1.
          5    1    4    4  501    0 -0.12539361344E+02 -0.88198799187E+02  0.22793433494E+03  0.24476069375E+03  0.41800000000E+01 0. -1.
         -5    1    4    4    0  501  0.38390924692E+02  0.23153338670E+02  0.25702751381E+03  0.26094167058E+03  0.41800000000E+01 0. -1.
</event>
<event>
11    1  0.8041700E-009  0.1254569E+03  0.7561462E-02  0.1124980E+00
         22   -1    0    0    0    0  0.00000000000E+00  0.00000000000E+00  0.11345792313E+03  0.11345792313E+03  0.00000000000E+00 0.  1.
         22   -1    0    0    0    0 -0.00000000000E+00 -0.00000000000E+00 -0.84662653093E+03  0.84662653093E+03  0.00000000000E+00 0.  1.
        -24    2    1    2    0    0 -0.74375281004E+01 -0.59135086964E+01 -0.70617257576E+03  0.71188421318E+03  0.89493797565E+02 0.  0.
         25    2    1    2    0    0  0.18488587715E+02 -0.78554029170E+01 -0.80017830698E+02  0.14984541011E+03  0.12508900220E+03 0.  0.
         24    2    1    2    0    0 -0.11051059614E+02  0.13768911613E+02  0.53021798662E+02  0.98354830767E+02  0.80936102922E+02 0.  0.
        -13    1    5    5    0    0 -0.17348449297E+02  0.46091589673E+02  0.37768043992E+02  0.62063100781E+02  0.00000000000E+00 0.  1.
         14    1    5    5    0    0  0.62973896830E+01 -0.32322678060E+02  0.15253754670E+02  0.36291729985E+02  0.00000000000E+00 0. -1.
         11    1    3    3    0    0  0.14788693907E+02 -0.13100881982E+02 -0.34131348108E+02  0.39437133514E+02  0.00000000000E+00 0. -1.
        -12    1    3    3    0    0 -0.22226222007E+02  0.71873732855E+01 -0.67204122765E+03  0.67244707966E+03  0.00000000000E+00 0.  1.
          5    1    4    4  501    0  0.27812804458E+02  0.30687724962E+02 -0.97721062616E+02  0.10621754579E+03  0.41800000000E+01 0. -1.
         -5    1    4    4    0  501 -0.93242167431E+01 -0.38543127879E+02  0.17703231918E+02  0.43627864318E+02  0.41800000000E+01 0. -1.
</event>
<event>
11    1  0.8041700E-009  0.1929661E+03  0.7561462E-02  0.1059612E+00
         22   -1    0    0    0    0  0.00000000000E+00  0.00000000000E+00  0.14181568498E+03  0.14181568498E+03  0.00000000000E+00 0.  1.
         22   -1    0    0    0    0 -0.00000000000E+00 -0.00000000000E+00 -0.26772846131E+04  0.26772846131E+04  0.00000000000E+00 0.  1.
        -24    2    1    2    0    0 -0.58417854262E+02  0.24270723455E+02 -0.24370204057E+04  0.24391443269E+04  0.79717476672E+02 0.  0.
         25    2    1    2    0    0 -0.30700708857E+02  0.11863503169E+03 -0.78749132571E+02  0.19200614203E+03  0.12509247949E+03 0.  0.
         24    2    1    2    0    0  0.89118563119E+02 -0.14290575515E+03 -0.19699389880E+02  0.18794982915E+03  0.81073418393E+02 0.  0.
        -11    1    5    5    0    0  0.22122998904E+02 -0.99297856109E+02  0.10987875653E+02  0.10232411602E+03  0.00000000000E+00 0.  1.
         12    1    5    5    0    0  0.66995564215E+02 -0.43607899037E+02 -0.30687265533E+02  0.85625713129E+02  0.00000000000E+00 0. -1.
         11    1    3    3    0    0  0.19230593261E+02  0.72692964116E+01 -0.70692394739E+03  0.70722282612E+03  0.00000000000E+00 0. -1.
        -12    1    3    3    0    0 -0.77648447523E+02  0.17001427043E+02 -0.17300964583E+04  0.17319215008E+04  0.00000000000E+00 0.  1.
          5    1    4    4  501    0  0.31683476727E+01 -0.21825561113E+02 -0.33906397192E+02  0.40663370684E+02  0.41800000000E+01 0. -1.
         -5    1    4    4    0  501 -0.33869056530E+02  0.14046059280E+03 -0.44842735379E+02  0.15134277134E+03  0.41800000000E+01 0. -1.
</event>
<event>
11    1  0.8041700E-009  0.1345538E+03  0.7561462E-02  0.1113797E+00
         22   -1    0    0    0    0  0.00000000000E+00  0.00000000000E+00  0.62964240696E+03  0.62964240696E+03  0.00000000000E+00 0. -1.
         22   -1    0    0    0    0 -0.00000000000E+00 -0.00000000000E+00 -0.35836338714E+03  0.35836338714E+03  0.00000000000E+00 0.  1.
         24    2    1    2    0    0 -0.10161050350E+02  0.40257901920E+02 -0.22923324396E+03  0.24520816430E+03  0.76519396842E+02 0.  0.
         25    2    1    2    0    0  0.61533173595E+01  0.10442721027E+02 -0.83677920364E+02  0.15098447833E+03  0.12508958631E+03 0.  0.
        -24    2    1    2    0    0  0.40077329902E+01 -0.50700622947E+02  0.58419018414E+03  0.59181315147E+03  0.79862506385E+02 0.  0.
        -11    1    3    3    0    0 -0.87506809340E+01  0.51094797025E+02 -0.22844355533E+03  0.23425138350E+03  0.00000000000E+00 0.  1.
         12    1    3    3    0    0 -0.14103694158E+01 -0.10836895105E+02 -0.78968862926E+00  0.10956780802E+02  0.00000000000E+00 0. -1.
         11    1    5    5    0    0  0.57129996777E+01  0.43022468549E+01  0.38760969093E+03  0.38767566366E+03  0.00000000000E+00 0. -1.
        -12    1    5    5    0    0 -0.17052666875E+01 -0.55002869802E+02  0.19658049321E+03  0.20413748781E+03  0.00000000000E+00 0.  1.
          5    1    4    4  501    0  0.54074481266E+02 -0.28994399110E+02 -0.28284373282E+02  0.67691970542E+02  0.41800000000E+01 0.  1.
         -5    1    4    4    0  501 -0.47921163906E+02  0.39437120138E+02 -0.55393547082E+02  0.83292507786E+02  0.41800000000E+01 0.  1.
</event>
<event>
11    1  0.8041700E-009  0.1467175E+03  0.7561462E-02  0.1100281E+00
         22   -1    0    0    0    0  0.00000000000E+00  0.00000000000E+00  0.26234992477E+03  0.26234992477E+03  0.00000000000E+00 0.  1.
         22   -1    0    0    0    0 -0.00000000000E+00 -0.00000000000E+00 -0.27449069100E+03  0.27449069100E+03  0.00000000000E+00 0. -1.
        -24    2    1    2    0    0  0.89725841707E+01  0.22092399141E+02 -0.16248914264E+03  0.18323865157E+03  0.81271769918E+02 0.  0.
         25    2    1    2    0    0  0.32556492043E+02 -0.83840536969E+02 -0.15078546013E+02  0.15480355428E+03  0.12509043550E+03 0.  0.
         24    2    1    2    0    0 -0.41529076214E+02  0.61748137828E+02  0.16542692243E+03  0.19879840993E+03  0.81346446946E+02 0.  0.
        -13    1    5    5    0    0  0.64327090873E+01  0.51571714582E+02  0.12457087560E+03  0.13497749642E+03  0.00000000000E+00 0.  1.
         14    1    5    5    0    0 -0.47961785301E+02  0.10176423245E+02  0.40856046826E+02  0.63820913512E+02  0.00000000000E+00 0. -1.
         13    1    3    3    0    0 -0.19041674900E+02  0.98469818250E+00 -0.14061289968E+03  0.14189976241E+03  0.00000000000E+00 0. -1.
        -14    1    3    3    0    0  0.28014259071E+02  0.21107700959E+02 -0.21876242955E+02  0.41338889159E+02  0.00000000000E+00 0.  1.
          5    1    4    4  501    0  0.61945793638E+02 -0.93287691279E+02  0.13068381606E+02  0.11281901299E+03  0.41800000000E+01 0. -1.
         -5    1    4    4    0  501 -0.29389301596E+02  0.94471543098E+01 -0.28146927619E+02  0.41984541289E+02  0.41800000000E+01 0. -1.
</event>
<event>
11    1  0.8041700E-009  0.1907096E+03  0.7561462E-02  0.1061295E+00
         22   -1    0    0    0    0  0.00000000000E+00  0.00000000000E+00  0.18605469223E+04  0.18605469223E+04  0.00000000000E+00 0.  1.
         22   -1    0    0    0    0 -0.00000000000E+00 -0.00000000000E+00 -0.91222442820E+02  0.91222442820E+02  0.00000000000E+00 0. -1.
        -24    2    1    2    0    0  0.74647399262E+02  0.11684734303E+03  0.17234603757E+02  0.16133125828E+03  0.80654866821E+02 0.  0.
         25    2    1    2    0    0 -0.15561951030E+03 -0.14711119866E+03  0.10732850852E+04  0.11015660510E+04  0.12509098153E+03 0.  0.
         24    2    1    2    0    0  0.80972111042E+02  0.30263855633E+02  0.67880479050E+03  0.68887205590E+03  0.79349745259E+02 0.  0.
        -13    1    5    5    0    0  0.88616749227E+02  0.17738484580E+02  0.65268836176E+03  0.65891553302E+03  0.00000000000E+00 0.  1.
         14    1    5    5    0    0 -0.76446381849E+01  0.12525371053E+02  0.26116428736E+02  0.29956522878E+02  0.00000000000E+00 0. -1.
         13    1    3    3    0    0  0.59835368106E+02  0.12681242101E+03  0.62269552789E+01  0.14035824297E+03  0.00000000000E+00 0. -1.
        -14    1    3    3    0    0  0.14812031155E+02 -0.99650779785E+01  0.11007648478E+02  0.20973015307E+02  0.00000000000E+00 0.  1.
          5    1    4    4  501    0 -0.13863827127E+03 -0.10694186414E+03  0.56810042724E+03  0.59448523985E+03  0.41800000000E+01 0.  1.
         -5    1    4    4    0  501 -0.16981239036E+02 -0.40169334517E+02  0.50518465800E+03  0.50708081111E+03  0.41800000000E+01 0.  1.
</event>
<event>
11    1  0.8041700E-009  0.2255128E+03  0.7561462E-02  0.1037818E+00
         22   -1    0    0    0    0  0.00000000000E+00  0.00000000000E+00  0.14591618325E+03  0.14591618325E+03  0.00000000000E+00 0.  1.
         22   -1    0    0    0    0 -0.00000000000E+00 -0.00000000000E+00 -0.20331070015E+04  0.20331070015E+04  0.00000000000E+00 0. -1.
        -24    2    1    2    0    0 -0.16090316965E+02  0.64339169328E+02 -0.13444493621E+04  0.13484237857E+04  0.79398939504E+02 0.  0.
         25    2    1    2    0    0 -0.17294582535E+03 -0.71497061700E+02 -0.57959318942E+03  0.62177002186E+03  0.12509039344E+03 0.  0.
         24    2    1    2    0    0  0.18903614232E+03  0.71578923727E+01  0.36851733229E+02  0.20882937722E+03  0.80409949770E+02 0.  0.
        -13    1    5    5    0    0  0.16883329842E+03  0.18174245528E+02  0.56093228247E+02  0.17883354303E+03  0.00000000000E+00 0.  1.
         14    1    5    5    0    0  0.20202843897E+02 -0.11016353155E+02 -0.19241495018E+02  0.29995834192E+02  0.00000000000E+00 0. -1.
         11    1    3    3    0    0  0.58588511007E+01  0.36726046922E+02 -0.11620484443E+04  0.11626434172E+04  0.00000000000E+00 0. -1.
        -12    1    3    3    0    0 -0.21949168066E+02  0.27613122405E+02 -0.18240091783E+03  0.18578036853E+03  0.00000000000E+00 0.  1.
          5    1    4    4  501    0 -0.49282168140E+02  0.35413490412E+02 -0.18051747572E+03  0.19049115161E+03  0.41800000000E+01 0.  1.
         -5    1    4    4    0  501 -0.12366365721E+03 -0.10691055211E+03 -0.39907571369E+03  0.43127887025E+03  0.41800000000E+01 0.  1.
</event>
<event>
11    1  0.8041700E-009  0.1603012E+03  0.7561462E-02  0.1086794E+00
         22   -1    0    0    0    0  0.00000000000E+00  0.00000000000E+00  0.15893167476E+04  0.15893167476E+04  0.00000000000E+00 0.  1.
         22   -1    0    0    0    0 -0.00000000000E+00 -0.00000000000E+00 -0.31335587143E+02  0.31335587143E+02  0.00000000000E+00 0.  1.
        -24    2    1    2    0    0  0.10899096226E+03 -0.15680814990E+02  0.23375347766E+03  0.27069895139E+03  0.80698922892E+02 0.  0.
         25    2    1    2    0    0 -0.78411831918E+02  0.15213826121E+02  0.51276050338E+03  0.53380570627E+03  0.12508126289E+03 0.  0.
         24    2    1    2    0    0 -0.30579130342E+02  0.46698886884E+00  0.81146717942E+03  0.81614767709E+03  0.81748065687E+02 0.  0.
        -11    1    5    5    0    0 -0.24020936676E+02 -0.37321206017E+02  0.56196248322E+03  0.56371243588E+03  0.00000000000E+00 0.  1.
         12    1    5    5    0    0 -0.65581936660E+01  0.37788194886E+02  0.24950469620E+03  0.25243524121E+03  0.00000000000E+00 0. -1.
         11    1    3    3    0    0  0.98389881984E+02  0.13796353784E+02  0.20658116265E+03  0.22923063716E+03  0.00000000000E+00 0. -1.
        -12    1    3    3    0    0  0.10601080275E+02 -0.29477168774E+02  0.27172315009E+02  0.41468314228E+02  0.00000000000E+00 0.  1.
          5    1    4    4  501    0 -0.84796638416E+02  0.23141304571E+02  0.51509461337E+03  0.52255710022E+03  0.41800000000E+01 0.  1.
         -5    1    4    4    0  501  0.63848064985E+01 -0.79274784502E+01 -0.23341099899E+01  0.11248606049E+02  0.41800000000E+01 0.  1.
</event>
<event>
11    1  0.8041700E-009  0.1594227E+03  0.7561462E-02  0.1087622E+00
         22   -1    0    0    0    0  0.00000000000E+00  0.00000000000E+00  0.21062168399E+04  0.21062168399E+04  0.00000000000E+00 0. -1.
         22   -1    0    0    0    0 -0.00000000000E+00 -0.00000000000E+00 -0.61284891043E+02  0.61284891043E+02  0.00000000000E+00 0. -1.
         24    2    1    2    0    0  0.48767161927E+02  0.14644710258E+01  0.17669603518E+02  0.95563109126E+02  0.80247817289E+02 0.  0.
         25    2    1    2    0    0 -0.30965016601E+02 -0.99361834862E+02  0.31376300560E+03  0.35344850918E+03  0.12508804289E+03 0.  0.
        -24    2    1    2    0    0 -0.17802145326E+02  0.97897363836E+02  0.17134993397E+04  0.17184901126E+04  0.85014526639E+02 0.  0.
        -11    1    3    3    0    0  0.22634237390E+02 -0.34535091518E+02  0.28006197176E+02  0.49893169159E+02  0.00000000000E+00 0.  1.
         12    1    3    3    0    0  0.26132924537E+02  0.35999562544E+02 -0.10336593658E+02  0.45669939968E+02  0.00000000000E+00 0. -1.
         11    1    5    5    0    0 -0.17733090339E+02  0.29819532793E+02  0.11995453326E+04  0.12000469458E+04  0.00000000000E+00 0. -1.
        -12    1    5    5    0    0 -0.69054986705E-01  0.68077831043E+02  0.51395400707E+03  0.51844316683E+03  0.00000000000E+00 0.  1.
          5    1    4    4  501    0 -0.67146807582E+02 -0.10284247589E+03  0.26818361517E+03  0.29500032620E+03  0.41800000000E+01 0.  1.
         -5    1    4    4    0  501  0.36181790981E+02  0.34806410279E+01  0.45579390437E+02  0.58448182976E+02  0.41800000000E+01 0.  1.
</event>
<event>
11    1  0.8041700E-009  0.1522787E+03  0.7561462E-02  0.1094573E+00
         22   -1    0    0    0    0  0.00000000000E+00  0.00000000000E+00  0.46939661903E+03  0.46939661903E+03  0.00000000000E+00 0. -1.
         22   -1    0    0    0    0 -0.00000000000E+00 -0.00000000000E+00 -0.79468130426E+03  0.79468130426E+03  0.00000000000E+00 0. -1.
        -24    2    1    2    0    0  0.58881049764E+02 -0.72111216760E+02 -0.68233411575E+03  0.69329119780E+03  0.80036453155E+02 0.  0.
         25    2    1    2    0    0  0.28661013876E+02  0.58422895220E+02 -0.47428762492E+02  0.14876092503E+03  0.12508252037E+03 0.  0.
         24    2    1    2    0    0 -0.87542063639E+02  0.13688321539E+02  0.40447819300E+03  0.42202580046E+03  0.81560925618E+02 0.  0.
        -13    1    5    5    0    0 -0.60277053560E+01  0.21495443947E+02  0.23767226681E+02  0.32607796712E+02  0.00000000000E+00 0.  1.
         14    1    5    5    0    0 -0.81514358283E+02 -0.78071224072E+01  0.38071096632E+03  0.38941800375E+03  0.00000000000E+00 0. -1.
         13    1    3    3    0    0  0.65046026675E+01 -0.11885151148E+02 -0.39062564921E+03  0.39086054354E+03  0.00000000000E+00 0. -1.
        -14    1    3    3    0    0  0.52376447097E+02 -0.60226065611E+02 -0.29170846654E+03  0.30243065426E+03  0.00000000000E+00 0.  1.
          5    1    4    4  501    0 -0.49314166443E+02  0.30045194047E+02 -0.18347240019E+02  0.60734622034E+02  0.41800000000E+01 0.  1.
         -5    1    4    4    0  501  0.77975180318E+02  0.28377701173E+02 -0.29081522473E+02  0.88026302994E+02  0.41800000000E+01 0.  1.
</event>
<event>
11    1  0.8041700E-009  0.1534176E+03  0.7561462E-02  0.1093437E+00
         22   -1    0    0    0    0  0.00000000000E+00  0.00000000000E+00  0.68892190257E+03  0.68892190257E+03  0.00000000000E+00 0.  1.
         22   -1    0    0    0    0 -0.00000000000E+00 -0.00000000000E+00 -0.14080500228E+04  0.14080500228E+04  0.00000000000E+00 0. -1.
         24    2    1    2    0    0  0.76202694207E+02  0.46136806614E+02 -0.13536123259E+04  0.13589364513E+04  0.80662844698E+02 0.  0.
         25    2    1    2    0    0 -0.65560045870E+02 -0.42527670529E+02  0.60434019283E+02  0.15939469566E+03  0.12509067089E+03 0.  0.
        -24    2    1    2    0    0 -0.10642648337E+02 -0.36091360845E+01  0.57405018639E+03  0.57864077833E+03  0.71869618278E+02 0.  0.
        -11    1    3    3    0    0  0.60741018684E+01 -0.17582842208E+02 -0.97727199561E+02  0.99481941012E+02  0.00000000000E+00 0.  1.
         12    1    3    3    0    0  0.70128592339E+02  0.63719648822E+02 -0.12558851263E+04  0.12594545103E+04  0.00000000000E+00 0. -1.
         11    1    5    5    0    0 -0.28291760190E+02  0.35829026631E+01  0.94432860550E+02  0.98644949378E+02  0.00000000000E+00 0. -1.
        -12    1    5    5    0    0  0.17649111853E+02 -0.71920387476E+01  0.47961732584E+03  0.47999582895E+03  0.00000000000E+00 0.  1.
          5    1    4    4  501    0 -0.61839764013E+02 -0.83883411325E+02  0.32766889965E+02  0.10932394334E+03  0.41800000000E+01 0. -1.
         -5    1    4    4    0  501 -0.37202818572E+01  0.41355740796E+02  0.27667129317E+02  0.50070752326E+02  0.41800000000E+01 0. -1.
</event>
<event>
11    1  0.8041700E-009  0.1563908E+03  0.7561462E-02  0.1090522E+00
         22   -1    0    0    0    0  0.00000000000E+00  0.00000000000E+00  0.25317959256E+03  0.25317959256E+03  0.00000000000E+00 0. -1.
         22   -1    0    0    0    0 -0.00000000000E+00 -0.00000000000E+00 -0.54944321693E+03  0.54944321693E+03  0.00000000000E+00 0.  1.
        -24    2    1    2    0    0  0.20621127947E+01 -0.16960889349E+01 -0.46269805685E+03  0.46980145275E+03  0.81343617850E+02 0.  0.
         25    2    1    2    0    0  0.21923020882E+02  0.92068902921E+02  0.53556703652E+02  0.16574917879E+03  0.12508864071E+03 0.  0.
         24    2    1    2    0    0 -0.23985133677E+02 -0.90372813987E+02  0.11287772882E+03  0.16707217795E+03  0.80182285062E+02 0.  0.
        -11    1    5    5    0    0 -0.11417476007E+02 -0.33835151609E+02 -0.46863771401E+01  0.36015807272E+02  0.00000000000E+00 0.  1.
         12    1    5    5    0    0 -0.12567657670E+02 -0.56537662378E+02  0.11756410596E+03  0.13105637068E+03  0.00000000000E+00 0. -1.
         13    1    3    3    0    0  0.29242666250E+02  0.11727419136E+02 -0.81159602112E+02  0.87060593290E+02  0.00000000000E+00 0. -1.
        -14    1    3    3    0    0 -0.27180553456E+02 -0.13423508071E+02 -0.38153845473E+03  0.38274085946E+03  0.00000000000E+00 0.  1.
          5    1    4    4  501    0  0.11155354584E+02 -0.24239576311E+01 -0.34186798917E+02  0.36283978926E+02  0.41800000000E+01 0. -1.
         -5    1    4    4    0  501  0.10767666298E+02  0.94492860553E+02  0.87743502569E+02  0.12946519986E+03  0.41800000000E+01 0. -1.
</event>
<event>
11    1  0.8041700E-009  0.1480933E+03  0.7561462E-02  0.1098843E+00
         22   -1    0    0    0    0  0.00000000000E+00  0.00000000000E+00  0.53065744387E+03  0.53065744387E+03  0.00000000000E+00 0. -1.
         22   -1    0    0    0    0 -0.00000000000E+00 -0.00000000000E+00 -0.11531364797E+04  0.11531364797E+04  0.00000000000E+00 0.  1.
         24    2    1    2    0    0  0.99943558362E+01  0.78737185563E+02 -0.11217351584E+04  0.11266437739E+04  0.68825840261E+02 0.  0.
         25    2    1    2    0    0  0.53435496491E+01 -0.71919282443E+02  0.20340813897E+03  0.24944491659E+03  0.12508780397E+03 0.  0.
        -24    2    1    2    0    0 -0.15337905485E+02 -0.68179031201E+01  0.29584798359E+03  0.30770523302E+03  0.82914087377E+02 0.  0.
        -13    1    3    3    0    0  0.10440730251E+02  0.90944895054E+02 -0.92131310821E+03  0.92584978595E+03  0.00000000000E+00 0.  1.
         14    1    3    3    0    0 -0.44637441453E+00 -0.12207709490E+02 -0.20042205017E+03  0.20079398800E+03  0.00000000000E+00 0. -1.
         13    1    5    5    0    0  0.14988601684E+02  0.31203717040E+02  0.96860734448E+02  0.10286074088E+03  0.00000000000E+00 0. -1.
        -14    1    5    5    0    0 -0.30326507169E+02 -0.38021620160E+02  0.19898724914E+03  0.20484449213E+03  0.00000000000E+00 0.  1.
          5    1    4    4  501    0 -0.35572468198E+02 -0.80048821906E+02  0.18275989030E+03  0.20271128307E+03  0.41800000000E+01 0.  1.
         -5    1    4    4    0  501  0.40916017847E+02  0.81295394625E+01  0.20648248670E+02  0.46733633515E+02  0.41800000000E+01 0.  1.
</event>
<event>
11    1  0.8041700E-009  0.1335281E+03  0.7561462E-02  0.1115009E+00
         22   -1    0    0    0    0  0.00000000000E+00  0.00000000000E+00  0.36588870571E+03  0.36588870571E+03  0.00000000000E+00 0. -1.
         22   -1    0    0    0    0 -0.00000000000E+00 -0.00000000000E+00 -0.41216806141E+03  0.41216806141E+03  0.00000000000E+00 0. -1.
        -24    2    1    2    0    0 -0.81169947865E+01 -0.65056800376E+01 -0.32091244202E+03  0.33169314208E+03  0.83230616823E+02 0.  0.
         25    2    1    2    0    0  0.54072584867E+02  0.87141708385E+01 -0.19519231540E+02  0.13794426347E+03  0.12509131951E+03 0.  0.
         24    2    1    2    0    0 -0.45955590080E+02 -0.22084908010E+01  0.29415231787E+03  0.30841936157E+03  0.80499209907E+02 0.  0.
        -13    1    5    5    0    0  0.11915368499E+01 -0.27467569416E+02  0.38972926522E+02  0.47694613233E+02  0.00000000000E+00 0.  1.
         14    1    5    5    0    0 -0.47147126930E+02  0.25259078616E+02  0.25517939134E+03  0.26072474834E+03  0.00000000000E+00 0. -1.
         11    1    3    3    0    0 -0.17597336167E+02 -0.19692765157E+02 -0.31209958638E+03  0.31321497899E+03  0.00000000000E+00 0. -1.
        -12    1    3    3    0    0  0.94803413809E+01  0.13187085119E+02 -0.88128556397E+01  0.18478163090E+02  0.00000000000E+00 0.  1.
          5    1    4    4  501    0  0.73781845417E+02  0.21386991370E+02  0.30336791829E+02  0.82697989404E+02  0.41800000000E+01 0.  1.
         -5    1    4    4    0  501 -0.19709260550E+02 -0.12672820531E+02 -0.49856023370E+02  0.55246274063E+02  0.41800000000E+01 0.  1.
</event>
<event>
11    1  0.8041700E-009  0.1270203E+03  0.7561462E-02  0.1122985E+00
         22   -1    0    0    0    0  0.00000000000E+00  0.00000000000E+00  0.24406227405E+03  0.24406227405E+03  0.00000000000E+00 0. -1.
         22   -1    0    0    0    0 -0.00000000000E+00 -0.00000000000E+00 -0.32188903517E+03  0.32188903517E+03  0.00000000000E+00 0.  1.
        -24    2    1    2    0    0 -0.73598985220E+01 -0.10830535281E+02 -0.23322271521E+03  0.24667009166E+03  0.79258000402E+02 0.  0.
         25    2    1    2    0    0  0.25391282789E+02  0.20860542086E+02 -0.14333733172E+02  0.13013133120E+03  0.12509527567E+03 0.  0.
         24    2    1    2    0    0 -0.18031384267E+02 -0.10030006805E+02  0.16972968726E+03  0.18914988636E+03  0.80893639534E+02 0.  0.
        -11    1    5    5    0    0  0.16057725216E+02 -0.22710394599E+02  0.13833416084E+03  0.14110263151E+03  0.00000000000E+00 0.  1.
         12    1    5    5    0    0 -0.34089109483E+02  0.12680387794E+02  0.31395526421E+02  0.48047254855E+02  0.00000000000E+00 0. -1.
         11    1    3    3    0    0 -0.36680910384E+02 -0.16888583520E+02 -0.70764073547E+02  0.81475564097E+02  0.00000000000E+00 0. -1.
        -12    1    3    3    0    0  0.29321011862E+02  0.60580482384E+01 -0.16245864166E+03  0.16519452756E+03  0.00000000000E+00 0.  1.
          5    1    4    4  501    0 -0.27751037102E+02 -0.20650081226E+02  0.32720331112E+02  0.47797890989E+02  0.41800000000E+01 0. -1.
         -5    1    4    4    0  501  0.53142319891E+02  0.41510623312E+02 -0.47054064284E+02  0.82333440210E+02  0.41800000000E+01 0. -1.
</event>
<event>
11    1  0.8041700E-009  0.1386853E+03  0.7561462E-02  0.1109035E+00
         22   -1    0    0    0    0  0.00000000000E+00  0.00000000000E+00  0.14816561256E+04  0.14816561256E+04  0.00000000000E+00 0. -1.
         22   -1    0    0    0    0 -0.00000000000E+00 -0.00000000000E+00 -0.28547043563E+03  0.28547043563E+03  0.00000000000E+00 0.  1.
         24    2    1    2    0    0 -0.25360111789E+02  0.53819321048E+02 -0.23880369889E+03  0.25887829885E+03  0.80318817358E+02 0.  0.
         25    2    1    2    0    0  0.33002662551E+02 -0.56668319360E+02  0.10561383455E+03  0.17635837802E+03  0.12509005274E+03 0.  0.
        -24    2    1    2    0    0 -0.76425507612E+01  0.28489983125E+01  0.13293755544E+04  0.13318898844E+04  0.81392716361E+02 0.  0.
        -11    1    3    3    0    0 -0.22152699580E+02  0.47970146115E+02 -0.24447667632E+03  0.25012141508E+03  0.00000000000E+00 0.  1.
         12    1    3    3    0    0 -0.32074122098E+01  0.58491749327E+01  0.56729774264E+01  0.87568837698E+01  0.00000000000E+00 0. -1.
         13    1    5    5    0    0  0.12217562378E+02 -0.35947800038E+02  0.56743292114E+03  0.56870170841E+03  0.00000000000E+00 0. -1.
        -14    1    5    5    0    0 -0.19860113139E+02  0.38796798350E+02  0.76194263323E+03  0.76318817600E+03  0.00000000000E+00 0.  1.
          5    1    4    4  501    0  0.60345354057E+02 -0.31030399204E+02  0.41492993139E+01  0.68111206976E+02  0.41800000000E+01 0.  1.
         -5    1    4    4    0  501 -0.27342691506E+02 -0.25637920157E+02  0.10146453523E+03  0.10824717104E+03  0.41800000000E+01 0.  1.
</event>
<event>
11    1  0.8041700E-009  0.1476386E+03  0.7561462E-02  0.1099316E+00
         22   -1    0    0    0    0  0.00000000000E+00  0.00000000000E+00  0.47562884949E+03  0.47562884949E+03  0.00000000000E+00 0. -1.
         22   -1    0    0    0    0 -0.00000000000E+00 -0.00000000000E+00 -0.98089110212E+02  0.98089110212E+02  0.00000000000E+00 0. -1.
         24    2    1    2    0    0 -0.11661978347E+02  0.77296915791E+02  0.42461134796E+01  0.11229152735E+03  0.80501818021E+02 0.  0.
         25    2    1    2    0    0  0.68518242960E+02 -0.64447466216E+02  0.14906616129E+03  0.21613926893E+03  0.12508891882E+03 0.  0.
        -24    2    1    2    0    0 -0.56856264613E+02 -0.12849449575E+02  0.22422746451E+03  0.24528716342E+03  0.80561116678E+02 0.  0.
        -11    1    3    3    0    0 -0.13633137384E+02  0.63863547873E+00  0.28719330228E+02  0.31797330374E+02  0.00000000000E+00 0.  1.
         12    1    3    3    0    0  0.19711590362E+01  0.76658280312E+02 -0.24473216748E+02  0.80494196974E+02  0.00000000000E+00 0. -1.
         13    1    5    5    0    0 -0.70058814380E+02  0.10341694255E+02  0.13933535165E+03  0.15629948283E+03  0.00000000000E+00 0. -1.
        -14    1    5    5    0    0  0.13202549767E+02 -0.23191143830E+02  0.84892112858E+02  0.88987680597E+02  0.00000000000E+00 0.  1.
          5    1    4    4  501    0  0.10187077972E+03 -0.28076028009E+02  0.11373539191E+03  0.15530335117E+03  0.41800000000E+01 0.  1.
         -5    1    4    4    0  501 -0.33352536760E+02 -0.36371438207E+02  0.35330769378E+02  0.60835917766E+02  0.41800000000E+01 0.  1.
</event>
<event>
11    1  0.8041700E-009  0.1710853E+03  0.7561462E-02  0.1077091E+00
         22   -1    0    0    0    0  0.00000000000E+00  0.00000000000E+00  0.58415835393E+03  0.58415835393E+03  0.00000000000E+00 0. -1.
         22   -1    0    0    0    0 -0.00000000000E+00 -0.00000000000E+00 -0.11146099899E+04  0.11146099899E+04  0.00000000000E+00 0. -1.
        -24    2    1    2    0    0 -0.11520485825E+03 -0.78569345803E+01 -0.10173717046E+04  0.10268303642E+04  0.77469482307E+02 0.  0.
         25    2    1    2    0    0  0.14407651740E+03 -0.53844127894E+00  0.14219780701E+02  0.19133278109E+03  0.12509075973E+03 0.  0.
         24    2    1    2    0    0 -0.28871659146E+02  0.83953758592E+01  0.47270028792E+03  0.48060519858E+03  0.81435493890E+02 0.  0.
        -11    1    5    5    0    0 -0.60077160409E+01 -0.30244837294E+02  0.87049169557E+02  0.92349340850E+02  0.00000000000E+00 0.  1.
         12    1    5    5    0    0 -0.22863943105E+02  0.38640213153E+02  0.38565111836E+03  0.38825585773E+03  0.00000000000E+00 0. -1.
         13    1    3    3    0    0 -0.12518541352E+03 -0.81115592750E+01 -0.85523190432E+03  0.86438347700E+03  0.00000000000E+00 0. -1.
        -14    1    3    3    0    0  0.99805552645E+01  0.25462469471E+00 -0.16213980030E+03  0.16244688720E+03  0.00000000000E+00 0.  1.
          5    1    4    4  501    0  0.16671184833E+03  0.44395990360E+01  0.81967121160E+01  0.16702457575E+03  0.41800000000E+01 0. -1.
         -5    1    4    4    0  501 -0.22635330931E+02 -0.49780403149E+01  0.60230685848E+01  0.24308205341E+02  0.41800000000E+01 0. -1.
</event>
<event>
11    1  0.8041700E-009  0.1284811E+03  0.7561462E-02  0.1121149E+00
         22   -1    0    0    0    0  0.00000000000E+00  0.00000000000E+00  0.12320023752E+04  0.12320023752E+04  0.00000000000E+00 0. -1.
         22   -1    0    0    0    0 -0.00000000000E+00 -0.00000000000E+00 -0.14171228622E+03  0.14171228622E+03  0.00000000000E+00 0. -1.
        -24    2    1    2    0    0 -0.38178205308E+02  0.13385301521E+02 -0.59816097365E+02  0.11341324682E+03  0.87452029102E+02 0.  0.
         25    2    1    2    0    0 -0.13900202595E+02 -0.22624625433E+02  0.23742548166E+02  0.13006279326E+03  0.12509009669E+03 0.  0.
         24    2    1    2    0    0  0.52078407903E+02  0.92393239116E+01  0.11263636382E+04  0.11302386214E+04  0.77115303720E+02 0.  0.
        -13    1    5    5    0    0 -0.13828968561E+02 -0.13354928498E+02  0.12673095172E+03  0.12818084338E+03  0.00000000000E+00 0.  1.
         14    1    5    5    0    0  0.65907376464E+02  0.22594252410E+02  0.99963268651E+03  0.10020577780E+04  0.00000000000E+00 0. -1.
         11    1    3    3    0    0 -0.24485026592E+01 -0.17347210586E+01 -0.72525329748E+02  0.72587380980E+02  0.00000000000E+00 0. -1.
        -12    1    3    3    0    0 -0.35729702649E+02  0.15120022580E+02  0.12709232383E+02  0.40825865845E+02  0.00000000000E+00 0.  1.
          5    1    4    4  501    0 -0.49371708561E+02 -0.48101369045E+02  0.43850101073E+02  0.81802268149E+02  0.41800000000E+01 0. -1.
         -5    1    4    4    0  501  0.35471505965E+02  0.25476743613E+02 -0.20107552906E+02  0.48260525116E+02  0.41800000000E+01 0. -1.
</event>
<event>
11    1  0.8041700E-009  0.1351423E+03  0.7561462E-02  0.1113107E+00
         22   -1    0    0    0    0  0.00000000000E+00  0.00000000000E+00  0.43011026945E+03  0.43011026945E+03  0.00000000000E+00 0. -1.
         22   -1    0    0    0    0 -0.00000000000E+00 -0.00000000000E+00 -0.79584920655E+03  0.79584920655E+03  0.00000000000E+00 0. -1.
        -24    2    1    2    0    0  0.29390561519E+01  0.32501558435E+02 -0.56163568038E+03  0.56836122440E+03  0.80838447325E+02 0.  0.
         25    2    1    2    0    0  0.20079364737E+02  0.13995967556E+02 -0.20723545494E+03  0.24329603480E+03  0.12508940311E+03 0.  0.
         24    2    1    2    0    0 -0.23018420889E+02 -0.46497525991E+02  0.40313219822E+03  0.41430221681E+03  0.80242694295E+02 0.  0.
        -13    1    5    5    0    0 -0.50963270344E+02 -0.14477372108E+02  0.23185673931E+03  0.23783270757E+03  0.00000000000E+00 0.  1.
         14    1    5    5    0    0  0.27944849455E+02 -0.32020153883E+02  0.17127545891E+03  0.17646950924E+03  0.00000000000E+00 0. -1.
         11    1    3    3    0    0 -0.13929640385E+02  0.41767499994E+02 -0.52617871868E+03  0.52801761612E+03  0.00000000000E+00 0. -1.
        -12    1    3    3    0    0  0.16868696537E+02 -0.92659415591E+01 -0.35456961699E+02  0.40343608276E+02  0.00000000000E+00 0.  1.
          5    1    4    4  501    0  0.14588201897E+02 -0.50300139283E+02 -0.14214615423E+03  0.15154511278E+03  0.41800000000E+01 0.  1.
         -5    1    4    4    0  501  0.54911628400E+01  0.64296106838E+02 -0.65089300709E+02  0.91750922015E+02  0.41800000000E+01 0.  1.
</event>
<event>
11    1  0.8041700E-009  0.1467387E+03  0.7561462E-02  0.1100259E+00
         22   -1    0    0    0    0  0.00000000000E+00  0.00000000000E+00  0.21453754039E+02  0.21453754039E+02  0.00000000000E+00 0.  1.
         22   -1    0    0    0    0 -0.00000000000E+00 -0.00000000000E+00 -0.19263989748E+04  0.19263989748E+04  0.00000000000E+00 0.  1.
        -24    2    1    2    0    0  0.69836092470E+02  0.27343759009E+01 -0.10499592589E+04  0.10553837059E+04  0.80844076659E+02 0.  0.
         25    2    1    2    0    0 -0.10707284330E+03 -0.99819936901E+00 -0.55089477722E+03  0.57497560063E+03  0.12508515332E+03 0.  0.
         24    2    1    2    0    0  0.37236750827E+02 -0.17361765319E+01 -0.30409118464E+03  0.31749342229E+03  0.83312872370E+02 0.  0.
        -11    1    5    5    0    0  0.48372866666E+02 -0.29788705925E+02 -0.14836564771E+03  0.15886996774E+03  0.00000000000E+00 0.  1.
         12    1    5    5    0    0 -0.11136115839E+02  0.28052529394E+02 -0.15572553693E+03  0.15862345455E+03  0.00000000000E+00 0. -1.
         11    1    3    3    0    0  0.15158046884E+02 -0.17353465603E+02 -0.70000625711E+02  0.73695296687E+02  0.00000000000E+00 0. -1.
        -12    1    3    3    0    0  0.54678045586E+02  0.20087841504E+02 -0.97995863322E+03  0.98168840926E+03  0.00000000000E+00 0.  1.
          5    1    4    4  501    0  0.23591139721E+02 -0.21538662502E+02 -0.99909418128E+02  0.10497533085E+03  0.41800000000E+01 0. -1.
         -5    1    4    4    0  501 -0.13066398302E+03  0.20540463133E+02 -0.45098535909E+03  0.47000026978E+03  0.41800000000E+01 0. -1.
</event>
<event>
11    1  0.8041700E-009  0.1644598E+03  0.7561462E-02  0.1082956E+00
         22   -1    0    0    0    0  0.00000000000E+00  0.00000000000E+00  0.75240957552E+03  0.75240957552E+03  0.00000000000E+00 0. -1.
         22   -1    0    0    0    0 -0.00000000000E+00 -0.00000000000E+00 -0.32916204324E+03  0.32916204324E+03  0.00000000000E+00 0.  1.
        -24    2    1    2    0    0  0.53391030622E+02  0.24397803419E+02 -0.28650168888E+03  0.30343216130E+03  0.80882654636E+02 0.  0.
         25    2    1    2    0    0  0.24652428015E+02  0.69617250739E+02  0.19531535354E+03  0.24341374225E+03  0.12509140171E+03 0.  0.
         24    2    1    2    0    0 -0.78043458637E+02 -0.94015054158E+02  0.51443386762E+03  0.53472571521E+03  0.79748194348E+02 0.  0.
        -11    1    5    5    0    0  0.12586893107E+02 -0.10554114115E+02  0.24209380485E+02  0.29255996074E+02  0.00000000000E+00 0.  1.
         12    1    5    5    0    0 -0.90630351744E+02 -0.83460940043E+02  0.49022448714E+03  0.50546971913E+03  0.00000000000E+00 0. -1.
         13    1    3    3    0    0  0.13581559155E+01  0.37867657377E+02 -0.18217605143E+03  0.18607503266E+03  0.00000000000E+00 0. -1.
        -14    1    3    3    0    0  0.52032874706E+02 -0.13469853958E+02 -0.10432563744E+03  0.11735712865E+03  0.00000000000E+00 0.  1.
          5    1    4    4  501    0  0.70593269747E+02  0.66064408745E+02  0.11120255117E+03  0.14741572380E+03  0.41800000000E+01 0. -1.
         -5    1    4    4    0  501 -0.45940841731E+02  0.35528419949E+01  0.84112802368E+02  0.95998018456E+02  0.41800000000E+01 0. -1.
</event>
<event>
11    1  0.8041700E-009  0.2761522E+03  0.7561462E-02  0.1010822E+00
         22   -1    0    0    0    0  0.00000000000E+00  0.00000000000E+00  0.16157548744E+04  0.16157548744E+04  0.00000000000E+00 0.  1.
         22   -1    0    0    0    0 -0.00000000000E+00 -0.00000000000E+00 -0.19648461016E+03  0.19648461016E+03  0.00000000000E+00 0. -1.
         24    2    1    2    0    0 -0.29533397682E+02 -0.24067910991E+03 -0.56581176242E+02  0.26185329742E+03  0.81037425522E+02 0.  0.
         25    2    1    2    0    0  0.13251374018E+03  0.25911727538E+03  0.78264016246E+03  0.84431951705E+03  0.12509264265E+03 0.  0.
        -24    2    1    2    0    0 -0.10298034250E+03 -0.18438165465E+02  0.69321127803E+03  0.70606667011E+03  0.83924667172E+02 0.  0.
        -13    1    3    3    0    0  0.17830346836E+02 -0.47031222071E+02  0.10750516428E+02  0.51433750799E+02  0.00000000000E+00 0.  1.
         14    1    3    3    0    0 -0.47363744517E+02 -0.19364788784E+03 -0.67331692670E+02  0.21041954662E+03  0.00000000000E+00 0. -1.
         13    1    5    5    0    0 -0.56141812066E+02  0.25686715502E+02  0.46057507730E+03  0.46469464409E+03  0.00000000000E+00 0. -1.
        -14    1    5    5    0    0 -0.46838530435E+02 -0.44124880967E+02  0.23263620074E+03  0.24137202602E+03  0.00000000000E+00 0.  1.
          5    1    4    4  501    0  0.15039950645E+02  0.64215483774E+02  0.70230164325E+02  0.96434313669E+02  0.41800000000E+01 0.  1.
         -5    1    4    4    0  501  0.11747378954E+03  0.19490179160E+03  0.71240999814E+03  0.74788520339E+03  0.41800000000E+01 0.  1.
</event>
<event>
11    1  0.8041700E-009  0.2112685E+03  0.7561462E-02  0.1046829E+00
         22   -1    0    0    0    0  0.00000000000E+00  0.00000000000E+00  0.11279753750E+04  0.11279753750E+04  0.00000000000E+00 0.  1.
         22   -1    0    0    0    0 -0.00000000000E+00 -0.00000000000E+00 -0.24986330761E+03  0.24986330761E+03  0.00000000000E+00 0.  1.
         24    2    1    2    0    0  0.29066304036E+02  0.12076473911E+02 -0.14268338062E+03  0.16686719769E+03  0.80594189057E+02 0.  0.
         25    2    1    2    0    0  0.18160385872E+02  0.15341195215E+03  0.28721135034E+02  0.20084477631E+03  0.12509473968E+03 0.  0.
        -24    2    1    2    0    0 -0.47226689907E+02 -0.16548842606E+03  0.99207431301E+03  0.10101267087E+04  0.80794465179E+02 0.  0.
        -11    1    3    3    0    0  0.41751961164E+02  0.36115537286E+02 -0.11745955957E+03  0.12978561718E+03  0.00000000000E+00 0.  1.
         12    1    3    3    0    0 -0.12685657128E+02 -0.24039063375E+02 -0.25223821050E+02  0.37081580509E+02  0.00000000000E+00 0. -1.
         13    1    5    5    0    0  0.13007353340E+02 -0.11247718183E+02  0.21067701625E+03  0.21137764210E+03  0.00000000000E+00 0. -1.
        -14    1    5    5    0    0 -0.60234043247E+02 -0.15424070788E+03  0.78139729677E+03  0.79874906656E+03  0.00000000000E+00 0.  1.
          5    1    4    4  501    0  0.22089657269E+02  0.62553380142E+02 -0.47836312601E+02  0.81894221584E+02  0.41800000000E+01 0.  1.
         -5    1    4    4    0  501 -0.39292713977E+01  0.90858572008E+02  0.76557447635E+02  0.11895055473E+03  0.41800000000E+01 0.  1.
</event>
<event>
11    1  0.8041700E-009  0.1509285E+03  0.7561462E-02  0.1095934E+00
         22   -1    0    0    0    0  0.00000000000E+00  0.00000000000E+00  0.33675882469E+03  0.33675882469E+03  0.00000000000E+00 0. -1.
         22   -1    0    0    0    0 -0.00000000000E+00 -0.00000000000E+00 -0.56532025584E+03  0.56532025584E+03  0.00000000000E+00 0.  1.
         24    2    1    2    0    0  0.31800115566E+02  0.77797184355E+02 -0.49819764715E+03  0.51123845126E+03  0.78103835878E+02 0.  0.
         25    2    1    2    0    0 -0.83625961805E+02 -0.65587239662E+02  0.90655313498E+02  0.18751248513E+03  0.12509020234E+03 0.  0.
        -24    2    1    2    0    0  0.51825846239E+02 -0.12209944693E+02  0.17898090250E+03  0.20332814414E+03  0.80456010653E+02 0.  0.
        -11    1    3    3    0    0  0.18808548906E+02  0.13473593595E+02 -0.32820273190E+03  0.32901722214E+03  0.00000000000E+00 0.  1.
         12    1    3    3    0    0  0.12991566661E+02  0.64323590760E+02 -0.16999491524E+03  0.18222122912E+03  0.00000000000E+00 0. -1.
         11    1    5    5    0    0  0.69735837268E+02  0.29393543008E+01  0.15389404792E+03  0.16898255765E+03  0.00000000000E+00 0. -1.
        -12    1    5    5    0    0 -0.17909991029E+02 -0.15149298993E+02  0.25086854582E+02  0.34345586492E+02  0.00000000000E+00 0.  1.
          5    1    4    4  501    0 -0.10597907636E+03 -0.16301798905E+02  0.44145662291E+02  0.11603286247E+03  0.41800000000E+01 0.  1.
         -5    1    4    4    0  501  0.22353114555E+02 -0.49285440757E+02  0.46509651206E+02  0.71479622664E+02  0.41800000000E+01 0.  1.
</event>
<event>
11    1  0.8041700E-009  0.1728009E+03  0.7561462E-02  0.1075620E+00
         22   -1    0    0    0    0  0.00000000000E+00  0.00000000000E+00  0.35321968815E+04  0.35321968815E+04  0.00000000000E+00 0.  1.
         22   -1    0    0    0    0 -0.00000000000E+00 -0.00000000000E+00 -0.11857936711E+04  0.11857936711E+04  0.00000000000E+00 0. -1.
         24    2    1    2    0    0  0.49772734013E+02  0.12903792100E+02 -0.10940783850E+04  0.10982162167E+04  0.80171773286E+02 0.  0.
         25    2    1    2    0    0  0.69580356048E+02  0.14516221342E+00 -0.30048193856E+02  0.14625923717E+03  0.12508966178E+03 0.  0.
        -24    2    1    2    0    0 -0.11935309006E+03 -0.13048954313E+02  0.34705297892E+04  0.34735150987E+04  0.79465010289E+02 0.  0.
        -11    1    3    3    0    0  0.30309172407E+02  0.53360278703E+01 -0.11902705739E+03  0.12294128483E+03  0.00000000000E+00 0.  1.
         12    1    3    3    0    0  0.19463561607E+02  0.75677642296E+01 -0.97505132758E+03  0.97527493185E+03  0.00000000000E+00 0. -1.
         11    1    5    5    0    0 -0.36650643767E+01  0.63230843292E+01  0.26527436932E+02  0.27515795509E+02  0.00000000000E+00 0. -1.
        -12    1    5    5    0    0 -0.11568802568E+03 -0.19372038643E+02  0.34440023523E+04  0.34459993032E+04  0.00000000000E+00 0.  1.
          5    1    4    4  501    0 -0.27328148085E+02  0.62284250161E+01 -0.39497038656E+02  0.48611823855E+02  0.41800000000E+01 0. -1.
         -5    1    4    4    0  501  0.96908504133E+02 -0.60832628027E+01  0.94488447995E+01  0.97647413318E+02  0.41800000000E+01 0. -1.
</event>
<event>
11    1  0.8041700E-009  0.1474515E+03  0.7561462E-02  0.1099512E+00
         22   -1    0    0    0    0  0.00000000000E+00  0.00000000000E+00  0.15484125779E+04  0.15484125779E+04  0.00000000000E+00 0.  1.
         22   -1    0    0    0    0 -0.00000000000E+00 -0.00000000000E+00 -0.21413958077E+03  0.21413958077E+03  0.00000000000E+00 0. -1.
         24    2    1    2    0    0 -0.33124299064E+02  0.68405409893E+02 -0.16261021788E+03  0.19678267744E+03  0.80652463634E+02 0.  0.
         25    2    1    2    0    0  0.20088104839E+02 -0.10394718412E+03  0.17045457065E+03  0.23645365768E+03  0.12508805912E+03 0.  0.
        -24    2    1    2    0    0  0.13036194225E+02  0.35541774231E+02  0.13264286443E+04  0.13293158235E+04  0.78958534048E+02 0.  0.
        -13    1    3    3    0    0  0.10047195965E+02 -0.12038011231E+02 -0.89699859218E+01  0.18064343569E+02  0.00000000000E+00 0.  1.
         14    1    3    3    0    0 -0.43171495030E+02  0.80443421124E+02 -0.15364023195E+03  0.17871833387E+03  0.00000000000E+00 0. -1.
         11    1    5    5    0    0 -0.30869757359E+02  0.30315262455E+02  0.62712512907E+03  0.62861584817E+03  0.00000000000E+00 0. -1.
        -12    1    5    5    0    0  0.43905951584E+02  0.52265117760E+01  0.69930351524E+03  0.70069997533E+03  0.00000000000E+00 0.  1.
          5    1    4    4  501    0  0.61090030480E+02 -0.45490070595E+02  0.13849503214E+03  0.15811288586E+03  0.41800000000E+01 0.  1.
         -5    1    4    4    0  501 -0.41001925641E+02 -0.58457113528E+02  0.31959538507E+02  0.78340771823E+02  0.41800000000E+01 0.  1.
</event>
<event>
11    1  0.8041700E-009  0.1329262E+03  0.7561462E-02  0.1115725E+00
         22   -1    0    0    0    0  0.00000000000E+00  0.00000000000E+00  0.12817355156E+04  0.12817355156E+04  0.00000000000E+00 0. -1.
         22   -1    0    0    0    0 -0.00000000000E+00 -0.00000000000E+00 -0.10476038001E+03  0.10476038001E+03  0.00000000000E+00 0.  1.
         24    2    1    2    0    0  0.18640109594E+02  0.44788995928E+02  0.11140086781E+02  0.94336387471E+02  0.80135788669E+02 0.  0.
         25    2    1    2    0    0 -0.45349727353E+02 -0.79115804814E+02  0.36782148226E+02  0.15910766205E+03  0.12508562408E+03 0.  0.
        -24    2    1    2    0    0  0.26709617759E+02  0.34326808886E+02  0.11290529006E+04  0.11330518461E+04  0.84583096037E+02 0.  0.
        -13    1    3    3    0    0  0.78262701000E+01  0.44219887457E+01 -0.32614749707E+02  0.33830849629E+02  0.00000000000E+00 0.  1.
         14    1    3    3    0    0  0.10813839494E+02  0.40367007182E+02  0.43754836488E+02  0.60505537842E+02  0.00000000000E+00 0. -1.
         11    1    5    5    0    0  0.50060724939E+02  0.38203641248E+02  0.98982004429E+03  0.99182121094E+03  0.00000000000E+00 0. -1.
        -12    1    5    5    0    0 -0.23351107181E+02 -0.38768323621E+01  0.13923285632E+03  0.14123063519E+03  0.00000000000E+00 0.  1.
          5    1    4    4  501    0 -0.20784314324E+02 -0.89313884319E+02  0.70654312874E+02  0.11583808520E+03  0.41800000000E+01 0.  1.
         -5    1    4    4    0  501 -0.24565413028E+02  0.10198079505E+02 -0.33872164649E+02  0.43269576851E+02  0.41800000000E+01 0.  1.
</event>
<event>
11    1  0.8041700E-009  0.1292558E+03  0.7561462E-02  0.1120187E+00
         22   -1    0    0    0    0  0.00000000000E+00  0.00000000000E+00  0.26363892975E+03  0.26363892975E+03  0.00000000000E+00 0.  1.
         22   -1    0    0    0    0 -0.00000000000E+00 -0.00000000000E+00 -0.84886223245E+03  0.84886223245E+03  0.00000000000E+00 0.  1.
        -24    2    1    2    0    0 -0.18914905251E+02  0.56796073564E+02 -0.32721086598E+03  0.34205272702E+03  0.79684061335E+02 0.  0.
         25    2    1    2    0    0  0.27654166644E+02 -0.86655695963E+02 -0.48982476437E+03  0.51366218787E+03  0.12508629374E+03 0.  0.
         24    2    1    2    0    0 -0.87392613936E+01  0.29859622400E+02  0.23181232766E+03  0.25678624731E+03  0.10599174407E+03 0.  0.
        -13    1    5    5    0    0 -0.48022368345E+02  0.77351204120E+01  0.51158606971E+02  0.70591663931E+02  0.00000000000E+00 0.  1.
         14    1    5    5    0    0  0.39283106952E+02  0.22124501988E+02  0.18065372069E+03  0.18619458338E+03  0.00000000000E+00 0. -1.
         11    1    3    3    0    0  0.86214424275E+01 -0.17685677613E+02 -0.51361018334E+02  0.55000606055E+02  0.00000000000E+00 0. -1.
        -12    1    3    3    0    0 -0.27536347678E+02  0.74481751176E+02 -0.27584984765E+03  0.28705212097E+03  0.00000000000E+00 0.  1.
          5    1    4    4  501    0  0.65376612860E+02 -0.69881038834E+02 -0.43198652606E+03  0.44247857823E+03  0.41800000000E+01 0. -1.
         -5    1    4    4    0  501 -0.37722446216E+02 -0.16774657129E+02 -0.57838238314E+02  0.71183609641E+02  0.41800000000E+01 0. -1.
</event>
<event>
11    1  0.8041700E-009  0.2396164E+03  0.7561462E-02  0.1029581E+00
         22   -1    0    0    0    0  0.00000000000E+00  0.00000000000E+00  0.15280130282E+04  0.15280130282E+04  0.00000000000E+00 0.  1.
         22   -1    0    0    0    0 -0.00000000000E+00 -0.00000000000E+00 -0.17896241204E+04  0.17896241204E+04  0.00000000000E+00 0. -1.
        -24    2    1    2    0    0  0.20861996212E+02 -0.76242755872E+01 -0.12973731666E+04  0.12998025514E+04  0.76263929109E+02 0.  0.
         25    2    1    2    0    0 -0.19744601780E+03  0.10979684141E+03 -0.44847556820E+03  0.51751245199E+03  0.12509407007E+03 0.  0.
         24    2    1    2    0    0  0.17658402159E+03 -0.10217256582E+03  0.14842376426E+04  0.15003221451E+04  0.79899997712E+02 0.  0.
        -11    1    5    5    0    0  0.79525427369E+02 -0.60711641721E+01  0.66663477342E+03  0.67138891394E+03  0.00000000000E+00 0.  1.
         12    1    5    5    0    0  0.97058594220E+02 -0.96101401646E+02  0.81760286915E+03  0.82893323118E+03  0.00000000000E+00 0. -1.
         11    1    3    3    0    0 -0.16815562941E+02 -0.21272628538E+02 -0.90118933399E+03  0.90159719586E+03  0.00000000000E+00 0. -1.
        -12    1    3    3    0    0  0.37677559153E+02  0.13648352951E+02 -0.39618383258E+03  0.39820535557E+03  0.00000000000E+00 0.  1.
          5    1    4    4  501    0 -0.96126866999E+02  0.77204239818E+02 -0.11961117086E+03  0.17182890851E+03  0.41800000000E+01 0.  1.
         -5    1    4    4    0  501 -0.10131915080E+03  0.32592601588E+02 -0.32886439733E+03  0.34568354348E+03  0.41800000000E+01 0.  1.
</event>
<event>
11    1  0.8041700E-009  0.1393136E+03  0.7561462E-02  0.1108327E+00
         22   -1    0    0    0    0  0.00000000000E+00  0.00000000000E+00  0.35135306361E+04  0.35135306361E+04  0.00000000000E+00 0.  1.
         22   -1    0    0    0    0 -0.00000000000E+00 -0.00000000000E+00 -0.11950632450E+03  0.11950632450E+03  0.00000000000E+00 0.  1.
        -24    2    1    2    0    0 -0.12546001839E+02  0.45084728761E+02 -0.90967377972E+02  0.13083640327E+03  0.81566326607E+02 0.  0.
         25    2    1    2    0    0  0.26247023032E+02  0.19109024411E+02  0.53463885863E+03  0.55003730826E+03  0.12509304651E+03 0.  0.
         24    2    1    2    0    0 -0.13701021192E+02 -0.64193753173E+02  0.29503528309E+04  0.29521632491E+04  0.79859039438E+02 0.  0.
        -13    1    5    5    0    0  0.28881177571E+02 -0.47197941036E+02  0.19086943818E+04  0.19094962716E+04  0.00000000000E+00 0.  1.
         14    1    5    5    0    0 -0.42582198763E+02 -0.16995812137E+02  0.10416584491E+04  0.10426669775E+04  0.00000000000E+00 0. -1.
         11    1    3    3    0    0  0.32994514820E+02  0.12452951086E+02 -0.20428402445E+02  0.40755780270E+02  0.00000000000E+00 0. -1.
        -12    1    3    3    0    0 -0.45540516659E+02  0.32631777675E+02 -0.70538975527E+02  0.90080623001E+02  0.00000000000E+00 0.  1.
          5    1    4    4  501    0 -0.45918832412E+02 -0.91609260158E+01  0.13554283221E+03  0.14346356157E+03  0.41800000000E+01 0. -1.
         -5    1    4    4    0  501  0.72165855444E+02  0.28269950427E+02  0.39909602642E+03  0.40657374669E+03  0.41800000000E+01 0. -1.
</event>
<event>
11    1  0.8041700E-009  0.1457296E+03  0.7561462E-02  0.1101324E+00
         22   -1    0    0    0    0  0.00000000000E+00  0.00000000000E+00  0.15485936949E+03  0.15485936949E+03  0.00000000000E+00 0.  1.
         22   -1    0    0    0    0 -0.00000000000E+00 -0.00000000000E+00 -0.65720205122E+03  0.65720205122E+03  0.00000000000E+00 0.  1.
        -24    2    1    2    0    0 -0.48166541614E+02  0.64355156981E+01 -0.49691919330E+03  0.50561793303E+03  0.79745707981E+02 0.  0.
         25    2    1    2    0    0  0.10931410216E+03 -0.31626821992E+02 -0.71311428767E+02  0.18353010595E+03  0.12509257020E+03 0.  0.
         24    2    1    2    0    0 -0.61147560544E+02  0.25191306294E+02  0.65887940343E+02  0.12291338172E+03  0.79955316585E+02 0.  0.
        -13    1    5    5    0    0 -0.15062643000E+02 -0.21860643333E+02  0.47695021635E+02  0.54585584451E+02  0.00000000000E+00 0.  1.
         14    1    5    5    0    0 -0.46084917543E+02  0.47051949627E+02  0.18192918709E+02  0.68327797271E+02  0.00000000000E+00 0. -1.
         11    1    3    3    0    0 -0.48483329547E+02 -0.27690390819E+02 -0.37006758405E+03  0.37425580524E+03  0.00000000000E+00 0. -1.
        -12    1    3    3    0    0  0.31678793351E+00  0.34125906517E+02 -0.12685160925E+03  0.13136212779E+03  0.00000000000E+00 0.  1.
          5    1    4    4  501    0  0.95909165035E+02  0.23860886772E+02 -0.96381990821E+01  0.99389522268E+02  0.41800000000E+01 0. -1.
         -5    1    4    4    0  501  0.13404937123E+02 -0.55487708764E+02 -0.61673229685E+02  0.84140583686E+02  0.41800000000E+01 0. -1.
</event>
<event>
11    1  0.8041700E-009  0.1347966E+03  0.7561462E-02  0.1113512E+00
         22   -1    0    0    0    0  0.00000000000E+00  0.00000000000E+00  0.33596823963E+03  0.33596823963E+03  0.00000000000E+00 0.  1.
         22   -1    0    0    0    0 -0.00000000000E+00 -0.00000000000E+00 -0.16566051711E+04  0.16566051711E+04  0.00000000000E+00 0. -1.
         24    2    1    2    0    0 -0.38305953959E+02  0.11900723860E+02 -0.11255412964E+04  0.11291904836E+04  0.81357021917E+02 0.  0.
         25    2    1    2    0    0  0.83576217731E+02 -0.32487865531E+02 -0.51132835057E+03  0.53398928516E+03  0.12508968382E+03 0.  0.
        -24    2    1    2    0    0 -0.45270263771E+02  0.20587141671E+02  0.31623271548E+03  0.32939364198E+03  0.77613232468E+02 0.  0.
        -13    1    3    3    0    0  0.42907775310E+01  0.13624295341E+02 -0.34814402294E+02  0.37630769358E+02  0.00000000000E+00 0.  1.
         14    1    3    3    0    0 -0.42596731490E+02 -0.17235714803E+01 -0.10907268941E+04  0.10915597142E+04  0.00000000000E+00 0. -1.
         11    1    5    5    0    0 -0.18092920761E+01  0.10028060686E+02  0.17951910977E+00  0.10191553662E+02  0.00000000000E+00 0. -1.
        -12    1    5    5    0    0 -0.43460971695E+02  0.10559080985E+02  0.31605319637E+03  0.31920208832E+03  0.00000000000E+00 0.  1.
          5    1    4    4  501    0  0.28870842202E+02  0.44721712869E+02 -0.11969136381E+03  0.13106125324E+03  0.41800000000E+01 0.  1.
         -5    1    4    4    0  501  0.54705375528E+02 -0.77209578400E+02 -0.39163698676E+03  0.40292803192E+03  0.41800000000E+01 0.  1.
</event>
<event>
11    1  0.8041700E-009  0.1571257E+03  0.7561462E-02  0.1089812E+00
         22   -1    0    0    0    0  0.00000000000E+00  0.00000000000E+00  0.62127269209E+03  0.62127269209E+03  0.00000000000E+00 0.  1.
         22   -1    0    0    0    0 -0.00000000000E+00 -0.00000000000E+00 -0.18173393065E+03  0.18173393065E+03  0.00000000000E+00 0.  1.
         24    2    1    2    0    0 -0.10305640825E+03 -0.20904094440E+02 -0.11359071246E+03  0.17317592494E+03  0.77649511120E+02 0.  0.
         25    2    1    2    0    0  0.49145993887E+02  0.40437450331E+01  0.10318016472E+03  0.16948523590E+03  0.12508964069E+03 0.  0.
        -24    2    1    2    0    0  0.53910414363E+02  0.16860349407E+02  0.44994930919E+03  0.46034546190E+03  0.79202015725E+02 0.  0.
        -13    1    3    3    0    0 -0.56575271579E+02 -0.29449895002E+02 -0.10821272150E+03  0.12561071118E+03  0.00000000000E+00 0.  1.
         14    1    3    3    0    0 -0.46481136671E+02  0.85458005619E+01 -0.53779909647E+01  0.47565213763E+02  0.00000000000E+00 0. -1.
         11    1    5    5    0    0 -0.20213835393E+02  0.10317764339E+02  0.93943406352E+02  0.96645843156E+02  0.00000000000E+00 0. -1.
        -12    1    5    5    0    0  0.74124249756E+02  0.65425850678E+01  0.35600590284E+03  0.36369961875E+03  0.00000000000E+00 0.  1.
          5    1    4    4  501    0 -0.25821658125E+02 -0.34685317185E+02  0.11762476202E+02  0.45007304996E+02  0.41800000000E+01 0. -1.
         -5    1    4    4    0  501  0.74967652012E+02  0.38729062218E+02  0.91417688514E+02  0.12447793090E+03  0.41800000000E+01 0. -1.
</event>
<event>
11    1  0.8041700E-009  0.1492330E+03  0.7561462E-02  0.1097665E+00
         22   -1    0    0    0    0  0.00000000000E+00  0.00000000000E+00  0.12372030079E+04  0.12372030079E+04  0.00000000000E+00 0. -1.
         22   -1    0    0    0    0 -0.00000000000E+00 -0.00000000000E+00 -0.19958927494E+03  0.19958927494E+03  0.00000000000E+00 0. -1.
        -24    2    1    2    0    0  0.14803816700E+02 -0.74891134332E+02 -0.13435395584E+03  0.17431137657E+03  0.80657520183E+02 0.  0.
         25    2    1    2    0    0 -0.43101350150E+02  0.12309425634E+03  0.14705530455E+03  0.23298704218E+03  0.12509107441E+03 0.  0.
         24    2    1    2    0    0  0.28297533450E+02 -0.48203122007E+02  0.10249123842E+04  0.10294938641E+04  0.79296465600E+02 0.  0.
        -13    1    5    5    0    0 -0.10164878730E+02 -0.27698718675E+02  0.12151961892E+03  0.12505023614E+03  0.00000000000E+00 0.  1.
         14    1    5    5    0    0  0.38462412180E+02 -0.20504403332E+02  0.90339276531E+03  0.90444362794E+03  0.00000000000E+00 0. -1.
         13    1    3    3    0    0  0.43286182550E+02 -0.28144632631E+02 -0.90412391359E+02  0.10411635057E+03  0.00000000000E+00 0. -1.
        -14    1    3    3    0    0 -0.28482365850E+02 -0.46746501701E+02 -0.43941564480E+02  0.70195025997E+02  0.00000000000E+00 0.  1.
          5    1    4    4  501    0  0.15381619696E+01 -0.17835711687E+02  0.56871502479E+02  0.59768877753E+02  0.41800000000E+01 0.  1.
         -5    1    4    4    0  501 -0.44639512120E+02  0.14092996803E+03  0.90183802073E+02  0.17321816442E+03  0.41800000000E+01 0.  1.
</event>
<event>
11    1  0.8041700E-009  0.2876099E+03  0.7561462E-02  0.1005576E+00
         22   -1    0    0    0    0  0.00000000000E+00  0.00000000000E+00  0.23628951340E+03  0.23628951340E+03  0.00000000000E+00 0. -1.
         22   -1    0    0    0    0 -0.00000000000E+00 -0.00000000000E+00 -0.14150049712E+04  0.14150049712E+04  0.00000000000E+00 0.  1.
         24    2    1    2    0    0 -0.82427662018E+02 -0.12045970466E+03 -0.10079126500E+04  0.10216086166E+04  0.80569197220E+02 0.  0.
         25    2    1    2    0    0  0.31014361666E+03  0.11118583809E+03 -0.13889571847E+03  0.37880174068E+03  0.12508950632E+03 0.  0.
        -24    2    1    2    0    0 -0.22771595464E+03  0.92738665726E+01 -0.31907089390E+02  0.25088412738E+03  0.99921080952E+02 0.  0.
        -13    1    3    3    0    0 -0.63902102515E+02 -0.57546733227E+02 -0.77116161731E+03  0.77594158622E+03  0.00000000000E+00 0.  1.
         14    1    3    3    0    0 -0.18525559503E+02 -0.62912971435E+02 -0.23675103265E+03  0.24566703033E+03  0.00000000000E+00 0. -1.
         13    1    5    5    0    0 -0.11975619837E+03  0.22691336884E+02  0.30256041476E+02  0.12558611334E+03  0.00000000000E+00 0. -1.
        -14    1    5    5    0    0 -0.10795975626E+03 -0.13417470311E+02 -0.62163130866E+02  0.12529801404E+03  0.00000000000E+00 0.  1.
          5    1    4    4  501    0  0.16442790172E+03  0.77766237184E+01 -0.24193215843E+02  0.16643255340E+03  0.41800000000E+01 0. -1.
         -5    1    4    4    0  501  0.14571571494E+03  0.10340921437E+03 -0.11470250262E+03  0.21236918728E+03  0.41800000000E+01 0. -1.
</event>
<event>
11    1  0.8041700E-009  0.1558294E+03  0.7561462E-02  0.1091067E+00
         22   -1    0    0    0    0  0.00000000000E+00  0.00000000000E+00  0.49662073461E+03  0.49662073461E+03  0.00000000000E+00 0. -1.
         22   -1    0    0    0    0 -0.00000000000E+00 -0.00000000000E+00 -0.70944258107E+03  0.70944258107E+03  0.00000000000E+00 0.  1.
        -24    2    1    2    0    0 -0.99364032143E+02  0.57758336932E+01 -0.61709922468E+03  0.63016665290E+03  0.79949897954E+02 0.  0.
         25    2    1    2    0    0  0.38958913893E+02  0.39883195471E+01 -0.26187029030E+02  0.13366096480E+03  0.12508312979E+03 0.  0.
         24    2    1    2    0    0  0.60405118250E+02 -0.97641532403E+01  0.43046440724E+03  0.44223569798E+03  0.80800307323E+02 0.  0.
        -11    1    5    5    0    0  0.60420076403E+02  0.38881348008E+01  0.15458581204E+03  0.16601950641E+03  0.00000000000E+00 0.  1.
         12    1    5    5    0    0 -0.14958152938E-01 -0.13652288041E+02  0.27587859521E+03  0.27621619157E+03  0.00000000000E+00 0. -1.
         13    1    3    3    0    0  0.94321464217E+01 -0.13409129981E+02 -0.58830369086E+02  0.61071945112E+02  0.00000000000E+00 0. -1.
        -14    1    3    3    0    0 -0.10879617856E+03  0.19184963674E+02 -0.55826885559E+03  0.56909470778E+03  0.00000000000E+00 0.  1.
          5    1    4    4  501    0  0.25140059299E+02  0.19386466300E+02  0.47346532407E+02  0.57157888241E+02  0.41800000000E+01 0. -1.
         -5    1    4    4    0  501  0.13818854594E+02 -0.15398146753E+02 -0.73533561437E+02  0.76503076561E+02  0.41800000000E+01 0. -1.
</event>
<event>
11    1  0.8041700E-009  0.1488834E+03  0.7561462E-02  0.1098025E+00
         22   -1    0    0    0    0  0.00000000000E+00  0.00000000000E+00  0.10159925254E+04  0.10159925254E+04  0.00000000000E+00 0.  1.
         22   -1    0    0    0    0 -0.00000000000E+00 -0.00000000000E+00 -0.63789078550E+03  0.63789078550E+03  0.00000000000E+00 0.  1.
         24    2    1    2    0    0 -0.20736020765E+02 -0.68701931462E+00 -0.56859708310E+03  0.57489435644E+03  0.82282583868E+02 0.  0.
         25    2    1    2    0    0 -0.58724961521E+02 -0.18866246710E+02  0.15120275837E+02  0.14028787560E+03  0.12509000332E+03 0.  0.
        -24    2    1    2    0    0  0.79460982286E+02  0.19553266024E+02  0.93157854715E+03  0.93870107883E+03  0.81392554829E+02 0.  0.
        -11    1    3    3    0    0  0.12173753267E+02 -0.66677953858E+01 -0.47988714584E+03  0.48008783833E+03  0.00000000000E+00 0.  1.
         12    1    3    3    0    0 -0.32909774032E+02  0.59807760712E+01 -0.88709937257E+02  0.94806518117E+02  0.00000000000E+00 0. -1.
         11    1    5    5    0    0  0.37291393753E+02  0.24893637229E+02  0.16615858750E+03  0.17210176473E+03  0.00000000000E+00 0. -1.
        -12    1    5    5    0    0  0.42169588533E+02 -0.53403712050E+01  0.76541995965E+03  0.76659931410E+03  0.00000000000E+00 0.  1.
          5    1    4    4  501    0  0.38548245289E+02 -0.14036384029E+02  0.11181198421E+02  0.42725623337E+02  0.41800000000E+01 0.  1.
         -5    1    4    4    0  501 -0.97273206809E+02 -0.48298626803E+01  0.39390774165E+01  0.97562252267E+02  0.41800000000E+01 0.  1.
</event>
<event>
11    1  0.8041700E-009  0.1912810E+03  0.7561462E-02  0.1060866E+00
         22   -1    0    0    0    0  0.00000000000E+00  0.00000000000E+00  0.13422458968E+04  0.13422458968E+04  0.00000000000E+00 0. -1.
         22   -1    0    0    0    0 -0.00000000000E+00 -0.00000000000E+00 -0.18400519303E+04  0.18400519303E+04  0.00000000000E+00 0. -1.
        -24    2    1    2    0    0 -0.15732450434E+02  0.56565616544E+02 -0.17944727130E+04  0.17972867329E+04  0.81609458454E+02 0.  0.
         25    2    1    2    0    0  0.57036231711E+02  0.89555736186E+02  0.14010968726E+03  0.21576011834E+03  0.12509333551E+03 0.  0.
         24    2    1    2    0    0 -0.41303781277E+02 -0.14612135273E+03  0.11565569922E+04  0.11692509759E+04  0.80413409302E+02 0.  0.
        -11    1    5    5    0    0 -0.25375167102E+02 -0.37036106967E+02  0.14727058332E+03  0.15396167392E+03  0.00000000000E+00 0.  1.
         12    1    5    5    0    0 -0.15928614175E+02 -0.10908524576E+03  0.10092864089E+04  0.10152893020E+04  0.00000000000E+00 0. -1.
         13    1    3    3    0    0  0.32168552035E+02  0.10191817469E+02 -0.56235500062E+03  0.56336651978E+03  0.00000000000E+00 0. -1.
        -14    1    3    3    0    0 -0.47901002469E+02  0.46373799075E+02 -0.12321177124E+04  0.12339202131E+04  0.00000000000E+00 0.  1.
          5    1    4    4  501    0  0.21095034676E+02 -0.29998516261E+02  0.17945937037E+02  0.41041936138E+02  0.41800000000E+01 0. -1.
         -5    1    4    4    0  501  0.35941197035E+02  0.11955425245E+03  0.12216375022E+03  0.17471818220E+03  0.41800000000E+01 0. -1.
</event>
<event>
11    1  0.8041700E-009  0.1593917E+03  0.7561462E-02  0.1087651E+00
         22   -1    0    0    0    0  0.00000000000E+00  0.00000000000E+00  0.22702801640E+03  0.22702801640E+03  0.00000000000E+00 0.  1.
         22   -1    0    0    0    0 -0.00000000000E+00 -0.00000000000E+00 -0.59240290367E+03  0.59240290367E+03  0.00000000000E+00 0. -1.
        -24    2    1    2    0    0 -0.33861431429E+01 -0.24217846005E+02 -0.49463122438E+03  0.50191514601E+03  0.81613697549E+02 0.  0.
         25    2    1    2    0    0 -0.91757039337E+02 -0.20139813339E+02  0.85431173231E+02  0.17824580031E+03  0.12509242031E+03 0.  0.
         24    2    1    2    0    0  0.95143182480E+02  0.44357659344E+02  0.43825163884E+02  0.13926997374E+03  0.80347081353E+02 0.  0.
        -13    1    5    5    0    0  0.92386716464E+02  0.33807935491E+02  0.63276473228E+02  0.11697091068E+03  0.00000000000E+00 0.  1.
         14    1    5    5    0    0  0.27564660160E+01  0.10549723853E+02 -0.19451309344E+02  0.22299063063E+02  0.00000000000E+00 0. -1.
         11    1    3    3    0    0 -0.54218860290E+01 -0.15278793935E+02 -0.49215058423E+03  0.49241754228E+03  0.00000000000E+00 0. -1.
        -12    1    3    3    0    0  0.20357428861E+01 -0.89390520700E+01 -0.24806401595E+01  0.94976037299E+01  0.00000000000E+00 0.  1.
          5    1    4    4  501    0  0.30798173517E+01 -0.17546233114E+02  0.81147369300E+02  0.83184875523E+02  0.41800000000E+01 0.  1.
         -5    1    4    4    0  501 -0.94836856688E+02 -0.25935802248E+01  0.42838039304E+01  0.95060924785E+02  0.41800000000E+01 0.  1.
</event>
<event>
11    1  0.8041700E-009  0.1461225E+03  0.7561462E-02  0.1100908E+00
         22   -1    0    0    0    0  0.00000000000E+00  0.00000000000E+00  0.51461735763E+03  0.51461735763E+03  0.00000000000E+00 0. -1.
         22   -1    0    0    0    0 -0.00000000000E+00 -0.00000000000E+00 -0.48417046647E+03  0.48417046647E+03  0.00000000000E+00 0. -1.
        -24    2    1    2    0    0  0.85029370654E+02 -0.39018518747E+01 -0.40638517600E+03  0.42281386801E+03  0.79858859156E+02 0.  0.
         25    2    1    2    0    0 -0.17553798227E+01 -0.74772192499E+00  0.12208076165E+01  0.12511363523E+03  0.12509312892E+03 0.  0.
         24    2    1    2    0    0 -0.83273990831E+02  0.46495737997E+01  0.43561125954E+03  0.45086032085E+03  0.81004218365E+02 0.  0.
        -11    1    5    5    0    0 -0.13820547904E+02  0.19265636263E+02  0.26171823111E+02  0.35314821392E+02  0.00000000000E+00 0.  1.
         12    1    5    5    0    0 -0.69453442927E+02 -0.14616062463E+02  0.40943943643E+03  0.41554549946E+03  0.00000000000E+00 0. -1.
         13    1    3    3    0    0  0.74270982872E+02  0.23932130282E+02 -0.35425315776E+03  0.36274540044E+03  0.00000000000E+00 0. -1.
        -14    1    3    3    0    0  0.10758387782E+02 -0.27833982156E+02 -0.52132018239E+02  0.60068467568E+02  0.00000000000E+00 0.  1.
          5    1    4    4  501    0  0.52450518522E+02  0.99696989968E+01 -0.30129559141E+02  0.61446843087E+02  0.41800000000E+01 0.  1.
         -5    1    4    4    0  501 -0.54205898345E+02 -0.10717420922E+02  0.31350366758E+02  0.63666792148E+02  0.41800000000E+01 0.  1.
</event>
<event>
11    1  0.8041700E-009  0.1321023E+03  0.7561462E-02  0.1116713E+00
         22   -1    0    0    0    0  0.00000000000E+00  0.00000000000E+00  0.23834758379E+04  0.23834758379E+04  0.00000000000E+00 0. -1.
         22   -1    0    0    0    0 -0.00000000000E+00 -0.00000000000E+00 -0.17731561071E+03  0.17731561071E+03  0.00000000000E+00 0. -1.
        -24    2    1    2    0    0 -0.13680898587E+02 -0.20300734795E+02 -0.12808046350E+03  0.15272581925E+03  0.79506502348E+02 0.  0.
         25    2    1    2    0    0  0.12031849672E+02 -0.22664732095E+02  0.77279026294E+02  0.14925545897E+03  0.12508672448E+03 0.  0.
         24    2    1    2    0    0  0.16490489153E+01  0.42965466889E+02  0.22569616644E+04  0.22588101704E+04  0.80614394373E+02 0.  0.
        -13    1    5    5    0    0 -0.21141498342E+02 -0.13465288170E+02  0.35950138163E+03  0.36037413937E+03  0.00000000000E+00 0.  1.
         14    1    5    5    0    0  0.22790547258E+02  0.56430755059E+02  0.18974602827E+04  0.18984360310E+04  0.00000000000E+00 0. -1.
         11    1    3    3    0    0 -0.40637026077E+02  0.89629322085E+00 -0.10150673818E+03  0.10934253118E+03  0.00000000000E+00 0. -1.
        -12    1    3    3    0    0  0.26956127490E+02 -0.21197028016E+02 -0.26573725323E+02  0.43383288067E+02  0.00000000000E+00 0.  1.
          5    1    4    4  501    0  0.19524455328E+02 -0.72892482291E+02  0.36180514317E+02  0.83791529086E+02  0.41800000000E+01 0.  1.
         -5    1    4    4    0  501 -0.74926056559E+01  0.50227750196E+02  0.41098511977E+02  0.65463929885E+02  0.41800000000E+01 0.  1.
</event>
<event>
11    1  0.8041700E-009  0.1582155E+03  0.7561462E-02  0.1088768E+00
         22   -1    0    0    0    0  0.00000000000E+00  0.00000000000E+00  0.21542284172E+04  0.21542284172E+04  0.00000000000E+00 0.  1.
         22   -1    0    0    0    0 -0.00000000000E+00 -0.00000000000E+00 -0.14307087874E+03  0.14307087874E+03  0.00000000000E+00 0.  1.
         24    2    1    2    0    0  0.90255334573E+02  0.25824203690E+02 -0.91954842693E+02  0.15380093117E+03  0.79913193027E+02 0.  0.
         25    2    1    2    0    0 -0.13427889060E+03 -0.53467691876E+02  0.46741983686E+03  0.50499497362E+03  0.12509598299E+03 0.  0.
        -24    2    1    2    0    0  0.44023556024E+02  0.27643488186E+02  0.16356925443E+04  0.16385033911E+04  0.80628948826E+02 0.  0.
        -13    1    3    3    0    0  0.64369941709E+02  0.54702479546E+02 -0.61468835666E+02  0.10447137609E+03  0.00000000000E+00 0.  1.
         14    1    3    3    0    0  0.25885392864E+02 -0.28878275856E+02 -0.30486007027E+02  0.49329555082E+02  0.00000000000E+00 0. -1.
         13    1    5    5    0    0  0.21071667725E+02  0.42397987641E+02  0.44750235191E+03  0.44999995500E+03  0.00000000000E+00 0. -1.
        -14    1    5    5    0    0  0.22951888299E+02 -0.14754499455E+02  0.11881901924E+04  0.11885034361E+04  0.00000000000E+00 0.  1.
          5    1    4    4  501    0 -0.13910010324E+03 -0.32869060763E+02  0.46074124209E+03  0.48242012649E+03  0.41800000000E+01 0. -1.
         -5    1    4    4    0  501  0.48212126414E+01 -0.20598631113E+02  0.66785947662E+01  0.22574847134E+02  0.41800000000E+01 0. -1.
</event>
<event>
11    1  0.8041700E-009  0.2107078E+03  0.7561462E-02  0.1047200E+00
         22   -1    0    0    0    0  0.00000000000E+00  0.00000000000E+00  0.24244781974E+04  0.24244781974E+04  0.00000000000E+00 0.  1.
         22   -1    0    0    0    0 -0.00000000000E+00 -0.00000000000E+00 -0.92262491325E+03  0.92262491325E+03  0.00000000000E+00 0.  1.
        -24    2    1    2    0    0  0.63695656495E+02  0.15642310471E+03 -0.82138236343E+03  0.84246567403E+03  0.80957400008E+02 0.  0.
         25    2    1    2    0    0 -0.95399062880E+02 -0.15312445033E+03  0.44176216082E+02  0.22393625316E+03  0.12509128237E+03 0.  0.
         24    2    1    2    0    0  0.31703406385E+02 -0.32986543739E+01  0.22790594315E+04  0.22807011835E+04  0.80436365146E+02 0.  0.
        -11    1    5    5    0    0  0.35972588316E+02 -0.35781383125E+02  0.16602301181E+04  0.16610052317E+04  0.00000000000E+00 0.  1.
         12    1    5    5    0    0 -0.42691819309E+01  0.32482728751E+02  0.61882931340E+03  0.61969595183E+03  0.00000000000E+00 0. -1.
         11    1    3    3    0    0  0.56879233361E+02  0.85286351465E+02 -0.62778570570E+03  0.63610054333E+03  0.00000000000E+00 0. -1.
        -12    1    3    3    0    0  0.68164231344E+01  0.71136753241E+02 -0.19359665773E+03  0.20636513070E+03  0.00000000000E+00 0.  1.
          5    1    4    4  501    0 -0.61020505307E+02 -0.66258946794E+02  0.83118513720E+02  0.12263731007E+03  0.41800000000E+01 0. -1.
         -5    1    4    4    0  501 -0.34378557573E+02 -0.86865503537E+02 -0.38942297638E+02  0.10129894309E+03  0.41800000000E+01 0. -1.
</event>
<event>
11    1  0.8041700E-009  0.2023931E+03  0.7561462E-02  0.1052844E+00
         22   -1    0    0    0    0  0.00000000000E+00  0.00000000000E+00  0.53087568450E+03  0.53087568450E+03  0.00000000000E+00 0.  1.
         22   -1    0    0    0    0 -0.00000000000E+00 -0.00000000000E+00 -0.86472546828E+03  0.86472546828E+03  0.00000000000E+00 0.  1.
         24    2    1    2    0    0  0.23498054363E+02  0.79834723597E+02 -0.25528178873E+03  0.29077023696E+03  0.11159210274E+03 0.  0.
         25    2    1    2    0    0 -0.12985295574E+03  0.40100033066E+02 -0.56077682963E+03  0.59041319226E+03  0.12508909697E+03 0.  0.
        -24    2    1    2    0    0  0.10635490138E+03 -0.11993475666E+03  0.48220883457E+03  0.51441772357E+03  0.80028265491E+02 0.  0.
        -13    1    3    3    0    0  0.49280104030E+02  0.69283238411E+02 -0.92565021329E+02  0.12568603324E+03  0.00000000000E+00 0.  1.
         14    1    3    3    0    0 -0.25782049667E+02  0.10551485186E+02 -0.16271676740E+03  0.16508420372E+03  0.00000000000E+00 0. -1.
         11    1    5    5    0    0  0.76440867180E+02 -0.65964049288E+02  0.18390721896E+03  0.20980068437E+03  0.00000000000E+00 0. -1.
        -12    1    5    5    0    0  0.29914034197E+02 -0.53970707376E+02  0.29830161561E+03  0.30461703920E+03  0.00000000000E+00 0.  1.
          5    1    4    4  501    0 -0.12189205282E+03  0.46080231764E+02 -0.27404917549E+03  0.30348226190E+03  0.41800000000E+01 0.  1.
         -5    1    4    4    0  501 -0.79609029222E+01 -0.59801986983E+01 -0.28672765413E+03  0.28693093036E+03  0.41800000000E+01 0.  1.
</event>
<event>
11    1  0.8041700E-009  0.1471197E+03  0.7561462E-02  0.1099859E+00
         22   -1    0    0    0    0  0.00000000000E+00  0.00000000000E+00  0.38432363344E+03  0.38432363344E+03  0.00000000000E+00 0. -1.
         22   -1    0    0    0    0 -0.00000000000E+00 -0.00000000000E+00 -0.25407770078E+03  0.25407770078E+03  0.00000000000E+00 0. -1.
        -24    2    1    2    0    0  0.58734012271E+01 -0.20606476550E+02 -0.13297674618E+03  0.15688480182E+03  0.80441918792E+02 0.  0.
         25    2    1    2    0    0  0.45629407041E+02  0.77023828083E+02 -0.39524724381E+02  0.15882272578E+03  0.12509093296E+03 0.  0.
         24    2    1    2    0    0 -0.51502808268E+02 -0.56417351533E+02  0.30274740323E+03  0.32269380662E+03  0.81485249339E+02 0.  0.
        -11    1    5    5    0    0 -0.71088907827E+01  0.13791881707E+02  0.10168128397E+02  0.18551096040E+02  0.00000000000E+00 0.  1.
         12    1    5    5    0    0 -0.44393917485E+02 -0.70209233240E+02  0.29257927483E+03  0.30414271058E+03  0.00000000000E+00 0. -1.
         13    1    3    3    0    0 -0.83238210981E+01  0.17610357816E+02 -0.10651457018E+03  0.10828095105E+03  0.00000000000E+00 0. -1.
        -14    1    3    3    0    0  0.14197222325E+02 -0.38216834366E+02 -0.26462176003E+02  0.48603850769E+02  0.00000000000E+00 0.  1.
          5    1    4    4  501    0 -0.51016468764E+01 -0.16570073449E+02 -0.48724156831E+02  0.51885547061E+02  0.41800000000E+01 0.  1.
         -5    1    4    4    0  501  0.50731053917E+02  0.93593901532E+02  0.91994324500E+01  0.10693717872E+03  0.41800000000E+01 0.  1.
</event>
<event>
11    1  0.8041700E-009  0.1546382E+03  0.7561462E-02  0.1092231E+00
         22   -1    0    0    0    0  0.00000000000E+00  0.00000000000E+00  0.34401906453E+03  0.34401906453E+03  0.00000000000E+00 0.  1.
         22   -1    0    0    0    0 -0.00000000000E+00 -0.00000000000E+00 -0.16602572498E+04  0.16602572498E+04  0.00000000000E+00 0. -1.
         24    2    1    2    0    0  0.63110474017E+01 -0.54719701395E+01 -0.15810293976E+04  0.15839762189E+04  0.96212962707E+02 0.  0.
         25    2    1    2    0    0  0.21609354304E+02  0.91333601790E+02  0.34194333433E+02  0.16007762294E+03  0.12508717728E+03 0.  0.
        -24    2    1    2    0    0 -0.27920401705E+02 -0.85861631650E+02  0.23059687885E+03  0.26022247253E+03  0.79931508535E+02 0.  0.
        -13    1    3    3    0    0 -0.32176994567E+02 -0.34698475590E+02 -0.89176740564E+03  0.89302208761E+03  0.00000000000E+00 0.  1.
         14    1    3    3    0    0  0.38488041969E+02  0.29226505450E+02 -0.68926199196E+03  0.69095413129E+03  0.00000000000E+00 0. -1.
         11    1    5    5    0    0  0.18820326038E+02 -0.97515943171E+01  0.12650528971E+02  0.24684694593E+02  0.00000000000E+00 0. -1.
        -12    1    5    5    0    0 -0.46740727744E+02 -0.76110037333E+02  0.21794634988E+03  0.23553777794E+03  0.00000000000E+00 0.  1.
          5    1    4    4  501    0  0.61819296186E+02  0.35781139262E+02  0.52771066269E+02  0.88905416837E+02  0.41800000000E+01 0.  1.
         -5    1    4    4    0  501 -0.40209941883E+02  0.55552462528E+02 -0.18576732836E+02  0.71172206106E+02  0.41800000000E+01 0.  1.
</event>
<event>
11    1  0.8041700E-009  0.1313684E+03  0.7561462E-02  0.1117599E+00
         22   -1    0    0    0    0  0.00000000000E+00  0.00000000000E+00  0.51684772037E+02  0.51684772037E+02  0.00000000000E+00 0. -1.
         22   -1    0    0    0    0 -0.00000000000E+00 -0.00000000000E+00 -0.62768945722E+03  0.62768945722E+03  0.00000000000E+00 0. -1.
         24    2    1    2    0    0 -0.28264217939E+00  0.31713404782E+01 -0.36302576662E+03  0.37194854982E+03  0.80918966860E+02 0.  0.
         25    2    1    2    0    0 -0.27985270461E+02 -0.30634277858E+02 -0.14274473001E+03  0.19428087865E+03  0.12508943808E+03 0.  0.
        -24    2    1    2    0    0  0.28267912640E+02  0.27462937379E+02 -0.70234188563E+02  0.11314480080E+03  0.79470855598E+02 0.  0.
        -13    1    3    3    0    0 -0.36787254355E+02 -0.12117612385E+02 -0.13229637564E+03  0.13784944548E+03  0.00000000000E+00 0.  1.
         14    1    3    3    0    0  0.36504612175E+02  0.15288952863E+02 -0.23072939098E+03  0.23409910434E+03  0.00000000000E+00 0. -1.
         13    1    5    5    0    0 -0.13137962967E+02  0.42246020359E+02 -0.29231505137E+02  0.53026532978E+02  0.00000000000E+00 0. -1.
        -14    1    5    5    0    0  0.41405875608E+02 -0.14783082980E+02 -0.41002683426E+02  0.60118267818E+02  0.00000000000E+00 0.  1.
          5    1    4    4  501    0  0.31735672287E+02 -0.57545186687E+02 -0.78094823745E+02  0.10215123740E+03  0.41800000000E+01 0. -1.
         -5    1    4    4    0  501 -0.59720942748E+02  0.26910908829E+02 -0.64649906261E+02  0.92129641247E+02  0.41800000000E+01 0. -1.
</event>
<event>
11    1  0.8041700E-009  0.1860821E+03  0.7561462E-02  0.1064827E+00
         22   -1    0    0    0    0  0.00000000000E+00  0.00000000000E+00  0.18973826063E+04  0.18973826063E+04  0.00000000000E+00 0. -1.
         22   -1    0    0    0    0 -0.00000000000E+00 -0.00000000000E+00 -0.65435036539E+03  0.65435036539E+03  0.00000000000E+00 0. -1.
         24    2    1    2    0    0 -0.45640355106E+02 -0.12896749365E+03 -0.61052712561E+03  0.63092174076E+03  0.81260171206E+02 0.  0.
         25    2    1    2    0    0  0.12059532210E+03  0.14316085392E+03  0.37022419023E+03  0.43330306726E+03  0.12508930913E+03 0.  0.
        -24    2    1    2    0    0 -0.74954966994E+02 -0.14193360265E+02  0.14833351763E+04  0.14875081636E+04  0.81102362423E+02 0.  0.
        -11    1    3    3    0    0  0.19469785154E+02 -0.22205353675E+02 -0.18705973339E+03  0.18937659339E+03  0.00000000000E+00 0.  1.
         12    1    3    3    0    0 -0.65110140260E+02 -0.10676213998E+03 -0.42346739222E+03  0.44154514738E+03  0.00000000000E+00 0. -1.
         13    1    5    5    0    0 -0.83374478044E+02 -0.33566131984E+02  0.11524071256E+04  0.11559066450E+04  0.00000000000E+00 0. -1.
        -14    1    5    5    0    0  0.84195110499E+01  0.19372771719E+02  0.33092805067E+03  0.33160151865E+03  0.00000000000E+00 0.  1.
          5    1    4    4  501    0 -0.16682051882E+02  0.11778859405E+02  0.47752704667E+01  0.21384760740E+02  0.41800000000E+01 0. -1.
         -5    1    4    4    0  501  0.13727737398E+03  0.13138199451E+03  0.36544891976E+03  0.41191830652E+03  0.41800000000E+01 0. -1.
</event>
<event>
11    1  0.8041700E-009  0.1433770E+03  0.7561462E-02  0.1103845E+00
         22   -1    0    0    0    0  0.00000000000E+00  0.00000000000E+00  0.28042458750E+03  0.28042458750E+03  0.00000000000E+00 0.  1.
         22   -1    0    0    0    0 -0.00000000000E+00 -0.00000000000E+00 -0.13606077693E+04  0.13606077693E+04  0.00000000000E+00 0.  1.
        -24    2    1    2    0    0 -0.59356393678E+02  0.30740998335E+02 -0.11007064792E+04  0.11056823963E+04  0.80688398826E+02 0.  0.
         25    2    1    2    0    0  0.79833445196E+02 -0.76125481176E+02 -0.21958783836E+03  0.27574379795E+03  0.12508939001E+03 0.  0.
         24    2    1    2    0    0 -0.20477051518E+02  0.45384482841E+02  0.24011113571E+03  0.25960616259E+03  0.85222891523E+02 0.  0.
        -13    1    5    5    0    0  0.57183823027E+01  0.20487690165E+02  0.21391786285E+03  0.21497278291E+03  0.00000000000E+00 0.  1.
         14    1    5    5    0    0 -0.26195433821E+02  0.24896792676E+02  0.26193272862E+02  0.44633379682E+02  0.00000000000E+00 0. -1.
         13    1    3    3    0    0  0.19255917130E+02 -0.51393970083E+00 -0.26732294984E+03  0.26801607040E+03  0.00000000000E+00 0. -1.
        -14    1    3    3    0    0 -0.78612310808E+02  0.31254938036E+02 -0.83338352931E+03  0.83766632586E+03  0.00000000000E+00 0.  1.
          5    1    4    4  501    0  0.27036716723E+02 -0.40574942393E+02 -0.20439586464E+03  0.21017243369E+03  0.41800000000E+01 0. -1.
         -5    1    4    4    0  501  0.52796728473E+02 -0.35550538783E+02 -0.15191973728E+02  0.65571364260E+02  0.41800000000E+01 0. -1.
</event>
<event>
11    1  0.8041700E-009  0.1436065E+03  0.7561462E-02  0.1103597E+00
         22   -1    0    0    0    0  0.00000000000E+00  0.00000000000E+00  0.52301919227E+03  0.52301919227E+03  0.00000000000E+00 0. -1.
         22   -1    0    0    0    0 -0.00000000000E+00 -0.00000000000E+00 -0.13989425419E+04  0.13989425419E+04  0.00000000000E+00 0.  1.
        -24    2    1    2    0    0  0.48008648886E+02 -0.54847806962E+02 -0.12311237626E+04  0.12358805793E+04  0.80137225622E+02 0.  0.
         25    2    1    2    0    0 -0.50447741543E+02  0.11446163006E+02 -0.13338105072E+03  0.19004072272E+03  0.12509589252E+03 0.  0.
         24    2    1    2    0    0  0.24390926578E+01  0.43401643956E+02  0.48858146372E+03  0.49604043221E+03  0.73855343889E+02 0.  0.
        -13    1    5    5    0    0  0.20740716107E+02  0.57624967160E+02  0.31297858732E+03  0.31891442467E+03  0.00000000000E+00 0.  1.
         14    1    5    5    0    0 -0.18301623449E+02 -0.14223323204E+02  0.17560287641E+03  0.17712600754E+03  0.00000000000E+00 0. -1.
         11    1    3    3    0    0  0.32387471715E+02 -0.55762070275E+02 -0.44967922663E+03  0.45427938944E+03  0.00000000000E+00 0. -1.
        -12    1    3    3    0    0  0.15621177171E+02  0.91426331302E+00 -0.78144453601E+03  0.78160118981E+03  0.00000000000E+00 0.  1.
          5    1    4    4  501    0 -0.55960399791E+02 -0.49018405448E+02 -0.73392673184E+02  0.10458645847E+03  0.41800000000E+01 0.  1.
         -5    1    4    4    0  501  0.55126582477E+01  0.60464568453E+02 -0.59988377534E+02  0.85454264250E+02  0.41800000000E+01 0.  1.
</event>
<event>
11    1  0.8041700E-009  0.1606868E+03  0.7561462E-02  0.1086433E+00
         22   -1    0    0    0    0  0.00000000000E+00  0.00000000000E+00  0.13752839293E+03  0.13752839293E+03  0.00000000000E+00 0.  1.
         22   -1    0    0    0    0 -0.00000000000E+00 -0.00000000000E+00 -0.12829132061E+04  0.12829132061E+04  0.00000000000E+00 0.  1.
         24    2    1    2    0    0 -0.17268489031E+01  0.10449839960E+03 -0.11518025427E+04  0.11597296683E+04  0.86028534232E+02 0.  0.
         25    2    1    2    0    0  0.27634276100E+02 -0.53582616864E+02 -0.44837834005E+02  0.14591978490E+03  0.12508957679E+03 0.  0.
        -24    2    1    2    0    0 -0.25907427197E+02 -0.50915782732E+02  0.51255563449E+02  0.11479214588E+03  0.85360952763E+02 0.  0.
        -11    1    3    3    0    0 -0.32667692157E+02  0.43241753553E+02 -0.76257882091E+03  0.76450211606E+03  0.00000000000E+00 0.  1.
         12    1    3    3    0    0  0.30940843254E+02  0.61256646044E+02 -0.38922372175E+03  0.39522755223E+03  0.00000000000E+00 0. -1.
         13    1    5    5    0    0 -0.30059780625E+02 -0.63190321030E+00 -0.13284658588E+02  0.32870531889E+02  0.00000000000E+00 0. -1.
        -14    1    5    5    0    0  0.41523534277E+01 -0.50283879521E+02  0.64540222037E+02  0.81921613993E+02  0.00000000000E+00 0.  1.
          5    1    4    4  501    0 -0.21049144602E+02 -0.80335838955E+02 -0.26995503490E+02  0.87425071448E+02  0.41800000000E+01 0. -1.
         -5    1    4    4    0  501  0.48683420703E+02  0.26753222090E+02 -0.17842330516E+02  0.58494713451E+02  0.41800000000E+01 0. -1.
</event>
<event>
11    1  0.8041700E-009  0.1364158E+03  0.7561462E-02  0.1111628E+00
         22   -1    0    0    0    0  0.00000000000E+00  0.00000000000E+00  0.37970888142E+03  0.37970888142E+03  0.00000000000E+00 0.  1.
         22   -1    0    0    0    0 -0.00000000000E+00 -0.00000000000E+00 -0.98082685846E+03  0.98082685846E+03  0.00000000000E+00 0. -1.
         24    2    1    2    0    0 -0.22275972284E+02 -0.74723765265E+01 -0.92527460289E+03  0.92908797597E+03  0.80742312226E+02 0.  0.
         25    2    1    2    0    0 -0.25392909109E+01 -0.43855553323E+02  0.52772868382E+02  0.14269656863E+03  0.12509027742E+03 0.  0.
        -24    2    1    2    0    0  0.24815263195E+02  0.51327929849E+02  0.27138375748E+03  0.28875119528E+03  0.80484503370E+02 0.  0.
        -13    1    3    3    0    0  0.62128233812E+01  0.33502075825E+02 -0.35199805702E+03  0.35364335198E+03  0.00000000000E+00 0.  1.
         14    1    3    3    0    0 -0.28488795665E+02 -0.40974452352E+02 -0.57327654588E+03  0.57544462399E+03  0.00000000000E+00 0. -1.
         13    1    5    5    0    0  0.34143959945E+02  0.69440760255E+02  0.19775394901E+03  0.21235454678E+03  0.00000000000E+00 0. -1.
        -14    1    5    5    0    0 -0.93286967495E+01 -0.18112830406E+02  0.73629808462E+02  0.76396648503E+02  0.00000000000E+00 0.  1.
          5    1    4    4  501    0 -0.46231912453E+02  0.19936483068E+02  0.29241230720E+01  0.50605098379E+02  0.41800000000E+01 0.  1.
         -5    1    4    4    0  501  0.43692621543E+02 -0.63792036391E+02  0.49848745310E+02  0.92091470252E+02  0.41800000000E+01 0.  1.
</event>
<event>
11    1  0.8041700E-009  0.1520127E+03  0.7561462E-02  0.1094840E+00
         22   -1    0    0    0    0  0.00000000000E+00  0.00000000000E+00  0.15495543821E+04  0.15495543821E+04  0.00000000000E+00 0. -1.
         22   -1    0    0    0    0 -0.00000000000E+00 -0.00000000000E+00 -0.18804367245E+03  0.18804367245E+03  0.00000000000E+00 0. -1.
         24    2    1    2    0    0 -0.55926460505E+02  0.21912805488E+02 -0.14878293711E+03  0.17962126342E+03  0.80743395205E+02 0.  0.
         25    2    1    2    0    0  0.51596201185E+02 -0.10540768094E+03  0.33346986274E+03  0.37499708411E+03  0.12509083322E+03 0.  0.
        -24    2    1    2    0    0  0.43302593206E+01  0.83494875456E+02  0.11768237840E+04  0.11829797070E+04  0.86813727076E+02 0.  0.
        -13    1    3    3    0    0 -0.28023057665E+02  0.89051955398E+01 -0.18111935119E+01  0.29459713007E+02  0.00000000000E+00 0.  1.
         14    1    3    3    0    0 -0.27903402840E+02  0.13007609949E+02 -0.14697174360E+03  0.15016155042E+03  0.00000000000E+00 0. -1.
         13    1    5    5    0    0 -0.13481387076E+02  0.36856595779E+02  0.94623214426E+03  0.94704563104E+03  0.00000000000E+00 0. -1.
        -14    1    5    5    0    0  0.17811646397E+02  0.46638279677E+02  0.23059163979E+03  0.23593407600E+03  0.00000000000E+00 0.  1.
          5    1    4    4  501    0 -0.91709553169E+00 -0.44048357021E+02  0.26606027253E+03  0.26971585019E+03  0.41800000000E+01 0.  1.
         -5    1    4    4    0  501  0.52513296716E+02 -0.61359323924E+02  0.67409590203E+02  0.10528123392E+03  0.41800000000E+01 0.  1.
</event>
<event>
11    1  0.8041700E-009  0.2514467E+03  0.7561462E-02  0.1023131E+00
         22   -1    0    0    0    0  0.00000000000E+00  0.00000000000E+00  0.16624781942E+03  0.16624781942E+03  0.00000000000E+00 0. -1.
         22   -1    0    0    0    0 -0.00000000000E+00 -0.00000000000E+00 -0.10098466305E+04  0.10098466305E+04  0.00000000000E+00 0. -1.
         24    2    1    2    0    0 -0.37848194880E+02  0.20688735118E+03 -0.37461563912E+03  0.43689524403E+03  0.79408533852E+02 0.  0.
         25    2    1    2    0    0 -0.18676441643E+02 -0.22839069393E+03 -0.55050138265E+03  0.60926914547E+03  0.12508397492E+03 0.  0.
        -24    2    1    2    0    0  0.56524636523E+02  0.21503342751E+02  0.81518210720E+02  0.12993006038E+03  0.81112105305E+02 0.  0.
        -13    1    3    3    0    0 -0.31759202625E+02  0.32919985507E+02 -0.45159410819E+02  0.64278649509E+02  0.00000000000E+00 0.  1.
         14    1    3    3    0    0 -0.60889922542E+01  0.17396736567E+03 -0.32945622830E+03  0.37261659452E+03  0.00000000000E+00 0. -1.
         13    1    5    5    0    0  0.40532357352E+02 -0.41479864149E+01  0.89780373709E+02  0.98593069164E+02  0.00000000000E+00 0. -1.
        -14    1    5    5    0    0  0.15992279171E+02  0.25651329166E+02 -0.82621629887E+01  0.31336991213E+02  0.00000000000E+00 0.  1.
          5    1    4    4  501    0 -0.45285291357E+02 -0.12827120317E+03 -0.42621438482E+03  0.44741528070E+03  0.41800000000E+01 0.  1.
         -5    1    4    4    0  501  0.26608849714E+02 -0.10011949076E+03 -0.12428699782E+03  0.16185386477E+03  0.41800000000E+01 0.  1.
</event>
<event>
11    1  0.8041700E-009  0.1515450E+03  0.7561462E-02  0.1095310E+00
         22   -1    0    0    0    0  0.00000000000E+00  0.00000000000E+00  0.84280030149E+03  0.84280030149E+03  0.00000000000E+00 0. -1.
         22   -1    0    0    0    0 -0.00000000000E+00 -0.00000000000E+00 -0.56936693865E+03  0.56936693865E+03  0.00000000000E+00 0. -1.
        -24    2    1    2    0    0  0.78444829340E+02 -0.31261390838E+02 -0.50773452910E+03  0.52114650874E+03  0.81660674295E+02 0.  0.
         25    2    1    2    0    0 -0.10993825168E+03  0.14144299506E+02  0.81568558636E+02  0.18597643591E+03  0.12508926639E+03 0.  0.
         24    2    1    2    0    0  0.31493422338E+02  0.17117091332E+02  0.69959933330E+03  0.70504429549E+03  0.79770928105E+02 0.  0.
        -13    1    5    5    0    0 -0.22712813245E+02 -0.12042088032E+02  0.22821912504E+03  0.22966247583E+03  0.00000000000E+00 0.  1.
         14    1    5    5    0    0  0.54206235583E+02  0.29159179364E+02  0.47138020827E+03  0.47538181966E+03  0.00000000000E+00 0. -1.
         11    1    3    3    0    0  0.77383099964E+02 -0.39590907340E+02 -0.27830720345E+03  0.29156557341E+03  0.00000000000E+00 0. -1.
        -12    1    3    3    0    0  0.10617293762E+01  0.83295165018E+01 -0.22942732565E+03  0.22958093533E+03  0.00000000000E+00 0.  1.
          5    1    4    4  501    0 -0.58266337587E+02 -0.70482368203E+01 -0.26288755264E+02  0.64445440424E+02  0.41800000000E+01 0.  1.
         -5    1    4    4    0  501 -0.51671914091E+02  0.21192536326E+02  0.10785731390E+03  0.12153099549E+03  0.41800000000E+01 0.  1.
</event>
<event>
11    1  0.8041700E-009  0.1279103E+03  0.7561462E-02  0.1121864E+00
         22   -1    0    0    0    0  0.00000000000E+00  0.00000000000E+00  0.17595492579E+03  0.17595492579E+03  0.00000000000E+00 0.  1.
         22   -1    0    0    0    0 -0.00000000000E+00 -0.00000000000E+00 -0.32700606263E+03  0.32700606263E+03  0.00000000000E+00 0.  1.
        -24    2    1    2    0    0 -0.10310088813E+02 -0.73720271050E+01 -0.22697052953E+03  0.24108972972E+03  0.80299388438E+02 0.  0.
         25    2    1    2    0    0 -0.11782393297E+01 -0.18672841154E+02 -0.26357735424E+02  0.12920028378E+03  0.12509164587E+03 0.  0.
         24    2    1    2    0    0  0.11488328142E+02  0.26044868259E+02  0.10227712812E+03  0.13267097492E+03  0.79565443525E+02 0.  0.
        -11    1    5    5    0    0  0.12989625986E+02  0.24621306300E+02  0.11574477681E+03  0.11904533786E+03  0.00000000000E+00 0.  1.
         12    1    5    5    0    0 -0.15012978437E+01  0.14235619591E+01 -0.13467648694E+02  0.13625637057E+02  0.00000000000E+00 0. -1.
         13    1    3    3    0    0 -0.82772848910E+01  0.19839152202E+02 -0.12451927056E+02  0.24842622500E+02  0.00000000000E+00 0. -1.
        -14    1    3    3    0    0 -0.20328039218E+01 -0.27211179307E+02 -0.21451860248E+03  0.21624710722E+03  0.00000000000E+00 0.  1.
          5    1    4    4  501    0  0.24767744788E+01 -0.54379447064E+02 -0.59084899425E+02  0.80447227515E+02  0.41800000000E+01 0.  1.
         -5    1    4    4    0  501 -0.36550138085E+01  0.35706605910E+02  0.32727164000E+02  0.48753056263E+02  0.41800000000E+01 0.  1.
</event>
<event>
11    1  0.8041700E-009  0.1833111E+03  0.7561462E-02  0.1066996E+00
         22   -1    0    0    0    0  0.00000000000E+00  0.00000000000E+00  0.87352520063E+03  0.87352520063E+03  0.00000000000E+00 0. -1.
         22   -1    0    0    0    0 -0.00000000000E+00 -0.00000000000E+00 -0.31243629982E+03  0.31243629982E+03  0.00000000000E+00 0. -1.
        -24    2    1    2    0    0  0.67581650999E+01  0.26851024196E+02 -0.25872035020E+03  0.27220767502E+03  0.79963419350E+02 0.  0.
         25    2    1    2    0    0  0.55847222251E+02  0.97806677608E+02  0.15201458080E+03  0.22680973137E+03  0.12509661486E+03 0.  0.
         24    2    1    2    0    0 -0.62605387351E+02 -0.12465770180E+03  0.66779467022E+03  0.68694409406E+03  0.80520119519E+02 0.  0.
        -11    1    5    5    0    0 -0.22763004550E+02  0.53280646199E+00  0.19196651139E+03  0.19331213039E+03  0.00000000000E+00 0.  1.
         12    1    5    5    0    0 -0.39842382800E+02 -0.12519050827E+03  0.47582815883E+03  0.49363196367E+03  0.00000000000E+00 0. -1.
         11    1    3    3    0    0 -0.77198600467E+00  0.33868514710E+01 -0.24289741852E+03  0.24292225639E+03  0.00000000000E+00 0. -1.
        -12    1    3    3    0    0  0.75301511045E+01  0.23464172725E+02 -0.15822931683E+02  0.29285418631E+02  0.00000000000E+00 0.  1.
          5    1    4    4  501    0  0.53941505510E+02  0.24904571218E+02  0.14083641081E+03  0.15291268977E+03  0.41800000000E+01 0.  1.
         -5    1    4    4    0  501  0.19057167413E+01  0.72902106391E+02  0.11178169992E+02  0.73897041598E+02  0.41800000000E+01 0.  1.
</event>
<event>
11    1  0.8041700E-009  0.1542476E+03  0.7561462E-02  0.1092616E+00
         22   -1    0    0    0    0  0.00000000000E+00  0.00000000000E+00  0.10885765023E+04  0.10885765023E+04  0.00000000000E+00 0. -1.
         22   -1    0    0    0    0 -0.00000000000E+00 -0.00000000000E+00 -0.37197039523E+03  0.37197039523E+03  0.00000000000E+00 0. -1.
         24    2    1    2    0    0  0.70164210693E+02  0.67499254866E+02 -0.30261152756E+03  0.32804186672E+03  0.80984960562E+02 0.  0.
         25    2    1    2    0    0 -0.45719963936E+02 -0.16037376395E+02  0.28002110875E+02  0.13701326912E+03  0.12506400425E+03 0.  0.
        -24    2    1    2    0    0 -0.24444246757E+02 -0.51461878471E+02  0.99121552375E+03  0.99549176168E+03  0.72455413258E+02 0.  0.
        -11    1    3    3    0    0 -0.74499232934E+01  0.38637649331E+02 -0.14185623117E+03  0.14721263406E+03  0.00000000000E+00 0.  1.
         12    1    3    3    0    0  0.77614133987E+02  0.28861605535E+02 -0.16075529639E+03  0.18082923266E+03  0.00000000000E+00 0. -1.
         13    1    5    5    0    0  0.34633625794E+01 -0.56255904209E+02  0.82141092425E+03  0.82334235171E+03  0.00000000000E+00 0. -1.
        -14    1    5    5    0    0 -0.27907609336E+02  0.47940257386E+01  0.16980459950E+03  0.17214940997E+03  0.00000000000E+00 0.  1.
          5    1    4    4  501    0 -0.65307235382E+01  0.52095377236E+02  0.24856389019E+02  0.58239944663E+02  0.41800000000E+01 0. -1.
         -5    1    4    4    0  501 -0.39189240398E+02 -0.68132753631E+02  0.31457218563E+01  0.78773324459E+02  0.41800000000E+01 0. -1.
</event>
<event>
11    1  0.8041700E-009  0.1270992E+03  0.7561462E-02  0.1122885E+00
         22   -1    0    0    0    0  0.00000000000E+00  0.00000000000E+00  0.10223469666E+04  0.10223469666E+04  0.00000000000E+00 0.  1.
         22   -1    0    0    0    0 -0.00000000000E+00 -0.00000000000E+00 -0.15614039264E+03  0.15614039264E+03  0.00000000000E+00 0.  1.
        -24    2    1    2    0    0 -0.31181505413E+02  0.32604868145E+02 -0.11264285944E+03  0.14295382516E+03  0.75577897825E+02 0.  0.
         25    2    1    2    0    0  0.47540916282E+02 -0.17930586321E+02  0.15168068769E+03  0.20306702083E+03  0.12509012464E+03 0.  0.
         24    2    1    2    0    0 -0.16359410869E+02 -0.14674281824E+02  0.82716874572E+03  0.83246651326E+03  0.91155893628E+02 0.  0.
        -13    1    5    5    0    0  0.14063027784E+02  0.25725465201E+02  0.54593831242E+03  0.54672498505E+03  0.00000000000E+00 0.  1.
         14    1    5    5    0    0 -0.30422438653E+02 -0.40399747025E+02  0.28123043329E+03  0.28574152821E+03  0.00000000000E+00 0. -1.
         11    1    3    3    0    0 -0.97640345218E+01  0.16126511046E+02  0.71412908139E+01  0.20159334392E+02  0.00000000000E+00 0. -1.
        -12    1    3    3    0    0 -0.21417470891E+02  0.16478357099E+02 -0.11978415025E+03  0.12279449077E+03  0.00000000000E+00 0.  1.
          5    1    4    4  501    0  0.79563069453E+02  0.21442086338E+02  0.10845715868E+03  0.13627352185E+03  0.41800000000E+01 0. -1.
         -5    1    4    4    0  501 -0.32022153171E+02 -0.39372672659E+02  0.43223529009E+02  0.66793498980E+02  0.41800000000E+01 0. -1.
</event>
<event>
11    1  0.8041700E-009  0.1269171E+03  0.7561462E-02  0.1123116E+00
         22   -1    0    0    0    0  0.00000000000E+00  0.00000000000E+00  0.33491911879E+03  0.33491911879E+03  0.00000000000E+00 0.  1.
         22   -1    0    0    0    0 -0.00000000000E+00 -0.00000000000E+00 -0.11968827558E+03  0.11968827558E+03  0.00000000000E+00 0.  1.
        -24    2    1    2    0    0  0.77948807721E-01  0.22960427028E+02 -0.57726747887E+02  0.97709643629E+02  0.75416243284E+02 0.  0.
         25    2    1    2    0    0  0.14749114403E+02 -0.12391900977E+02  0.77278398086E+02  0.14828930952E+03  0.12508666164E+03 0.  0.
         24    2    1    2    0    0 -0.14827063211E+02 -0.10568526050E+02  0.19567919302E+03  0.20860844123E+03  0.69968561687E+02 0.  0.
        -13    1    5    5    0    0  0.12410365080E+02 -0.22522391585E+02  0.26846062712E+02  0.37175077233E+02  0.00000000000E+00 0.  1.
         14    1    5    5    0    0 -0.27237428292E+02  0.11953865535E+02  0.16883313030E+03  0.17143336399E+03  0.00000000000E+00 0. -1.
         11    1    3    3    0    0 -0.20613704220E+02 -0.10408634684E+02  0.50755058035E+01  0.23643714531E+02  0.00000000000E+00 0. -1.
        -12    1    3    3    0    0  0.20691653027E+02  0.33369061712E+02 -0.62802253690E+02  0.74065929098E+02  0.00000000000E+00 0.  1.
          5    1    4    4  501    0  0.33669943727E+02  0.48226269911E+02  0.55637372321E+02  0.81070511401E+02  0.41800000000E+01 0.  1.
         -5    1    4    4    0  501 -0.18920829324E+02 -0.60618170888E+02  0.21641025765E+02  0.67218798117E+02  0.41800000000E+01 0.  1.
</event>
<event>
11    1  0.8041700E-009  0.1292793E+03  0.7561462E-02  0.1120158E+00
         22   -1    0    0    0    0  0.00000000000E+00  0.00000000000E+00  0.17055183074E+03  0.17055183074E+03  0.00000000000E+00 0.  1.
         22   -1    0    0    0    0 -0.00000000000E+00 -0.00000000000E+00 -0.79693214761E+03  0.79693214761E+03  0.00000000000E+00 0. -1.
         24    2    1    2    0    0 -0.17342994276E+02  0.28225866142E+02 -0.71627099353E+03  0.72117054762E+03  0.77106054318E+02 0.  0.
         25    2    1    2    0    0  0.11369218205E+02 -0.16780306512E+02 -0.10564479845E+00  0.12672038879E+03  0.12508880032E+03 0.  0.
        -24    2    1    2    0    0  0.59737760708E+01 -0.11445559630E+02  0.89996321461E+02  0.11959304194E+03  0.77694729345E+02 0.  0.
        -13    1    3    3    0    0 -0.34606994053E+02 -0.14327750121E+02 -0.28147366238E+03  0.28395483985E+03  0.00000000000E+00 0.  1.
         14    1    3    3    0    0  0.17263999778E+02  0.42553616263E+02 -0.43479733115E+03  0.43721570777E+03  0.00000000000E+00 0. -1.
         13    1    5    5    0    0  0.11199230308E+02 -0.10876790620E+02 -0.10593085800E+02  0.18866393413E+02  0.00000000000E+00 0. -1.
        -14    1    5    5    0    0 -0.52254542369E+01 -0.56876901009E+00  0.10058940726E+03  0.10072664853E+03  0.00000000000E+00 0.  1.
          5    1    4    4  501    0  0.38174730301E+02 -0.18994800842E+02 -0.52448415719E+02  0.67723121636E+02  0.41800000000E+01 0. -1.
         -5    1    4    4    0  501 -0.26805512097E+02  0.22144943300E+01  0.52342770921E+02  0.58997267153E+02  0.41800000000E+01 0. -1.
</event>
<event>
11    1  0.8041700E-009  0.2537391E+03  0.7561462E-02  0.1021926E+00
         22   -1    0    0    0    0  0.00000000000E+00  0.00000000000E+00  0.71849213849E+03  0.71849213849E+03  0.00000000000E+00 0.  1.
         22   -1    0    0    0    0 -0.00000000000E+00 -0.00000000000E+00 -0.58446890079E+03  0.58446890079E+03  0.00000000000E+00 0.  1.
        -24    2    1    2    0    0  0.36539305429E+02 -0.21551439602E+03 -0.49600631904E+03  0.54806117780E+03  0.81038326453E+02 0.  0.
         25    2    1    2    0    0 -0.32424497584E+02  0.24735850848E+03  0.28449808416E+03  0.39852584069E+03  0.12508439571E+03 0.  0.
         24    2    1    2    0    0 -0.41148078453E+01 -0.31844112456E+02  0.34553147257E+03  0.35637402078E+03  0.81113901441E+02 0.  0.
        -13    1    5    5    0    0  0.11684970048E+02  0.11404908609E+02  0.24781816449E+03  0.24835549746E+03  0.00000000000E+00 0.  1.
         14    1    5    5    0    0 -0.15799777893E+02 -0.43249021065E+02  0.97713308078E+02  0.10801852332E+03  0.00000000000E+00 0. -1.
         13    1    3    3    0    0  0.94743479732E+01 -0.48860998356E+02 -0.47382503615E+02  0.68718717091E+02  0.00000000000E+00 0. -1.
        -14    1    3    3    0    0  0.27064957456E+02 -0.16665339766E+03 -0.44862381542E+03  0.47934246071E+03  0.00000000000E+00 0.  1.
          5    1    4    4  501    0 -0.37331600157E+02  0.22752382064E+03  0.29559132941E+03  0.37490324585E+03  0.41800000000E+01 0. -1.
         -5    1    4    4    0  501  0.49071025732E+01  0.19834687832E+02 -0.11093245243E+02  0.23622594842E+02  0.41800000000E+01 0. -1.
</event>
<event>
11    1  0.8041700E-009  0.1540177E+03  0.7561462E-02  0.1092843E+00
         22   -1    0    0    0    0  0.00000000000E+00  0.00000000000E+00  0.88963538407E+02  0.88963538407E+02  0.00000000000E+00 0. -1.
         22   -1    0    0    0    0 -0.00000000000E+00 -0.00000000000E+00 -0.62285876499E+03  0.62285876499E+03  0.00000000000E+00 0. -1.
         24    2    1    2    0    0  0.33021078815E+02 -0.50978651694E+01 -0.34857298504E+03  0.35864932090E+03  0.77523090816E+02 0.  0.
         25    2    1    2    0    0 -0.10240233368E+03 -0.41137413928E+02 -0.16587278544E+03  0.23524661438E+03  0.12509461963E+03 0.  0.
        -24    2    1    2    0    0  0.69381254861E+02  0.46235279097E+02 -0.19449456102E+02  0.11792636811E+03  0.81098011036E+02 0.  0.
        -11    1    3    3    0    0 -0.11852384929E+01 -0.28043639107E+02 -0.50779590356E+02  0.58020834891E+02  0.00000000000E+00 0.  1.
         12    1    3    3    0    0  0.34206317308E+02  0.22945773938E+02 -0.29779339468E+03  0.30062848601E+03  0.00000000000E+00 0. -1.
         13    1    5    5    0    0  0.12195522448E+02 -0.18683826796E+02  0.12651007472E+02  0.25648862384E+02  0.00000000000E+00 0. -1.
        -14    1    5    5    0    0  0.57185732413E+02  0.64919105894E+02 -0.32100463574E+02  0.92277505728E+02  0.00000000000E+00 0.  1.
          5    1    4    4  501    0 -0.36507320262E+02 -0.35948110716E+02  0.53283259151E+01  0.51680891573E+02  0.41800000000E+01 0. -1.
         -5    1    4    4    0  501 -0.65895013414E+02 -0.51893032122E+01 -0.17120111136E+03  0.18356572281E+03  0.41800000000E+01 0. -1.
</event>
<event>
11    1  0.8041700E-009  0.1447103E+03  0.7561462E-02  0.1102410E+00
         22   -1    0    0    0    0  0.00000000000E+00  0.00000000000E+00  0.30890198095E+04  0.30890198095E+04  0.00000000000E+00 0. -1.
         22   -1    0    0    0    0 -0.00000000000E+00 -0.00000000000E+00 -0.58127824453E+02  0.58127824453E+02  0.00000000000E+00 0. -1.
         24    2    1    2    0    0  0.19277105170E+01 -0.58929084187E+02 -0.81295631647E+00  0.10062130263E+03  0.81533015480E+02 0.  0.
         25    2    1    2    0    0 -0.10378667169E+02  0.11697064287E+03  0.13019116378E+04  0.13131680078E+04  0.12508579423E+03 0.  0.
        -24    2    1    2    0    0  0.84509566523E+01 -0.58041558679E+02  0.17297933036E+04  0.17333583236E+04  0.94371413345E+02 0.  0.
        -13    1    3    3    0    0  0.19940767996E+02 -0.35969436926E+02  0.35294535420E+02  0.54195376662E+02  0.00000000000E+00 0.  1.
         14    1    3    3    0    0 -0.18013057479E+02 -0.22959647261E+02 -0.36107491736E+02  0.46425925964E+02  0.00000000000E+00 0. -1.
         13    1    5    5    0    0 -0.21801759913E+02 -0.46778828015E+02  0.41885329691E+03  0.42202092344E+03  0.00000000000E+00 0. -1.
        -14    1    5    5    0    0  0.30252716565E+02 -0.11262730664E+02  0.13109400067E+04  0.13113374001E+04  0.00000000000E+00 0.  1.
          5    1    4    4  501    0  0.57189732229E+02  0.54444571603E+02  0.64283663749E+03  0.64768147399E+03  0.41800000000E+01 0. -1.
         -5    1    4    4    0  501 -0.67568399398E+02  0.62526071263E+02  0.65907500031E+03  0.66548653376E+03  0.41800000000E+01 0. -1.
</event>
<event>
11    1  0.8041700E-009  0.2149403E+03  0.7561462E-02  0.1044434E+00
         22   -1    0    0    0    0  0.00000000000E+00  0.00000000000E+00  0.24283952296E+03  0.24283952296E+03  0.00000000000E+00 0. -1.
         22   -1    0    0    0    0 -0.00000000000E+00 -0.00000000000E+00 -0.12048451630E+04  0.12048451630E+04  0.00000000000E+00 0.  1.
        -24    2    1    2    0    0 -0.34360877793E+02 -0.37397928436E+02 -0.99374810178E+03  0.99822940892E+03  0.79670496771E+02 0.  0.
         25    2    1    2    0    0  0.19228415196E+03 -0.23285565486E+02 -0.63792561199E+02  0.23923644727E+03  0.12509665936E+03 0.  0.
         24    2    1    2    0    0 -0.15792327416E+03  0.60683493922E+02  0.95535022938E+02  0.21021882978E+03  0.80266860097E+02 0.  0.
        -13    1    5    5    0    0 -0.61118903097E+00  0.25498947114E+02  0.18810648623E+02  0.31692433759E+02  0.00000000000E+00 0.  1.
         14    1    5    5    0    0 -0.15731208513E+03  0.35184546808E+02  0.76724374314E+02  0.17852639602E+03  0.00000000000E+00 0. -1.
         13    1    3    3    0    0  0.90762205096E+00 -0.47999243214E+02 -0.33151007362E+03  0.33496817765E+03  0.00000000000E+00 0. -1.
        -14    1    3    3    0    0 -0.35268499844E+02  0.10601314778E+02 -0.66223802816E+03  0.66326123126E+03  0.00000000000E+00 0.  1.
          5    1    4    4  501    0  0.79051627436E+02 -0.44712661686E+02  0.24314831565E+02  0.94111983028E+02  0.41800000000E+01 0.  1.
         -5    1    4    4    0  501  0.11323252452E+03  0.21427096200E+02 -0.88107392763E+02  0.14512446424E+03  0.41800000000E+01 0.  1.
</event>
<event>
11    1  0.8041700E-009  0.1633394E+03  0.7561462E-02  0.1083978E+00
         22   -1    0    0    0    0  0.00000000000E+00  0.00000000000E+00  0.17460279082E+04  0.17460279082E+04  0.00000000000E+00 0.  1.
         22   -1    0    0    0    0 -0.00000000000E+00 -0.00000000000E+00 -0.83179770740E+03  0.83179770740E+03  0.00000000000E+00 0.  1.
         24    2    1    2    0    0  0.10422388073E+03  0.34666747378E+01 -0.75551366664E+03  0.76737564844E+03  0.84792984323E+02 0.  0.
         25    2    1    2    0    0 -0.11946890124E+03  0.16142992143E+02  0.39604948166E+02  0.17818055874E+03  0.12508535099E+03 0.  0.
        -24    2    1    2    0    0  0.15245020513E+02 -0.19609666881E+02  0.16301389192E+04  0.16322694084E+04  0.79583766164E+02 0.  0.
        -13    1    3    3    0    0  0.11297805692E+03 -0.37459768028E+01 -0.73732646588E+03  0.74594127851E+03  0.00000000000E+00 0.  1.
         14    1    3    3    0    0 -0.87541761926E+01  0.72126515406E+01 -0.18187200756E+02  0.21434369932E+02  0.00000000000E+00 0. -1.
         11    1    5    5    0    0 -0.12055562268E+01 -0.13269851997E+02  0.42657477535E+02  0.44690074150E+02  0.00000000000E+00 0. -1.
        -12    1    5    5    0    0  0.16450576739E+02 -0.63398148840E+01  0.15874814417E+04  0.15875793342E+04  0.00000000000E+00 0.  1.
          5    1    4    4  501    0 -0.34526051102E+02 -0.24835227046E+01  0.76155623649E+02  0.83757790701E+02  0.41800000000E+01 0.  1.
         -5    1    4    4    0  501 -0.84942850142E+02  0.18626514848E+02 -0.36550675483E+02  0.94422768038E+02  0.41800000000E+01 0.  1.
</event>
<event>
11    1  0.8041700E-009  0.1768111E+03  0.7561462E-02  0.1072252E+00
         22   -1    0    0    0    0  0.00000000000E+00  0.00000000000E+00  0.79440460767E+03  0.79440460767E+03  0.00000000000E+00 0. -1.
         22   -1    0    0    0    0 -0.00000000000E+00 -0.00000000000E+00 -0.35024710852E+03  0.35024710852E+03  0.00000000000E+00 0.  1.
         24    2    1    2    0    0  0.10661028297E+03 -0.43178933461E+02 -0.19763548882E+03  0.24194140184E+03  0.79029632122E+02 0.  0.
         25    2    1    2    0    0 -0.12846406454E+03  0.11644966003E+03 -0.35745508547E+02  0.21676439934E+03  0.12508207002E+03 0.  0.
        -24    2    1    2    0    0  0.21853781567E+02 -0.73270726568E+02  0.67753849652E+03  0.68594591501E+03  0.74947961306E+02 0.  0.
        -11    1    3    3    0    0  0.82557777121E+02 -0.64901507151E+02 -0.16743154017E+03  0.19763935043E+03  0.00000000000E+00 0.  1.
         12    1    3    3    0    0  0.24052505850E+02  0.21722573690E+02 -0.30203948656E+02  0.44302051417E+02  0.00000000000E+00 0. -1.
         11    1    5    5    0    0  0.43157734719E+02 -0.17132938872E+02  0.33157216643E+03  0.33480774962E+03  0.00000000000E+00 0. -1.
        -12    1    5    5    0    0 -0.21303953152E+02 -0.56137787696E+02  0.34596633010E+03  0.35113816538E+03  0.00000000000E+00 0.  1.
          5    1    4    4  501    0  0.12487846467E+02  0.60722340669E+02 -0.85648602307E+01  0.62721433310E+02  0.41800000000E+01 0. -1.
         -5    1    4    4    0  501 -0.14095191101E+03  0.55727319361E+02 -0.27180648316E+02  0.15404296603E+03  0.41800000000E+01 0. -1.
</event>
<event>
11    1  0.8041700E-009  0.1500207E+03  0.7561462E-02  0.1096858E+00
         22   -1    0    0    0    0  0.00000000000E+00  0.00000000000E+00  0.61976923406E+03  0.61976923406E+03  0.00000000000E+00 0. -1.
         22   -1    0    0    0    0 -0.00000000000E+00 -0.00000000000E+00 -0.23366221353E+03  0.23366221353E+03  0.00000000000E+00 0. -1.
         24    2    1    2    0    0  0.43067447290E+02  0.29900671814E+02 -0.17917045808E+03  0.20226919828E+03  0.77858335010E+02 0.  0.
         25    2    1    2    0    0 -0.10654599901E+03 -0.67021706656E+02  0.18758844693E+03  0.25822601910E+03  0.12508913802E+03 0.  0.
        -24    2    1    2    0    0  0.63478551720E+02  0.37121034841E+02  0.37768903169E+03  0.39293623021E+03  0.79639051971E+02 0.  0.
        -13    1    3    3    0    0 -0.46211268020E+01  0.16539178621E+02 -0.84396692061E+00  0.17193356931E+02  0.00000000000E+00 0.  1.
         14    1    3    3    0    0  0.47688574092E+02  0.13361493193E+02 -0.17832649116E+03  0.18507584135E+03  0.00000000000E+00 0. -1.
         11    1    5    5    0    0  0.43319123790E+02  0.51186240837E+02  0.34795321050E+03  0.35435577381E+03  0.00000000000E+00 0. -1.
        -12    1    5    5    0    0  0.20159427930E+02 -0.14065205996E+02  0.29735821186E+02  0.38580456397E+02  0.00000000000E+00 0.  1.
          5    1    4    4  501    0 -0.12804466898E+03 -0.36883521947E+02  0.17254394898E+03  0.21804751357E+03  0.41800000000E+01 0. -1.
         -5    1    4    4    0  501  0.21498669968E+02 -0.30138184708E+02  0.15044497951E+02  0.40178505528E+02  0.41800000000E+01 0. -1.
</event>
<event>
11    1  0.8041700E-009  0.1459948E+03  0.7561462E-02  0.1101043E+00
         22   -1    0    0    0    0  0.00000000000E+00  0.00000000000E+00  0.10205644845E+04  0.10205644845E+04  0.00000000000E+00 0. -1.
         22   -1    0    0    0    0 -0.00000000000E+00 -0.00000000000E+00 -0.21451468267E+04  0.21451468267E+04  0.00000000000E+00 0.  1.
        -24    2    1    2    0    0 -0.22069184597E+02  0.68920675171E+02 -0.18673895860E+04  0.18704403176E+04  0.78523927385E+02 0.  0.
         25    2    1    2    0    0  0.15158963586E+02 -0.13815925729E+03 -0.24186960635E+03  0.30571993237E+03  0.12508395589E+03 0.  0.
         24    2    1    2    0    0  0.69102210110E+01  0.69238582122E+02  0.98467685018E+03  0.98955106126E+03  0.69145290070E+02 0.  0.
        -11    1    5    5    0    0 -0.13098706942E+02  0.23732028864E+01  0.37255712165E+02  0.39562561904E+02  0.00000000000E+00 0.  1.
         12    1    5    5    0    0  0.20008927953E+02  0.66865379236E+02  0.94742113802E+03  0.94998849935E+03  0.00000000000E+00 0. -1.
         13    1    3    3    0    0  0.44770545343E+01 -0.16144308923E+02 -0.21635108185E+03  0.21699878651E+03  0.00000000000E+00 0. -1.
        -14    1    3    3    0    0 -0.26546239131E+02  0.85064984094E+02 -0.16510385042E+04  0.16534415311E+04  0.00000000000E+00 0.  1.
          5    1    4    4  501    0  0.35721072783E+02 -0.41570309506E+02 -0.18209164744E+03  0.19020758697E+03  0.41800000000E+01 0.  1.
         -5    1    4    4    0  501 -0.20562109196E+02 -0.96588947787E+02 -0.59777958910E+02  0.11551234540E+03  0.41800000000E+01 0.  1.
</event>
<event>
11    1  0.8041700E-009  0.1872285E+03  0.7561462E-02  0.1063941E+00
         22   -1    0    0    0    0  0.00000000000E+00  0.00000000000E+00  0.10629585286E+04  0.10629585286E+04  0.00000000000E+00 0. -1.
         22   -1    0    0    0    0 -0.00000000000E+00 -0.00000000000E+00 -0.13293300318E+03  0.13293300318E+03  0.00000000000E+00 0. -1.
         24    2    1    2    0    0  0.10761346560E+03 -0.81089641263E+02 -0.32891269589E+02  0.16207301879E+03  0.83842947865E+02 0.  0.
         25    2    1    2    0    0 -0.13039249314E+03  0.95812537876E+02  0.28537716431E+03  0.35109787188E+03  0.12508934825E+03 0.  0.
        -24    2    1    2    0    0  0.22779027547E+02 -0.14722896613E+02  0.67753963074E+03  0.68272064115E+03  0.79447308633E+02 0.  0.
        -13    1    3    3    0    0  0.48904572339E+02  0.13455631907E+01  0.13487017128E+02  0.50748077471E+02  0.00000000000E+00 0.  1.
         14    1    3    3    0    0  0.58708893256E+02 -0.82435204454E+02 -0.46378286718E+02  0.11132494132E+03  0.00000000000E+00 0. -1.
         11    1    5    5    0    0  0.26050996204E+02 -0.43255022164E+02  0.53085258759E+03  0.53324864847E+03  0.00000000000E+00 0. -1.
        -12    1    5    5    0    0 -0.32719686570E+01  0.28532125551E+02  0.14668704315E+03  0.14947199268E+03  0.00000000000E+00 0.  1.
          5    1    4    4  501    0 -0.20327486489E+02 -0.30457154756E+02  0.47140704995E+02  0.59837809537E+02  0.41800000000E+01 0.  1.
         -5    1    4    4    0  501 -0.11006500665E+03  0.12626969263E+03  0.23823645932E+03  0.29126006234E+03  0.41800000000E+01 0.  1.
</event>
<event>
11    1  0.8041700E-009  0.1298744E+03  0.7561462E-02  0.1119423E+00
         22   -1    0    0    0    0  0.00000000000E+00  0.00000000000E+00  0.40849557355E+03  0.40849557355E+03  0.00000000000E+00 0. -1.
         22   -1    0    0    0    0 -0.00000000000E+00 -0.00000000000E+00 -0.13601491923E+03  0.13601491923E+03  0.00000000000E+00 0. -1.
         24    2    1    2    0    0 -0.38150461568E+01  0.14426675064E+02 -0.68262695794E+02  0.10619513949E+03  0.79968296736E+02 0.  0.
         25    2    1    2    0    0  0.36231274122E+02 -0.23913090084E+02  0.62820377871E+02  0.14655765594E+03  0.12509278771E+03 0.  0.
        -24    2    1    2    0    0 -0.32416227965E+02  0.94864150200E+01  0.27792297224E+03  0.29175769736E+03  0.82100983944E+02 0.  0.
        -13    1    3    3    0    0  0.19637459759E+02 -0.16754814210E+02  0.19316939995E+01  0.25886001366E+02  0.00000000000E+00 0.  1.
         14    1    3    3    0    0 -0.23452505916E+02  0.31181489274E+02 -0.70194389794E+02  0.80309138120E+02  0.00000000000E+00 0. -1.
         11    1    5    5    0    0 -0.49711016523E+02  0.28844858024E+02  0.23192652923E+03  0.23894167899E+03  0.00000000000E+00 0. -1.
        -12    1    5    5    0    0  0.17294788558E+02 -0.19358443004E+02  0.45996443012E+02  0.52816018371E+02  0.00000000000E+00 0.  1.
          5    1    4    4  501    0  0.65707355846E+02  0.68219135363E+01  0.76943404276E+02  0.10149756144E+03  0.41800000000E+01 0. -1.
         -5    1    4    4    0  501 -0.29476081724E+02 -0.30735003620E+02 -0.14123026405E+02  0.45060094498E+02  0.41800000000E+01 0. -1.
</event>
<event>
11    1  0.8041700E-009  0.1564075E+03  0.7561462E-02  0.1090506E+00
         22   -1    0    0    0    0  0.00000000000E+00  0.00000000000E+00  0.31387752512E+03  0.31387752512E+03  0.00000000000E+00 0.  1.
         22   -1    0    0    0    0 -0.00000000000E+00 -0.00000000000E+00 -0.14548428642E+04  0.14548428642E+04  0.00000000000E+00 0. -1.
        -24    2    1    2    0    0  0.93055432517E+02 -0.32483617537E+01 -0.13041834886E+04  0.13100014083E+04  0.80865644744E+02 0.  0.
         25    2    1    2    0    0 -0.10660976294E+03  0.52008728716E+01 -0.93669355698E+02  0.18924582112E+03  0.12508933601E+03 0.  0.
         24    2    1    2    0    0  0.13554330425E+02 -0.19525111179E+01  0.25688750523E+03  0.26947315986E+03  0.80231299190E+02 0.  0.
        -11    1    5    5    0    0  0.42888797563E+02 -0.18028690046E+02  0.17342101473E+03  0.17955314247E+03  0.00000000000E+00 0.  1.
         12    1    5    5    0    0 -0.29334467138E+02  0.16076178928E+02  0.83466490502E+02  0.89920017393E+02  0.00000000000E+00 0. -1.
         13    1    3    3    0    0  0.68751492928E+02  0.31711661338E+02 -0.99857120961E+03  0.10014373959E+04  0.00000000000E+00 0. -1.
        -14    1    3    3    0    0  0.24303939589E+02 -0.34960023091E+02 -0.30561227900E+03  0.30856401243E+03  0.00000000000E+00 0.  1.
          5    1    4    4  501    0  0.35067593788E+01 -0.78293087611E+01  0.25012016310E+02  0.26770670461E+02  0.41800000000E+01 0.  1.
         -5    1    4    4    0  501 -0.11011652232E+03  0.13030181633E+02 -0.11868137201E+03  0.16247515066E+03  0.41800000000E+01 0.  1.
</event>
<event>
11    1  0.8041700E-009  0.1458066E+03  0.7561462E-02  0.1101242E+00
         22   -1    0    0    0    0  0.00000000000E+00  0.00000000000E+00  0.58294901232E+03  0.58294901232E+03  0.00000000000E+00 0.  1.
         22   -1    0    0    0    0 -0.00000000000E+00 -0.00000000000E+00 -0.46987258566E+03  0.46987258566E+03  0.00000000000E+00 0. -1.
         24    2    1    2    0    0 -0.33389935445E+02 -0.63063287340E+02 -0.36458225880E+03  0.37985947808E+03  0.79253603417E+02 0.  0.
         25    2    1    2    0    0  0.91124528088E+02  0.14072978619E+02 -0.25786595751E+02  0.15753191381E+03  0.12509846922E+03 0.  0.
        -24    2    1    2    0    0 -0.57734592643E+02  0.48990308721E+02  0.50344528121E+03  0.51543020609E+03  0.80484859719E+02 0.  0.
        -13    1    3    3    0    0  0.85870898516E+01  0.14276992358E+02 -0.35502422670E+02  0.39217249245E+02  0.00000000000E+00 0.  1.
         14    1    3    3    0    0 -0.41977025297E+02 -0.77340279699E+02 -0.32907983613E+03  0.34064222883E+03  0.00000000000E+00 0. -1.
         13    1    5    5    0    0  0.72473237366E+00  0.25432675969E+02  0.37964402636E+02  0.45701664209E+02  0.00000000000E+00 0. -1.
        -14    1    5    5    0    0 -0.58459325017E+02  0.23557632752E+02  0.46548087857E+03  0.46972854188E+03  0.00000000000E+00 0.  1.
          5    1    4    4  501    0  0.10718122898E+03 -0.23539101755E+02 -0.35275611093E+02  0.11534186705E+03  0.41800000000E+01 0. -1.
         -5    1    4    4    0  501 -0.16056700888E+02  0.37612080374E+02  0.94890153412E+01  0.42190046760E+02  0.41800000000E+01 0. -1.
</event>
<event>
11    1  0.8041700E-009  0.1304716E+03  0.7561462E-02  0.1118691E+00
         22   -1    0    0    0    0  0.00000000000E+00  0.00000000000E+00  0.32774213208E+04  0.32774213208E+04  0.00000000000E+00 0.  1.
         22   -1    0    0    0    0 -0.00000000000E+00 -0.00000000000E+00 -0.48349338713E+02  0.48349338713E+02  0.00000000000E+00 0. -1.
         24    2    1    2    0    0  0.87207867169E+01 -0.17576388190E+02 -0.25962929650E+00  0.81647266486E+02  0.79254193419E+02 0.  0.
         25    2    1    2    0    0 -0.26483889223E+02  0.47626259253E+02  0.69669305325E+03  0.70993507959E+03  0.12512773402E+03 0.  0.
        -24    2    1    2    0    0  0.17763102506E+02 -0.30049871063E+02  0.25326385582E+04  0.25341883135E+04  0.81448261368E+02 0.  0.
        -13    1    3    3    0    0  0.39983973907E+02 -0.16071292381E+02  0.16499243578E+02  0.46143576442E+02  0.00000000000E+00 0.  1.
         14    1    3    3    0    0 -0.31263187190E+02 -0.15050958086E+01 -0.16758872874E+02  0.35503690044E+02  0.00000000000E+00 0. -1.
         11    1    5    5    0    0 -0.27848111704E+02 -0.32480962184E+02  0.11507373677E+04  0.11515324657E+04  0.00000000000E+00 0. -1.
        -12    1    5    5    0    0  0.45611214210E+02  0.24310911207E+01  0.13819011905E+04  0.13826558477E+04  0.00000000000E+00 0.  1.
          5    1    4    4  501    0 -0.42868339302E+02 -0.96027815930E+01  0.89208594399E+02  0.99526647907E+02  0.41800000000E+01 0.  1.
         -5    1    4    4    0  501  0.16384450079E+02  0.57229040846E+02  0.60748445886E+03  0.61040843168E+03  0.41800000000E+01 0.  1.
</event>
<event>
11    1  0.8041700E-009  0.1515731E+03  0.7561462E-02  0.1095282E+00
         22   -1    0    0    0    0  0.00000000000E+00  0.00000000000E+00  0.43271712504E+03  0.43271712504E+03  0.00000000000E+00 0.  1.
         22   -1    0    0    0    0 -0.00000000000E+00 -0.00000000000E+00 -0.29213049822E+04  0.29213049822E+04  0.00000000000E+00 0. -1.
         24    2    1    2    0    0 -0.75883952204E+01  0.14143645291E+02 -0.27945477038E+04  0.27958586611E+04  0.84090173840E+02 0.  0.
         25    2    1    2    0    0 -0.10750216024E+02  0.70617418579E+02 -0.72793118961E+02  0.16138412245E+03  0.12507441729E+03 0.  0.
        -24    2    1    2    0    0  0.18338611244E+02 -0.84761063870E+02  0.37875296566E+03  0.39677932368E+03  0.80369646604E+02 0.  0.
        -13    1    3    3    0    0 -0.88856788545E+01  0.25277195185E+01 -0.32533251207E+02  0.33819477950E+02  0.00000000000E+00 0.  1.
         14    1    3    3    0    0  0.12972836341E+01  0.11615925773E+02 -0.27620144526E+04  0.27620391831E+04  0.00000000000E+00 0. -1.
         11    1    5    5    0    0  0.13950163216E+01 -0.60068273845E+02  0.10177810051E+03  0.11819020829E+03  0.00000000000E+00 0. -1.
        -12    1    5    5    0    0  0.16943594923E+02 -0.24692790025E+02  0.27697486515E+03  0.27858911538E+03  0.00000000000E+00 0.  1.
          5    1    4    4  501    0 -0.40691510910E+02  0.86322406935E+02 -0.18516979658E+02  0.97302147637E+02  0.41800000000E+01 0.  1.
         -5    1    4    4    0  501  0.29941294886E+02 -0.15704988356E+02 -0.54276139303E+02  0.64081974816E+02  0.41800000000E+01 0.  1.
</event>
<event>
11    1  0.8041700E-009  0.1774097E+03  0.7561462E-02  0.1071758E+00
         22   -1    0    0    0    0  0.00000000000E+00  0.00000000000E+00  0.19586613295E+04  0.19586613295E+04  0.00000000000E+00 0. -1.
         22   -1    0    0    0    0 -0.00000000000E+00 -0.00000000000E+00 -0.70295331366E+02  0.70295331366E+02  0.00000000000E+00 0. -1.
        -24    2    1    2    0    0 -0.47796637473E+00 -0.19211838571E+01  0.34741032156E+02  0.88227942685E+02  0.81075959173E+02 0.  0.
         25    2    1    2    0    0  0.10604716059E+03 -0.66588460916E+02  0.15204323740E+03  0.23333186831E+03  0.12508633551E+03 0.  0.
         24    2    1    2    0    0 -0.10556919422E+03  0.68509644773E+02  0.17015817285E+04  0.17073968498E+04  0.63128422601E+02 0.  0.
        -11    1    5    5    0    0 -0.24634845805E+02  0.51090212923E+02  0.58143518468E+03  0.58419513818E+03  0.00000000000E+00 0.  1.
         12    1    5    5    0    0 -0.80934348413E+02  0.17419431850E+02  0.11201465439E+04  0.11232017117E+04  0.00000000000E+00 0. -1.
         11    1    3    3    0    0 -0.49126145281E+01  0.80113575499E+01 -0.25414761759E+02  0.27096600277E+02  0.00000000000E+00 0. -1.
        -12    1    3    3    0    0  0.44346481533E+01 -0.99325414070E+01  0.60155793915E+02  0.61131342408E+02  0.00000000000E+00 0.  1.
          5    1    4    4  501    0  0.72689545202E+02 -0.10347363136E+03  0.11720859647E+03  0.17246996798E+03  0.41800000000E+01 0.  1.
         -5    1    4    4    0  501  0.33357615390E+02  0.36885170441E+02  0.34834640932E+02  0.60861900331E+02  0.41800000000E+01 0.  1.
</event>
<event>
11    1  0.8041700E-009  0.1793836E+03  0.7561462E-02  0.1070143E+00
         22   -1    0    0    0    0  0.00000000000E+00  0.00000000000E+00  0.65305567267E+03  0.65305567267E+03  0.00000000000E+00 0. -1.
         22   -1    0    0    0    0 -0.00000000000E+00 -0.00000000000E+00 -0.85164974946E+03  0.85164974946E+03  0.00000000000E+00 0. -1.
        -24    2    1    2    0    0 -0.64481883165E+02 -0.11171406451E+03 -0.77573793627E+03  0.79048623763E+03  0.80381594032E+02 0.  0.
         25    2    1    2    0    0  0.90225849376E+02  0.88214487382E+02  0.55302038082E+02  0.18608727076E+03  0.12509059614E+03 0.  0.
         24    2    1    2    0    0 -0.25743966211E+02  0.23499577129E+02  0.52184182140E+03  0.52813191374E+03  0.73412872345E+02 0.  0.
        -13    1    5    5    0    0 -0.32535776785E+02  0.35074046615E+02  0.18704723360E+03  0.19306846743E+03  0.00000000000E+00 0.  1.
         14    1    5    5    0    0  0.67918105735E+01 -0.11574469486E+02  0.33479458780E+03  0.33506344631E+03  0.00000000000E+00 0. -1.
         11    1    3    3    0    0 -0.54864684851E+02 -0.41027215879E+02 -0.22647517541E+03  0.23661016707E+03  0.00000000000E+00 0. -1.
        -12    1    3    3    0    0 -0.96171983140E+01 -0.70686848632E+02 -0.54926276086E+03  0.55387607056E+03  0.00000000000E+00 0.  1.
          5    1    4    4  501    0  0.81758464477E+02  0.16136941799E+02  0.73449628108E+02  0.11116279806E+03  0.41800000000E+01 0.  1.
         -5    1    4    4    0  501  0.84673848994E+01  0.72077545584E+02 -0.18147590026E+02  0.74924472692E+02  0.41800000000E+01 0.  1.
</event>
<event>
11    1  0.8041700E-009  0.1496988E+03  0.7561462E-02  0.1097187E+00
         22   -1    0    0    0    0  0.00000000000E+00  0.00000000000E+00  0.11892576470E+04  0.11892576470E+04  0.00000000000E+00 0.  1.
         22   -1    0    0    0    0 -0.00000000000E+00 -0.00000000000E+00 -0.20360564291E+04  0.20360564291E+04  0.00000000000E+00 0.  1.
         24    2    1    2    0    0  0.25767830509E+02 -0.15981599764E+02 -0.18143086132E+04  0.18163352914E+04  0.80241849175E+02 0.  0.
         25    2    1    2    0    0  0.53955215618E+02  0.37247388368E+02 -0.19500268766E+03  0.24077042337E+03  0.12508323365E+03 0.  0.
        -24    2    1    2    0    0 -0.79723046127E+02 -0.21265788604E+02  0.11625125188E+04  0.11682083613E+04  0.80420278463E+02 0.  0.
        -13    1    3    3    0    0  0.23962098343E+02  0.78074240138E+01 -0.16601708480E+04  0.16603621240E+04  0.00000000000E+00 0.  1.
         14    1    3    3    0    0  0.18057321662E+01 -0.23789023778E+02 -0.15413776516E+03  0.15597316746E+03  0.00000000000E+00 0. -1.
         11    1    5    5    0    0 -0.21597688030E+02 -0.28788051281E+02  0.16060046049E+03  0.16458347406E+03  0.00000000000E+00 0. -1.
        -12    1    5    5    0    0 -0.58125358097E+02  0.75222626765E+01  0.10019120583E+04  0.10036248872E+04  0.00000000000E+00 0.  1.
          5    1    4    4  501    0  0.76981149212E+02  0.57940010456E+00 -0.56460950692E+02  0.95560161111E+02  0.41800000000E+01 0.  1.
         -5    1    4    4    0  501 -0.23025933594E+02  0.36667988263E+02 -0.13854173697E+03  0.14521026226E+03  0.41800000000E+01 0.  1.
</event>
<event>
11    1  0.8041700E-009  0.1563689E+03  0.7561462E-02  0.1090543E+00
         22   -1    0    0    0    0  0.00000000000E+00  0.00000000000E+00  0.33406223896E+03  0.33406223896E+03  0.00000000000E+00 0. -1.
         22   -1    0    0    0    0 -0.00000000000E+00 -0.00000000000E+00 -0.10931493322E+04  0.10931493322E+04  0.00000000000E+00 0. -1.
         24    2    1    2    0    0 -0.21741817526E+02 -0.12693026887E+02 -0.98936315503E+03  0.99291547037E+03  0.80049104930E+02 0.  0.
         25    2    1    2    0    0  0.23799216587E+01  0.10328016412E+03 -0.12016821862E+02  0.16267933800E+03  0.12509079373E+03 0.  0.
        -24    2    1    2    0    0  0.19361895867E+02 -0.90587137231E+02  0.24229288361E+03  0.27161676284E+03  0.80553783052E+02 0.  0.
        -13    1    3    3    0    0 -0.36288686997E+01 -0.28962639117E+02 -0.13123161131E+03  0.13443860665E+03  0.00000000000E+00 0.  1.
         14    1    3    3    0    0 -0.18112948826E+02  0.16269612230E+02 -0.85813154373E+03  0.85847686372E+03  0.00000000000E+00 0. -1.
         13    1    5    5    0    0 -0.10935027365E+02 -0.17179433716E+02  0.14314200571E+03  0.14458333778E+03  0.00000000000E+00 0. -1.
        -14    1    5    5    0    0  0.30296923232E+02 -0.73407703515E+02  0.99150877896E+02  0.12703342505E+03  0.00000000000E+00 0.  1.
          5    1    4    4  501    0 -0.23163171006E+02  0.52419923018E+02 -0.63628617215E+02  0.85734789607E+02  0.41800000000E+01 0.  1.
         -5    1    4    4    0  501  0.25543092665E+02  0.50860241101E+02  0.51611795353E+02  0.76944548392E+02  0.41800000000E+01 0.  1.
</event>
<event>
11    1  0.8041700E-009  0.1420614E+03  0.7561462E-02  0.1105278E+00
         22   -1    0    0    0    0  0.00000000000E+00  0.00000000000E+00  0.81512925847E+03  0.81512925847E+03  0.00000000000E+00 0. -1.
         22   -1    0    0    0    0 -0.00000000000E+00 -0.00000000000E+00 -0.19329495020E+03  0.19329495020E+03  0.00000000000E+00 0.  1.
        -24    2    1    2    0    0  0.62385590694E+02  0.17053440517E+02 -0.10452137535E+03  0.14659717137E+03  0.79895124932E+02 0.  0.
         25    2    1    2    0    0 -0.87003940693E+02  0.33035344158E+02  0.30190459380E+02  0.15880688263E+03  0.12508853854E+03 0.  0.
         24    2    1    2    0    0  0.24618349999E+02 -0.50088784675E+02  0.69616522424E+03  0.70302015467E+03  0.80475890356E+02 0.  0.
        -13    1    5    5    0    0 -0.19908152638E+02 -0.16094843475E+02  0.73320878301E+02  0.77661636107E+02  0.00000000000E+00 0.  1.
         14    1    5    5    0    0  0.44526502637E+02 -0.33993941200E+02  0.62284434594E+03  0.62535851856E+03  0.00000000000E+00 0. -1.
         11    1    3    3    0    0 -0.19075417242E+02  0.59261727982E+01 -0.14512193580E+02  0.24689974271E+02  0.00000000000E+00 0. -1.
        -12    1    3    3    0    0  0.81461007936E+02  0.11127267719E+02 -0.90009181769E+02  0.12190719710E+03  0.00000000000E+00 0.  1.
          5    1    4    4  501    0 -0.26543919723E+02  0.73367138986E+02  0.35491292686E+02  0.85816204844E+02  0.41800000000E+01 0. -1.
         -5    1    4    4    0  501 -0.60460020971E+02 -0.40331794828E+02 -0.53008333057E+01  0.72990677785E+02  0.41800000000E+01 0. -1.
</event>
<event>
11    1  0.8041700E-009  0.1293340E+03  0.7561462E-02  0.1120090E+00
         22   -1    0    0    0    0  0.00000000000E+00  0.00000000000E+00  0.23464268109E+03  0.23464268109E+03  0.00000000000E+00 0.  1.
         22   -1    0    0    0    0 -0.00000000000E+00 -0.00000000000E+00 -0.61424245817E+03  0.61424245817E+03  0.00000000000E+00 0.  1.
         24    2    1    2    0    0  0.29860973220E+02  0.42891111070E+02 -0.51437604267E+03  0.52332077513E+03  0.80935747857E+02 0.  0.
         25    2    1    2    0    0 -0.19008502502E+01 -0.12272434787E+02 -0.29864888345E+02  0.12920132654E+03  0.12508735082E+03 0.  0.
        -24    2    1    2    0    0 -0.27960122970E+02 -0.30618676283E+02  0.16464115393E+03  0.19636303759E+03  0.98653236889E+02 0.  0.
        -13    1    3    3    0    0 -0.25944570227E+02  0.90588189141E+01 -0.22530802618E+03  0.22697772928E+03  0.00000000000E+00 0.  1.
         14    1    3    3    0    0  0.55805543447E+02  0.33832292156E+02 -0.28906801648E+03  0.29634304585E+03  0.00000000000E+00 0. -1.
         13    1    5    5    0    0 -0.25061436054E+02  0.10092976101E+02  0.28922802163E+00  0.27019019163E+02  0.00000000000E+00 0. -1.
        -14    1    5    5    0    0 -0.28986869154E+01 -0.40711652384E+02  0.16435192591E+03  0.16934401843E+03  0.00000000000E+00 0.  1.
          5    1    4    4  501    0  0.42344287464E+02 -0.48090123417E+02  0.11864665492E+01  0.64222883414E+02  0.41800000000E+01 0.  1.
         -5    1    4    4    0  501 -0.44245137714E+02  0.35817688631E+02 -0.31051354894E+02  0.64978443125E+02  0.41800000000E+01 0.  1.
</event>
<event>
11    1  0.8041700E-009  0.2101713E+03  0.7561462E-02  0.1047555E+00
         22   -1    0    0    0    0  0.00000000000E+00  0.00000000000E+00  0.92684627018E+02  0.92684627018E+02  0.00000000000E+00 0. -1.
         22   -1    0    0    0    0 -0.00000000000E+00 -0.00000000000E+00 -0.27968738123E+04  0.27968738123E+04  0.00000000000E+00 0. -1.
        -24    2    1    2    0    0  0.11328459461E+03 -0.10222515159E+03 -0.17590579019E+04  0.17675915976E+04  0.82534673859E+02 0.  0.
         25    2    1    2    0    0 -0.15404294523E+03  0.19198067392E+03 -0.95282881912E+03  0.99202549889E+03  0.12508406686E+03 0.  0.
         24    2    1    2    0    0  0.40758350621E+02 -0.89755522331E+02  0.76975358133E+01  0.12994134283E+03  0.84310162994E+02 0.  0.
        -13    1    5    5    0    0 -0.14427763963E+02  0.46799685936E+01 -0.11314752065E+02  0.18923162878E+02  0.00000000000E+00 0.  1.
         14    1    5    5    0    0  0.55186114584E+02 -0.94435490925E+02  0.19012287878E+02  0.11101817995E+03  0.00000000000E+00 0. -1.
         11    1    3    3    0    0  0.50263586721E+02 -0.43647068041E+02 -0.37507065458E+03  0.38093239640E+03  0.00000000000E+00 0. -1.
        -12    1    3    3    0    0  0.63021007885E+02 -0.58578083548E+02 -0.13839872474E+04  0.13866592012E+04  0.00000000000E+00 0.  1.
          5    1    4    4  501    0 -0.16250697572E+03  0.12146581399E+03 -0.75488023661E+03  0.78168030879E+03  0.41800000000E+01 0.  1.
         -5    1    4    4    0  501  0.84640304944E+01  0.70514859926E+02 -0.19794858251E+03  0.21034519010E+03  0.41800000000E+01 0.  1.
</event>
<event>
11    1  0.8041700E-009  0.1373657E+03  0.7561462E-02  0.1110536E+00
         22   -1    0    0    0    0  0.00000000000E+00  0.00000000000E+00  0.69094184218E+03  0.69094184218E+03  0.00000000000E+00 0. -1.
         22   -1    0    0    0    0 -0.00000000000E+00 -0.00000000000E+00 -0.44296192087E+03  0.44296192087E+03  0.00000000000E+00 0.  1.
        -24    2    1    2    0    0 -0.55077243876E+02 -0.12768126726E+02 -0.41741398999E+03  0.42985182306E+03  0.85683270811E+02 0.  0.
         25    2    1    2    0    0  0.66709079410E+02  0.22306723184E+02  0.35335676135E+03  0.38138702118E+03  0.12508943983E+03 0.  0.
         24    2    1    2    0    0 -0.11631835534E+02 -0.95385964578E+01  0.31203714995E+03  0.32266491880E+03  0.80741454376E+02 0.  0.
        -13    1    5    5    0    0  0.47526095427E+01 -0.32872072778E+02  0.56479255195E+02  0.65521498255E+02  0.00000000000E+00 0.  1.
         14    1    5    5    0    0 -0.16384445076E+02  0.23333476321E+02  0.25555789476E+03  0.25714342055E+03  0.00000000000E+00 0. -1.
         11    1    3    3    0    0 -0.37689852545E+01 -0.18906861249E+01  0.36238045853E+01  0.55598474389E+01  0.00000000000E+00 0. -1.
        -12    1    3    3    0    0 -0.51308258622E+02 -0.10877440601E+02 -0.42103779458E+03  0.42429197562E+03  0.00000000000E+00 0.  1.
          5    1    4    4  501    0  0.40303198196E+01  0.66374277871E+02  0.15560161771E+03  0.16926642926E+03  0.41800000000E+01 0. -1.
         -5    1    4    4    0  501  0.62678759590E+02 -0.44067554687E+02  0.19775514363E+03  0.21212059191E+03  0.41800000000E+01 0. -1.
</event>
<event>
11    1  0.8041700E-009  0.1335486E+03  0.7561462E-02  0.1114984E+00
         22   -1    0    0    0    0  0.00000000000E+00  0.00000000000E+00  0.13004486420E+04  0.13004486420E+04  0.00000000000E+00 0. -1.
         22   -1    0    0    0    0 -0.00000000000E+00 -0.00000000000E+00 -0.28103172093E+03  0.28103172093E+03  0.00000000000E+00 0. -1.
         24    2    1    2    0    0  0.44342893861E+02  0.43608739213E+01 -0.20754487441E+03  0.22850605577E+03  0.84586246945E+02 0.  0.
         25    2    1    2    0    0 -0.66658417000E+02  0.32091978210E+02  0.24841144673E+02  0.14743998415E+03  0.12509287284E+03 0.  0.
        -24    2    1    2    0    0  0.22315523138E+02 -0.36452852132E+02  0.12021206508E+04  0.12055343230E+04  0.79950933971E+02 0.  0.
        -13    1    3    3    0    0  0.16830344236E+02  0.42595416156E+02 -0.12935436238E+03  0.13722310677E+03  0.00000000000E+00 0.  1.
         14    1    3    3    0    0  0.27512549625E+02 -0.38234542235E+02 -0.78190512034E+02  0.91282949005E+02  0.00000000000E+00 0. -1.
         11    1    5    5    0    0  0.16779850218E+02 -0.44637171874E+02  0.33699740448E+03  0.34035465490E+03  0.00000000000E+00 0. -1.
        -12    1    5    5    0    0  0.55356729204E+01  0.81843197423E+01  0.86512324632E+03  0.86517966810E+03  0.00000000000E+00 0.  1.
          5    1    4    4  501    0  0.22678879281E+02 -0.21457548222E+02 -0.16187141248E+02  0.35415446954E+02  0.41800000000E+01 0.  1.
         -5    1    4    4    0  501 -0.89337296281E+02  0.53549526433E+02  0.41028285922E+02  0.11202453719E+03  0.41800000000E+01 0.  1.
</event>
<event>
11    1  0.8041700E-009  0.1303041E+03  0.7561462E-02  0.1118896E+00
         22   -1    0    0    0    0  0.00000000000E+00  0.00000000000E+00  0.30805032150E+03  0.30805032150E+03  0.00000000000E+00 0. -1.
         22   -1    0    0    0    0 -0.00000000000E+00 -0.00000000000E+00 -0.13274096201E+04  0.13274096201E+04  0.00000000000E+00 0. -1.
        -24    2    1    2    0    0 -0.34547984304E+02  0.11111049529E+02 -0.12697599353E+04  0.12725572557E+04  0.76122646418E+02 0.  0.
         25    2    1    2    0    0  0.42792385802E+02 -0.21078920404E+02  0.43652489958E+02  0.14082379844E+03  0.12510113173E+03 0.  0.
         24    2    1    2    0    0 -0.82444014972E+01  0.99678708755E+01  0.20674814674E+03  0.22207888738E+03  0.80043159822E+02 0.  0.
        -11    1    5    5    0    0  0.28283886359E+02  0.28002923154E+02  0.11500987651E+03  0.12170215128E+03  0.00000000000E+00 0.  1.
         12    1    5    5    0    0 -0.36528287856E+02 -0.18035052279E+02  0.91738270230E+02  0.10037673610E+03  0.00000000000E+00 0. -1.
         11    1    3    3    0    0 -0.44003337834E+02 -0.19407832666E+02 -0.94682909628E+03  0.94804973248E+03  0.00000000000E+00 0. -1.
        -12    1    3    3    0    0  0.94553535297E+01  0.30518882195E+02 -0.32293083897E+03  0.32450752324E+03  0.00000000000E+00 0.  1.
          5    1    4    4  501    0  0.48763303704E+02  0.45347372452E+02  0.26832430078E+02  0.71914502573E+02  0.41800000000E+01 0.  1.
         -5    1    4    4    0  501 -0.59709179025E+01 -0.66426292856E+02  0.16820059880E+02  0.68909295872E+02  0.41800000000E+01 0.  1.
</event>
<event>
11    1  0.8041700E-009  0.1548063E+03  0.7561462E-02  0.1092066E+00
         22   -1    0    0    0    0  0.00000000000E+00  0.00000000000E+00  0.18477622114E+04  0.18477622114E+04  0.00000000000E+00 0.  1.
         22   -1    0    0    0    0 -0.00000000000E+00 -0.00000000000E+00 -0.25677401869E+03  0.25677401869E+03  0.00000000000E+00 0. -1.
        -24    2    1    2    0    0 -0.42974259955E+02 -0.45018353822E+02 -0.18043861537E+03  0.20703708571E+03  0.80204873547E+02 0.  0.
         25    2    1    2    0    0  0.74047833788E+02  0.12869331512E+03  0.93851292182E+02  0.21563783673E+03  0.12508621243E+03 0.  0.
         24    2    1    2    0    0 -0.31073573833E+02 -0.83674961300E+02  0.16775755159E+04  0.16818613076E+04  0.80192147151E+02 0.  0.
        -13    1    5    5    0    0 -0.24048680718E+01 -0.13561603919E+02  0.99504923125E+03  0.99514454885E+03  0.00000000000E+00 0.  1.
         14    1    5    5    0    0 -0.28668705761E+02 -0.70113357381E+02  0.68252628465E+03  0.68671675880E+03  0.00000000000E+00 0. -1.
         11    1    3    3    0    0 -0.14765575099E+01 -0.59684790627E+01 -0.13230057711E+03  0.13244336777E+03  0.00000000000E+00 0. -1.
        -12    1    3    3    0    0 -0.41497702445E+02 -0.39049874759E+02 -0.48138038264E+02  0.74593717932E+02  0.00000000000E+00 0.  1.
          5    1    4    4  501    0  0.70149332468E+02  0.13714076398E+03  0.11491970058E+03  0.19223040335E+03  0.41800000000E+01 0. -1.
         -5    1    4    4    0  501  0.38985013194E+01 -0.84474488610E+01 -0.21068408401E+02  0.23407433378E+02  0.41800000000E+01 0. -1.
</event>
<event>
11    1  0.8041700E-009  0.1901089E+03  0.7561462E-02  0.1061747E+00
         22   -1    0    0    0    0  0.00000000000E+00  0.00000000000E+00  0.29402688227E+04  0.29402688227E+04  0.00000000000E+00 0. -1.
         22   -1    0    0    0    0 -0.00000000000E+00 -0.00000000000E+00 -0.46138197453E+03  0.46138197453E+03  0.00000000000E+00 0.  1.
         24    2    1    2    0    0 -0.14158582521E+03  0.15573082661E+02 -0.39234160099E+03  0.42530809364E+03  0.81645427611E+02 0.  0.
         25    2    1    2    0    0  0.14555822103E+03 -0.59281672012E+02  0.14291610657E+03  0.24652197549E+03  0.12508620442E+03 0.  0.
        -24    2    1    2    0    0 -0.39723958233E+01  0.43708589351E+02  0.27283123425E+04  0.27298207281E+04  0.79415037342E+02 0.  0.
        -11    1    3    3    0    0 -0.11364141837E+03  0.35871131959E+02 -0.35488214246E+03  0.37435604057E+03  0.00000000000E+00 0.  1.
         12    1    3    3    0    0 -0.27944406838E+02 -0.20298049298E+02 -0.37459458529E+02  0.50952053071E+02  0.00000000000E+00 0. -1.
         13    1    5    5    0    0 -0.38858620293E+01  0.65941092649E+02  0.22809548418E+04  0.22819111109E+04  0.00000000000E+00 0. -1.
        -14    1    5    5    0    0 -0.86533794038E-01 -0.22232503298E+02  0.44735750074E+03  0.44790961718E+03  0.00000000000E+00 0.  1.
          5    1    4    4  501    0  0.16384734616E+03 -0.70648462559E+02  0.12183125084E+03  0.21609600687E+03  0.41800000000E+01 0.  1.
         -5    1    4    4    0  501 -0.18289125125E+02  0.11366790547E+02  0.21084855731E+02  0.30425968619E+02  0.41800000000E+01 0.  1.
</event>
<event>
11    1  0.8041700E-009  0.2915139E+03  0.7561462E-02  0.1003848E+00
         22   -1    0    0    0    0  0.00000000000E+00  0.00000000000E+00  0.51632611799E+03  0.51632611799E+03  0.00000000000E+00 0. -1.
         22   -1    0    0    0    0 -0.00000000000E+00 -0.00000000000E+00 -0.36467733480E+04  0.36467733480E+04  0.00000000000E+00 0. -1.
         24    2    1    2    0    0 -0.11439245293E+03 -0.23667189088E+03 -0.34057061502E+04  0.34167631894E+04  0.79605863058E+02 0.  0.
         25    2    1    2    0    0  0.26684941377E+03  0.17334741845E+03 -0.75338539337E+02  0.35012062046E+03  0.12510242303E+03 0.  0.
        -24    2    1    2    0    0 -0.15245696084E+03  0.63324472431E+02  0.35059745951E+03  0.39621565620E+03  0.82553945319E+02 0.  0.
        -11    1    3    3    0    0 -0.70481969034E+02 -0.11694791734E+03 -0.22261819747E+04  0.22303655996E+04  0.00000000000E+00 0.  1.
         12    1    3    3    0    0 -0.43910483893E+02 -0.11972397354E+03 -0.11795241755E+04  0.11863975898E+04  0.00000000000E+00 0. -1.
         13    1    5    5    0    0 -0.10014927486E+03  0.63928362484E+02  0.30311103110E+03  0.32556567687E+03  0.00000000000E+00 0. -1.
        -14    1    5    5    0    0 -0.52307685980E+02 -0.60389005292E+00  0.47486428411E+02  0.70649979328E+02  0.00000000000E+00 0.  1.
          5    1    4    4  501    0  0.15950749893E+03  0.12753385097E+03  0.11497156988E+02  0.20459027928E+03  0.41800000000E+01 0. -1.
         -5    1    4    4    0  501  0.10734191484E+03  0.45813567480E+02 -0.86835696326E+02  0.14553034118E+03  0.41800000000E+01 0. -1.
</event>
<event>
11    1  0.8041700E-009  0.1328128E+03  0.7561462E-02  0.1115860E+00
         22   -1    0    0    0    0  0.00000000000E+00  0.00000000000E+00  0.50702269856E+03  0.50702269856E+03  0.00000000000E+00 0.  1.
         22   -1    0    0    0    0 -0.00000000000E+00 -0.00000000000E+00 -0.48012401938E+03  0.48012401938E+03  0.00000000000E+00 0. -1.
         24    2    1    2    0    0 -0.39266435302E+02  0.27538668705E+02 -0.35177654573E+03  0.36345200472E+03  0.77784255432E+02 0.  0.
         25    2    1    2    0    0  0.35791063082E+01 -0.35469191808E+02 -0.82627825314E+02  0.15408808848E+03  0.12507960635E+03 0.  0.
        -24    2    1    2    0    0  0.35687328994E+02  0.79305231027E+01  0.46130305024E+03  0.46960662474E+03  0.79958734328E+02 0.  0.
        -13    1    3    3    0    0  0.23104597220E+02  0.12996771580E+01 -0.72953301590E+02  0.76535585098E+02  0.00000000000E+00 0.  1.
         14    1    3    3    0    0 -0.62371032522E+02  0.26238991547E+02 -0.27882324414E+03  0.28691641962E+03  0.00000000000E+00 0. -1.
         13    1    5    5    0    0 -0.14608510519E+02 -0.24155036546E+02  0.15415399524E+03  0.15671735264E+03  0.00000000000E+00 0. -1.
        -14    1    5    5    0    0  0.50295839513E+02  0.32085559648E+02  0.30714905500E+03  0.31288927210E+03  0.00000000000E+00 0.  1.
          5    1    4    4  501    0 -0.20435613745E+02  0.37693975791E+02 -0.29172203462E+01  0.43179077047E+02  0.41800000000E+01 0.  1.
         -5    1    4    4    0  501  0.24014720054E+02 -0.73163167599E+02 -0.79710604968E+02  0.11090901143E+03  0.41800000000E+01 0.  1.
</event>
<event>
11    1  0.8041700E-009  0.1346713E+03  0.7561462E-02  0.1113659E+00
         22   -1    0    0    0    0  0.00000000000E+00  0.00000000000E+00  0.94882591144E+02  0.94882591144E+02  0.00000000000E+00 0.  1.
         22   -1    0    0    0    0 -0.00000000000E+00 -0.00000000000E+00 -0.92728760521E+03  0.92728760521E+03  0.00000000000E+00 0. -1.
        -24    2    1    2    0    0 -0.72211679325E+01  0.51732697529E+02 -0.74203514797E+03  0.74818992312E+03  0.80271931437E+02 0.  0.
         25    2    1    2    0    0 -0.36939806821E+02 -0.30220919255E+02 -0.11401066695E+03  0.17585124096E+03  0.12508946190E+03 0.  0.
         24    2    1    2    0    0  0.44160974754E+02 -0.21511778274E+02  0.23640800859E+02  0.98129032270E+02  0.81593328240E+02 0.  0.
        -11    1    5    5    0    0  0.80438172441E+01  0.91551291997E+01  0.44661878952E+02  0.46294738557E+02  0.00000000000E+00 0.  1.
         12    1    5    5    0    0  0.36117157510E+02 -0.30666907474E+02 -0.21021078093E+02  0.51834293713E+02  0.00000000000E+00 0. -1.
         13    1    3    3    0    0 -0.55950079147E+01  0.72694689180E+02 -0.50689407155E+03  0.51211075142E+03  0.00000000000E+00 0. -1.
        -14    1    3    3    0    0 -0.16261600178E+01 -0.20961991652E+02 -0.23514107642E+03  0.23607917170E+03  0.00000000000E+00 0.  1.
          5    1    4    4  501    0  0.55656521384E+01  0.45703047837E+02 -0.32140689161E+02  0.56304896457E+02  0.41800000000E+01 0.  1.
         -5    1    4    4    0  501 -0.42505458960E+02 -0.75923967092E+02 -0.81869977788E+02  0.11954634450E+03  0.41800000000E+01 0.  1.
</event>
<event>
11    1  0.8041700E-009  0.1305519E+03  0.7561462E-02  0.1118593E+00
         22   -1    0    0    0    0  0.00000000000E+00  0.00000000000E+00  0.23276336865E+03  0.23276336865E+03  0.00000000000E+00 0. -1.
         22   -1    0    0    0    0 -0.00000000000E+00 -0.00000000000E+00 -0.15996742330E+04  0.15996742330E+04  0.00000000000E+00 0.  1.
        -24    2    1    2    0    0 -0.14033401737E+02  0.16054258402E+02 -0.49837352319E+03  0.50532973014E+03  0.80791657772E+02 0.  0.
         25    2    1    2    0    0 -0.34075265775E+01 -0.49113023431E+02 -0.10848433687E+04  0.10931381169E+04  0.12506841156E+03 0.  0.
         24    2    1    2    0    0  0.17440928314E+02  0.33058765029E+02  0.21630602755E+03  0.23396975466E+03  0.80972097755E+02 0.  0.
        -11    1    5    5    0    0 -0.14437924621E+02  0.10379825815E+01  0.16028815168E+01  0.14563663837E+02  0.00000000000E+00 0.  1.
         12    1    5    5    0    0  0.31878852935E+02  0.32020782447E+02  0.21470314604E+03  0.21940609082E+03  0.00000000000E+00 0. -1.
         13    1    3    3    0    0 -0.66102757117E+01 -0.16366352951E+02 -0.24000798511E+02  0.29792475276E+02  0.00000000000E+00 0. -1.
        -14    1    3    3    0    0 -0.74231260251E+01  0.32420611353E+02 -0.47437272468E+03  0.47553725486E+03  0.00000000000E+00 0.  1.
          5    1    4    4  501    0  0.60296495903E+02 -0.24529763686E+02 -0.58803402405E+03  0.59164082226E+03  0.41800000000E+01 0. -1.
         -5    1    4    4    0  501 -0.63704022480E+02 -0.24583259744E+02 -0.49680934467E+03  0.50149729460E+03  0.41800000000E+01 0. -1.
</event>
<event>
11    1  0.8041700E-009  0.1761494E+03  0.7561462E-02  0.1072801E+00
         22   -1    0    0    0    0  0.00000000000E+00  0.00000000000E+00  0.14202791716E+04  0.14202791716E+04  0.00000000000E+00 0.  1.
         22   -1    0    0    0    0 -0.00000000000E+00 -0.00000000000E+00 -0.12902226848E+04  0.12902226848E+04  0.00000000000E+00 0. -1.
        -24    2    1    2    0    0  0.12011229576E+03  0.29049869592E+02 -0.12375682246E+04  0.12463789350E+04  0.81329456226E+02 0.  0.
         25    2    1    2    0    0 -0.14279770908E+03 -0.20904870797E+02  0.14807559209E+03  0.24166512401E+03  0.12508977515E+03 0.  0.
         24    2    1    2    0    0  0.22685413319E+02 -0.81449987956E+01  0.12195491194E+04  0.12224577973E+04  0.80759164971E+02 0.  0.
        -13    1    5    5    0    0 -0.27737907252E+02  0.96632664364E+01  0.33088427771E+03  0.33218545340E+03  0.00000000000E+00 0.  1.
         14    1    5    5    0    0  0.50423320571E+02 -0.17808265232E+02  0.88866484165E+03  0.89027234392E+03  0.00000000000E+00 0. -1.
         11    1    3    3    0    0  0.68941850633E+02 -0.25135907665E+02 -0.60203783319E+03  0.60649348325E+03  0.00000000000E+00 0. -1.
        -12    1    3    3    0    0  0.51170445132E+02  0.54185777257E+02 -0.63553039144E+03  0.63988545175E+03  0.00000000000E+00 0.  1.
          5    1    4    4  501    0 -0.53223739808E+02 -0.67232458877E+02  0.43188955936E+02  0.96102696739E+02  0.41800000000E+01 0.  1.
         -5    1    4    4    0  501 -0.89573969276E+02  0.46327588080E+02  0.10488663615E+03  0.14556242727E+03  0.41800000000E+01 0.  1.
</event>
<event>
11    1  0.8041700E-009  0.1530378E+03  0.7561462E-02  0.1093815E+00
         22   -1    0    0    0    0  0.00000000000E+00  0.00000000000E+00  0.54098891258E+03  0.54098891258E+03  0.00000000000E+00 0. -1.
         22   -1    0    0    0    0 -0.00000000000E+00 -0.00000000000E+00 -0.17351001250E+03  0.17351001250E+03  0.00000000000E+00 0. -1.
         24    2    1    2    0    0 -0.72014448079E+02 -0.24571300124E+01 -0.12373995731E+02  0.11671799921E+03  0.90982731052E+02 0.  0.
         25    2    1    2    0    0  0.10542130436E+03 -0.48555183974E+02 -0.29838938967E+02  0.17323242622E+03  0.12509138225E+03 0.  0.
        -24    2    1    2    0    0 -0.33406856282E+02  0.51012313986E+02  0.40969183478E+03  0.42454849964E+03  0.93143732127E+02 0.  0.
        -13    1    3    3    0    0  0.12582396443E+01 -0.35211535534E+02  0.15061946264E+01  0.35266188111E+02  0.00000000000E+00 0.  1.
         14    1    3    3    0    0 -0.73272687723E+02  0.32754405521E+02 -0.13880190358E+02  0.81451811101E+02  0.00000000000E+00 0. -1.
         13    1    5    5    0    0 -0.18635270078E+02  0.59619588107E+02  0.40009717706E+03  0.40494384755E+03  0.00000000000E+00 0. -1.
        -14    1    5    5    0    0 -0.14771586204E+02 -0.86072741203E+01  0.95946577212E+01  0.19604652090E+02  0.00000000000E+00 0.  1.
          5    1    4    4  501    0  0.24349417541E+02  0.17858059795E+02  0.37700478718E+02  0.48483016921E+02  0.41800000000E+01 0.  1.
         -5    1    4    4    0  501  0.81071886820E+02 -0.66413243769E+02 -0.67539417685E+02  0.12474940930E+03  0.41800000000E+01 0.  1.
</event>
<event>
11    1  0.8041700E-009  0.1587538E+03  0.7561462E-02  0.1088255E+00
         22   -1    0    0    0    0  0.00000000000E+00  0.00000000000E+00  0.18679809710E+04  0.18679809710E+04  0.00000000000E+00 0. -1.
         22   -1    0    0    0    0 -0.00000000000E+00 -0.00000000000E+00 -0.18773658729E+03  0.18773658729E+03  0.00000000000E+00 0. -1.
         24    2    1    2    0    0  0.49157672144E+02 -0.83812034612E+02 -0.14991229231E+03  0.19725543138E+03  0.83636570615E+02 0.  0.
         25    2    1    2    0    0 -0.11445977967E+03  0.67404228323E+02  0.75138624189E+03  0.77322238870E+03  0.12508879538E+03 0.  0.
        -24    2    1    2    0    0  0.65302107523E+02  0.16407806289E+02  0.10787704342E+04  0.10852397382E+04  0.97293671248E+02 0.  0.
        -13    1    3    3    0    0 -0.13849508773E+02 -0.20867580506E+02 -0.26882904998E+01  0.25189118985E+02  0.00000000000E+00 0.  1.
         14    1    3    3    0    0  0.63007180917E+02 -0.62944454105E+02 -0.14722400181E+03  0.17206631239E+03  0.00000000000E+00 0. -1.
         11    1    5    5    0    0  0.68465365286E+02  0.41558665786E+02  0.98003541806E+03  0.98330262361E+03  0.00000000000E+00 0. -1.
        -12    1    5    5    0    0 -0.31632577635E+01 -0.25150859497E+02  0.98735016092E+02  0.10193711461E+03  0.00000000000E+00 0.  1.
          5    1    4    4  501    0  0.55996225241E+01  0.27326035644E+02  0.31502106890E+02  0.42283840115E+02  0.41800000000E+01 0. -1.
         -5    1    4    4    0  501 -0.12005940219E+03  0.40078192679E+02  0.71988413500E+03  0.73093854859E+03  0.41800000000E+01 0. -1.
</event>
<event>
11    1  0.8041700E-009  0.2296496E+03  0.7561462E-02  0.1035336E+00
         22   -1    0    0    0    0  0.00000000000E+00  0.00000000000E+00  0.30979927343E+03  0.30979927343E+03  0.00000000000E+00 0. -1.
         22   -1    0    0    0    0 -0.00000000000E+00 -0.00000000000E+00 -0.11837427689E+04  0.11837427689E+04  0.00000000000E+00 0. -1.
        -24    2    1    2    0    0  0.18552755323E+03  0.84535601634E+02 -0.10115150561E+04  0.10349596193E+04  0.80074738849E+02 0.  0.
         25    2    1    2    0    0 -0.12170770436E+03 -0.63030528617E+02 -0.91226810018E+02  0.20678130229E+03  0.12510221130E+03 0.  0.
         24    2    1    2    0    0 -0.63819848864E+02 -0.21505073017E+02  0.22879837065E+03  0.25180112079E+03  0.80744465728E+02 0.  0.
        -13    1    5    5    0    0 -0.74634077675E+02 -0.16717440080E+02  0.11960114646E+03  0.14196532178E+03  0.00000000000E+00 0.  1.
         14    1    5    5    0    0  0.10814228811E+02 -0.47876329363E+01  0.10919722420E+03  0.10983579902E+03  0.00000000000E+00 0. -1.
         13    1    3    3    0    0  0.18565763184E+03  0.93734857151E+02 -0.98911105923E+03  0.10107401581E+04  0.00000000000E+00 0. -1.
        -14    1    3    3    0    0 -0.13007860984E+00 -0.91992555173E+01 -0.22403996902E+02  0.24219461177E+02  0.00000000000E+00 0.  1.
          5    1    4    4  501    0 -0.86055510883E+02 -0.76719375148E+01 -0.10832609571E+03  0.13862332051E+03  0.41800000000E+01 0.  1.
         -5    1    4    4    0  501 -0.35652193479E+02 -0.55358591102E+02  0.17099285692E+02  0.68157981776E+02  0.41800000000E+01 0.  1.
</event>
<event>
11    1  0.8041700E-009  0.1540464E+03  0.7561462E-02  0.1092814E+00
         22   -1    0    0    0    0  0.00000000000E+00  0.00000000000E+00  0.82635560929E+02  0.82635560929E+02  0.00000000000E+00 0. -1.
         22   -1    0    0    0    0 -0.00000000000E+00 -0.00000000000E+00 -0.21946708808E+04  0.21946708808E+04  0.00000000000E+00 0.  1.
        -24    2    1    2    0    0 -0.77628001715E+02 -0.43371962886E+02 -0.19744164421E+04  0.19779428819E+04  0.77656444044E+02 0.  0.
         25    2    1    2    0    0  0.11115639273E+03  0.34833078616E+02 -0.12445000202E+03  0.21143364549E+03  0.12508915395E+03 0.  0.
         24    2    1    2    0    0 -0.33528391013E+02  0.85388842696E+01 -0.13168875747E+02  0.87929914355E+02  0.79757037316E+02 0.  0.
        -13    1    5    5    0    0  0.83325985707E+01  0.72119945013E+01 -0.37778345911E+02  0.39352871349E+02  0.00000000000E+00 0.  1.
         14    1    5    5    0    0 -0.41860989584E+02  0.13268897683E+01  0.24609470164E+02  0.48577043005E+02  0.00000000000E+00 0. -1.
         11    1    3    3    0    0 -0.21598515589E+02 -0.26110507564E+02 -0.22434630985E+03  0.22689098973E+03  0.00000000000E+00 0. -1.
        -12    1    3    3    0    0 -0.56029486126E+02 -0.17261455322E+02 -0.17500701323E+04  0.17510518922E+04  0.00000000000E+00 0.  1.
          5    1    4    4  501    0 -0.26583936619E+02  0.17130785366E+02 -0.25975441687E+02  0.41138369732E+02  0.41800000000E+01 0.  1.
         -5    1    4    4    0  501  0.13774032935E+03  0.17702293250E+02 -0.98474560329E+02  0.17029527576E+03  0.41800000000E+01 0.  1.
</event>
<event>
11    1  0.8041700E-009  0.1363388E+03  0.7561462E-02  0.1111717E+00
         22   -1    0    0    0    0  0.00000000000E+00  0.00000000000E+00  0.55672576671E+03  0.55672576671E+03  0.00000000000E+00 0. -1.
         22   -1    0    0    0    0 -0.00000000000E+00 -0.00000000000E+00 -0.65199946048E+03  0.65199946048E+03  0.00000000000E+00 0. -1.
         24    2    1    2    0    0 -0.11067852771E+02  0.39720164838E+01 -0.62209169526E+03  0.62737361961E+03  0.80382255505E+02 0.  0.
         25    2    1    2    0    0  0.29702834911E+02 -0.52655874867E+02  0.22165943872E+03  0.26160070916E+03  0.12508846749E+03 0.  0.
        -24    2    1    2    0    0 -0.18634982140E+02  0.48683858383E+02  0.30515856276E+03  0.31975089841E+03  0.80009424337E+02 0.  0.
        -13    1    3    3    0    0 -0.88756941305E+01  0.10683919928E+02 -0.15785529671E+02  0.21026341534E+02  0.00000000000E+00 0.  1.
         14    1    3    3    0    0 -0.21921586400E+01 -0.67119034439E+01 -0.60630616559E+03  0.60634727808E+03  0.00000000000E+00 0. -1.
         13    1    5    5    0    0 -0.43424231350E+02  0.54523210859E+02  0.21138248961E+03  0.22257807912E+03  0.00000000000E+00 0. -1.
        -14    1    5    5    0    0  0.24789249210E+02 -0.58393524764E+01  0.93776073155E+02  0.97172819297E+02  0.00000000000E+00 0.  1.
          5    1    4    4  501    0 -0.33866506543E+02 -0.73860919492E+01  0.10524442673E+02  0.36465475635E+02  0.41800000000E+01 0. -1.
         -5    1    4    4    0  501  0.63569341454E+02 -0.45269782918E+02  0.21113499605E+03  0.22513523353E+03  0.41800000000E+01 0. -1.
</event>
<event>
11    1  0.8041700E-009  0.1763612E+03  0.7561462E-02  0.1072625E+00
         22   -1    0    0    0    0  0.00000000000E+00  0.00000000000E+00  0.65813721139E+03  0.65813721139E+03  0.00000000000E+00 0. -1.
         22   -1    0    0    0    0 -0.00000000000E+00 -0.00000000000E+00 -0.11653883263E+03  0.11653883263E+03  0.00000000000E+00 0. -1.
         24    2    1    2    0    0 -0.12812601785E+01 -0.11708306505E+03  0.24343207585E+02  0.14435730415E+03  0.80847719552E+02 0.  0.
         25    2    1    2    0    0  0.13430322923E+01  0.13859800779E+03  0.11461903819E+03  0.21908440192E+03  0.12509692143E+03 0.  0.
        -24    2    1    2    0    0 -0.61772113814E-01 -0.21514942739E+02  0.40263613299E+03  0.41123433794E+03  0.80838904836E+02 0.  0.
        -11    1    3    3    0    0  0.34290301501E+02 -0.22344207511E+02  0.10173496210E+02  0.42173313972E+02  0.00000000000E+00 0.  1.
         12    1    3    3    0    0 -0.35571561679E+02 -0.94738857541E+02  0.14169711374E+02  0.10218399018E+03  0.00000000000E+00 0. -1.
         13    1    5    5    0    0 -0.24513109052E+02  0.21958811930E+02  0.13203228465E+03  0.13607206225E+03  0.00000000000E+00 0. -1.
        -14    1    5    5    0    0  0.24451336938E+02 -0.43473754669E+02  0.27060384834E+03  0.27516227569E+03  0.00000000000E+00 0.  1.
          5    1    4    4  501    0 -0.51038211233E+02  0.23678119325E+02  0.57013408282E+02  0.80209435009E+02  0.41800000000E+01 0. -1.
         -5    1    4    4    0  501  0.52381243525E+02  0.11491988847E+03  0.57605629903E+02  0.13887496691E+03  0.41800000000E+01 0. -1.
</event>
<event>
11    1  0.8041700E-009  0.1797265E+03  0.7561462E-02  0.1069864E+00
         22   -1    0    0    0    0  0.00000000000E+00  0.00000000000E+00  0.97335312428E+03  0.97335312428E+03  0.00000000000E+00 0. -1.
         22   -1    0    0    0    0 -0.00000000000E+00 -0.00000000000E+00 -0.99508847973E+03  0.99508847973E+03  0.00000000000E+00 0. -1.
         24    2    1    2    0    0  0.10926423061E+03 -0.68888752111E+02 -0.94437444885E+03  0.95653287046E+03  0.80172940338E+02 0.  0.
         25    2    1    2    0    0 -0.11498344408E+03  0.52657152691E+02  0.14398359877E+03  0.22885228818E+03  0.12509246560E+03 0.  0.
        -24    2    1    2    0    0  0.57192134710E+01  0.16231599420E+02  0.77865549463E+03  0.78305644537E+03  0.81097737913E+02 0.  0.
        -11    1    3    3    0    0  0.96061660045E+02 -0.31872440872E+02 -0.48315258300E+03  0.49363965955E+03  0.00000000000E+00 0.  1.
         12    1    3    3    0    0  0.13202570566E+02 -0.37016311239E+02 -0.46122186585E+03  0.46289321091E+03  0.00000000000E+00 0. -1.
         13    1    5    5    0    0  0.21057156400E+01 -0.24529489359E+01  0.73963951960E+03  0.73964658449E+03  0.00000000000E+00 0. -1.
        -14    1    5    5    0    0  0.36134978310E+01  0.18684548356E+02  0.39015975030E+02  0.43409860878E+02  0.00000000000E+00 0.  1.
          5    1    4    4  501    0 -0.92196476827E+02 -0.24858759247E+02  0.92153533711E+02  0.13277008107E+03  0.41800000000E+01 0.  1.
         -5    1    4    4    0  501 -0.22786967255E+02  0.77515911938E+02  0.51830065056E+02  0.96082207114E+02  0.41800000000E+01 0.  1.
</event>
<event>
11    1  0.8041700E-009  0.1581785E+03  0.7561462E-02  0.1088803E+00
         22   -1    0    0    0    0  0.00000000000E+00  0.00000000000E+00  0.99009308564E+02  0.99009308564E+02  0.00000000000E+00 0. -1.
         22   -1    0    0    0    0 -0.00000000000E+00 -0.00000000000E+00 -0.29469861014E+04  0.29469861014E+04  0.00000000000E+00 0. -1.
         24    2    1    2    0    0  0.29280064905E+02 -0.49716154097E+00 -0.25847040702E+04  0.25860316360E+04  0.77504340898E+02 0.  0.
         25    2    1    2    0    0 -0.21373172606E+02 -0.96328676535E+02 -0.28633163918E+03  0.32767271558E+03  0.12509026545E+03 0.  0.
        -24    2    1    2    0    0 -0.79068922991E+01  0.96825838076E+02  0.23058916490E+02  0.13229105837E+03  0.86783919193E+02 0.  0.
        -11    1    3    3    0    0 -0.23718414204E+02 -0.88108014940E+01 -0.50250908894E+03  0.50314568254E+03  0.00000000000E+00 0.  1.
         12    1    3    3    0    0  0.52998479109E+02  0.83136399530E+01 -0.20821949812E+04  0.20828859535E+04  0.00000000000E+00 0. -1.
         13    1    5    5    0    0 -0.35328174818E+02  0.92590055812E+02  0.30273691989E+02  0.10362188378E+03  0.00000000000E+00 0. -1.
        -14    1    5    5    0    0  0.27421282519E+02  0.42357822638E+01 -0.72147754985E+01  0.28669174593E+02  0.00000000000E+00 0.  1.
          5    1    4    4  501    0  0.34436580416E+02 -0.84834340959E+02 -0.22932948571E+03  0.24696604805E+03  0.41800000000E+01 0. -1.
         -5    1    4    4    0  501 -0.55809753022E+02 -0.11494335576E+02 -0.57002153476E+02  0.80706667528E+02  0.41800000000E+01 0. -1.
</event>
<event>
11    1  0.8041700E-009  0.1419614E+03  0.7561462E-02  0.1105388E+00
         22   -1    0    0    0    0  0.00000000000E+00  0.00000000000E+00  0.11957700051E+03  0.11957700051E+03  0.00000000000E+00 0. -1.
         22   -1    0    0    0    0 -0.00000000000E+00 -0.00000000000E+00 -0.87301915291E+03  0.87301915291E+03  0.00000000000E+00 0.  1.
        -24    2    1    2    0    0  0.45230982366E+02  0.32290842983E+02 -0.65172721721E+03  0.65910906518E+03  0.81165595221E+02 0.  0.
         25    2    1    2    0    0 -0.95944614066E+02 -0.55288033156E+02 -0.13159111750E+03  0.21266572898E+03  0.12509338312E+03 0.  0.
         24    2    1    2    0    0  0.50713631700E+02  0.22997190174E+02  0.29876182302E+02  0.12082135926E+03  0.10297801410E+03 0.  0.
        -13    1    5    5    0    0 -0.14582593820E+02  0.45062060165E+02  0.19060654657E+02  0.51054381445E+02  0.00000000000E+00 0.  1.
         14    1    5    5    0    0  0.65296225520E+02 -0.22064869991E+02  0.10815527645E+02  0.69766977813E+02  0.00000000000E+00 0. -1.
         11    1    3    3    0    0  0.14675205436E+02  0.24720123246E+02 -0.59860326701E+02  0.66405608654E+02  0.00000000000E+00 0. -1.
        -12    1    3    3    0    0  0.30555776930E+02  0.75707197367E+01 -0.59186689051E+03  0.59270345653E+03  0.00000000000E+00 0.  1.
          5    1    4    4  501    0 -0.51453570661E+02  0.18669704144E+02  0.41015012930E+00  0.54896888889E+02  0.41800000000E+01 0.  1.
         -5    1    4    4    0  501 -0.44491043405E+02 -0.73957737300E+02 -0.13200126763E+03  0.15776884010E+03  0.41800000000E+01 0.  1.
</event>
<event>
11    1  0.8041700E-009  0.2732358E+03  0.7561462E-02  0.1012201E+00
         22   -1    0    0    0    0  0.00000000000E+00  0.00000000000E+00  0.16168844399E+04  0.16168844399E+04  0.00000000000E+00 0. -1.
         22   -1    0    0    0    0 -0.00000000000E+00 -0.00000000000E+00 -0.83419556888E+02  0.83419556888E+02  0.00000000000E+00 0.  1.
         24    2    1    2    0    0 -0.10323323754E+03 -0.18712977714E+03  0.31876853804E+03  0.39219254761E+03  0.80789595463E+02 0.  0.
         25    2    1    2    0    0  0.13149057744E+03  0.26163468297E+03  0.56417896013E+03  0.64783427981E+03  0.12509546658E+03 0.  0.
        -24    2    1    2    0    0 -0.28257339901E+02 -0.74504905832E+02  0.65051738488E+03  0.66027716940E+03  0.80272125596E+02 0.  0.
        -13    1    3    3    0    0 -0.26259441890E+02 -0.95574305586E+02  0.89258181941E+02  0.13338301698E+03  0.00000000000E+00 0.  1.
         14    1    3    3    0    0 -0.76973795645E+02 -0.91555471552E+02  0.22951035610E+03  0.25880953062E+03  0.00000000000E+00 0. -1.
         13    1    5    5    0    0 -0.14075556175E+02 -0.82537345193E+02  0.62047109368E+03  0.62609497101E+03  0.00000000000E+00 0. -1.
        -14    1    5    5    0    0 -0.14181783726E+02  0.80324393613E+01  0.30046291195E+02  0.34182198384E+02  0.00000000000E+00 0.  1.
          5    1    4    4  501    0  0.94179216429E+02  0.22347893846E+03  0.53371245391E+03  0.58624143200E+03  0.41800000000E+01 0.  1.
         -5    1    4    4    0  501  0.37311361008E+02  0.38155744514E+02  0.30466506218E+02  0.61592847805E+02  0.41800000000E+01 0.  1.
</event>
<event>
11    1  0.8041700E-009  0.1400733E+03  0.7561462E-02  0.1107477E+00
         22   -1    0    0    0    0  0.00000000000E+00  0.00000000000E+00  0.24466539189E+03  0.24466539189E+03  0.00000000000E+00 0.  1.
         22   -1    0    0    0    0 -0.00000000000E+00 -0.00000000000E+00 -0.16812821767E+04  0.16812821767E+04  0.00000000000E+00 0.  1.
         24    2    1    2    0    0  0.42715775413E+02 -0.33146829127E+02 -0.14953355067E+04  0.14983531606E+04  0.78170113836E+02 0.  0.
         25    2    1    2    0    0 -0.10117060719E+03  0.45345994320E+02 -0.13130176358E+03  0.21255505112E+03  0.12509094962E+03 0.  0.
        -24    2    1    2    0    0  0.58454831779E+02 -0.12199165194E+02  0.19002048540E+03  0.21503935688E+03  0.81045377070E+02 0.  0.
        -11    1    3    3    0    0  0.42623274283E+02 -0.46511832665E+02 -0.14416234704E+04  0.14430032310E+04  0.00000000000E+00 0.  1.
         12    1    3    3    0    0  0.92501129773E-01  0.13365003538E+02 -0.53712036238E+02  0.55349929655E+02  0.00000000000E+00 0. -1.
         11    1    5    5    0    0  0.60595299089E+02  0.19606225535E+02  0.91445272284E+02  0.11143801943E+03  0.00000000000E+00 0. -1.
        -12    1    5    5    0    0 -0.21404673106E+01 -0.31805390729E+02  0.98575213118E+02  0.10360133745E+03  0.00000000000E+00 0.  1.
          5    1    4    4  501    0 -0.43460037491E+02  0.16166403966E+02  0.17906238242E+02  0.49882193655E+02  0.41800000000E+01 0. -1.
         -5    1    4    4    0  501 -0.57710569701E+02  0.29179590355E+02 -0.14920800182E+03  0.16267285746E+03  0.41800000000E+01 0. -1.
</event>
<event>
11    1  0.8041700E-009  0.1472307E+03  0.7561462E-02  0.1099743E+00
         22   -1    0    0    0    0  0.00000000000E+00  0.00000000000E+00  0.13051795641E+04  0.13051795641E+04  0.00000000000E+00 0.  1.
         22   -1    0    0    0    0 -0.00000000000E+00 -0.00000000000E+00 -0.16964817288E+03  0.16964817288E+03  0.00000000000E+00 0.  1.
        -24    2    1    2    0    0  0.22289352460E+02 -0.61329366700E+02 -0.54395934016E+02  0.11656185694E+03  0.79810039490E+02 0.  0.
         25    2    1    2    0    0 -0.31937870358E+02  0.10726273833E+03  0.33900579886E+01  0.16788211062E+03  0.12509031928E+03 0.  0.
         24    2    1    2    0    0  0.96485178980E+01 -0.45933371627E+02  0.11865372673E+04  0.11903837694E+04  0.83305842387E+02 0.  0.
        -11    1    5    5    0    0  0.40573318494E+02 -0.48407773326E+02  0.69303914632E+03  0.69591146349E+03  0.00000000000E+00 0.  1.
         12    1    5    5    0    0 -0.30924800595E+02  0.24744016993E+01  0.49349812095E+03  0.49447230593E+03  0.00000000000E+00 0. -1.
         11    1    3    3    0    0  0.91368446282E+01 -0.78437037345E+02 -0.31274504053E+02  0.84934947819E+02  0.00000000000E+00 0. -1.
        -12    1    3    3    0    0  0.13152507832E+02  0.17107670645E+02 -0.23121429963E+02  0.31626909123E+02  0.00000000000E+00 0.  1.
          5    1    4    4  501    0  0.34886390738E+02  0.82636817505E+02  0.25231008659E+02  0.93273683663E+02  0.41800000000E+01 0. -1.
         -5    1    4    4    0  501 -0.66824261096E+02  0.24625920821E+02 -0.21840950671E+02  0.74608426960E+02  0.41800000000E+01 0. -1.
</event>
<event>
11    1  0.8041700E-009  0.1312578E+03  0.7561462E-02  0.1117733E+00
         22   -1    0    0    0    0  0.00000000000E+00  0.00000000000E+00  0.83705088771E+02  0.83705088771E+02  0.00000000000E+00 0. -1.
         22   -1    0    0    0    0 -0.00000000000E+00 -0.00000000000E+00 -0.45676564520E+03  0.45676564520E+03  0.00000000000E+00 0.  1.
         24    2    1    2    0    0  0.41430905591E+02  0.77399282320E+01 -0.22741516891E+03  0.24484861581E+03  0.80353961869E+02 0.  0.
         25    2    1    2    0    0 -0.32240918872E+02 -0.10405570957E+02 -0.16612956032E+03  0.21069942472E+03  0.12508982377E+03 0.  0.
        -24    2    1    2    0    0 -0.91899867195E+01  0.26656427254E+01  0.20484172805E+02  0.84922693428E+02  0.81857809747E+02 0.  0.
        -13    1    3    3    0    0  0.17245671838E+02  0.42899747881E+02 -0.14249725835E+03  0.14981078133E+03  0.00000000000E+00 0.  1.
         14    1    3    3    0    0  0.24185233753E+02 -0.35159819649E+02 -0.84917910566E+02  0.95037834489E+02  0.00000000000E+00 0. -1.
         11    1    5    5    0    0  0.24892947667E+02  0.29629946124E+02  0.12997619581E+02  0.40823163347E+02  0.00000000000E+00 0. -1.
        -12    1    5    5    0    0 -0.34082934387E+02 -0.26964303399E+02  0.74865532237E+01  0.44099530081E+02  0.00000000000E+00 0.  1.
          5    1    4    4  501    0  0.38241767475E+01 -0.49286583430E+02 -0.14535817300E+03  0.15359121880E+03  0.41800000000E+01 0. -1.
         -5    1    4    4    0  501 -0.36065095619E+02  0.38881012473E+02 -0.20771387318E+02  0.57108205926E+02  0.41800000000E+01 0. -1.
</event>
<event>
11    1  0.8041700E-009  0.1713628E+03  0.7561462E-02  0.1076852E+00
         22   -1    0    0    0    0  0.00000000000E+00  0.00000000000E+00  0.38338976211E+03  0.38338976211E+03  0.00000000000E+00 0.  1.
         22   -1    0    0    0    0 -0.00000000000E+00 -0.00000000000E+00 -0.12131332009E+04  0.12131332009E+04  0.00000000000E+00 0.  1.
         24    2    1    2    0    0  0.14615057367E+02 -0.11450723652E+03 -0.10911833959E+04  0.11008244941E+04  0.88362074859E+02 0.  0.
         25    2    1    2    0    0  0.71773521245E+01  0.14931751862E+03 -0.23788378398E+02  0.19636700875E+03  0.12508748710E+03 0.  0.
        -24    2    1    2    0    0 -0.21792409491E+02 -0.34810282105E+02  0.28522833553E+03  0.29933146011E+03  0.80978112912E+02 0.  0.
        -11    1    3    3    0    0  0.25002018084E+02 -0.12044160905E+03 -0.10644825001E+04  0.10715662719E+04  0.00000000000E+00 0.  1.
         12    1    3    3    0    0 -0.10386960717E+02  0.59343725371E+01 -0.26700895803E+02  0.29258222212E+02  0.00000000000E+00 0. -1.
         11    1    5    5    0    0 -0.81166673176E+00  0.17304814693E+02  0.13795517929E+02  0.22145693246E+02  0.00000000000E+00 0. -1.
        -12    1    5    5    0    0 -0.20980742759E+02 -0.52115096798E+02  0.27143281760E+03  0.27718576686E+03  0.00000000000E+00 0.  1.
          5    1    4    4  501    0  0.38502837925E+02 -0.33250046251E+01 -0.80345215938E+01  0.39693199937E+02  0.41800000000E+01 0.  1.
         -5    1    4    4    0  501 -0.31325485800E+02  0.15264252325E+03 -0.15753856805E+02  0.15667380881E+03  0.41800000000E+01 0.  1.
</event>
<event>
11    1  0.8041700E-009  0.1422020E+03  0.7561462E-02  0.1105124E+00
         22   -1    0    0    0    0  0.00000000000E+00  0.00000000000E+00  0.32514579383E+03  0.32514579383E+03  0.00000000000E+00 0. -1.
         22   -1    0    0    0    0 -0.00000000000E+00 -0.00000000000E+00 -0.21229697476E+03  0.21229697476E+03  0.00000000000E+00 0. -1.
        -24    2    1    2    0    0 -0.10667202841E+00 -0.67037523226E+02 -0.97446912485E+02  0.14300613755E+03  0.80379187144E+02 0.  0.
         25    2    1    2    0    0 -0.60964618770E+02  0.63023111282E+02 -0.80317669386E+01  0.15296424584E+03  0.12507979024E+03 0.  0.
         24    2    1    2    0    0  0.61071290798E+02  0.40144119440E+01  0.21832749850E+03  0.24147238520E+03  0.83043351039E+02 0.  0.
        -13    1    5    5    0    0  0.11059775250E+01  0.23267548108E+02  0.12942291689E+02  0.26647793444E+02  0.00000000000E+00 0.  1.
         14    1    5    5    0    0  0.59965313273E+02 -0.19253136165E+02  0.20538520681E+03  0.21482459176E+03  0.00000000000E+00 0. -1.
         13    1    3    3    0    0  0.33774169637E+02 -0.20549863695E+02 -0.67320318617E+02  0.78070588132E+02  0.00000000000E+00 0. -1.
        -14    1    3    3    0    0 -0.33880841665E+02 -0.46487659531E+02 -0.30126593868E+02  0.64935549422E+02  0.00000000000E+00 0.  1.
          5    1    4    4  501    0 -0.63881171111E+02  0.60594616807E+02  0.45457065310E+02  0.99178267756E+02  0.41800000000E+01 0. -1.
         -5    1    4    4    0  501  0.29165523417E+01  0.24284944753E+01 -0.53488832249E+02  0.53785978083E+02  0.41800000000E+01 0. -1.
</event>
<event>
11    1  0.8041700E-009  0.1586818E+03  0.7561462E-02  0.1088324E+00
         22   -1    0    0    0    0  0.00000000000E+00  0.00000000000E+00  0.10674713474E+04  0.10674713474E+04  0.00000000000E+00 0.  1.
         22   -1    0    0    0    0 -0.00000000000E+00 -0.00000000000E+00 -0.19682515507E+03  0.19682515507E+03  0.00000000000E+00 0.  1.
         24    2    1    2    0    0  0.25155842579E+02 -0.90686463769E+02 -0.14419651277E+03  0.18993546345E+03  0.80162303205E+02 0.  0.
         25    2    1    2    0    0 -0.22072824226E+02  0.16439853044E+03  0.40895834568E+03  0.45870330187E+03  0.12509078412E+03 0.  0.
        -24    2    1    2    0    0 -0.30830183525E+01 -0.73712066668E+02  0.60588435940E+03  0.61565773712E+03  0.80595400228E+02 0.  0.
        -13    1    3    3    0    0 -0.81636772115E+01 -0.44425054896E+02 -0.11959859633E+03  0.12784387108E+03  0.00000000000E+00 0.  1.
         14    1    3    3    0    0  0.33319519790E+02 -0.46261408873E+02 -0.24597916432E+02  0.62091592367E+02  0.00000000000E+00 0. -1.
         13    1    5    5    0    0  0.46647635298E+01  0.17058515313E+02  0.12159381203E+03  0.12287313819E+03  0.00000000000E+00 0. -1.
        -14    1    5    5    0    0 -0.77477818824E+01 -0.90770581981E+02  0.48429054736E+03  0.49278459893E+03  0.00000000000E+00 0.  1.
          5    1    4    4  501    0  0.12281555838E+02  0.88920837644E+02  0.82976013280E+02  0.12231207283E+03  0.41800000000E+01 0.  1.
         -5    1    4    4    0  501 -0.34354380064E+02  0.75477692793E+02  0.32598233240E+03  0.33639122904E+03  0.41800000000E+01 0.  1.
</event>
<event>
11    1  0.8041700E-009  0.2549830E+03  0.7561462E-02  0.1021278E+00
         22   -1    0    0    0    0  0.00000000000E+00  0.00000000000E+00  0.43468620047E+03  0.43468620047E+03  0.00000000000E+00 0.  1.
         22   -1    0    0    0    0 -0.00000000000E+00 -0.00000000000E+00 -0.61116259789E+03  0.61116259789E+03  0.00000000000E+00 0. -1.
         24    2    1    2    0    0 -0.21522910701E+03 -0.61909716885E+02 -0.45391824958E+03  0.51266280886E+03  0.81394082947E+02 0.  0.
         25    2    1    2    0    0  0.20151207671E+03  0.75050203228E+02  0.65753533401E+01  0.24885746544E+03  0.12508857968E+03 0.  0.
        -24    2    1    2    0    0  0.13717030294E+02 -0.13140486343E+02  0.27086649882E+03  0.28432852407E+03  0.84339908179E+02 0.  0.
        -11    1    3    3    0    0 -0.28518486389E+02 -0.40814191844E+02 -0.80943024389E+02  0.95030918752E+02  0.00000000000E+00 0.  1.
         12    1    3    3    0    0 -0.18671062062E+03 -0.21095525042E+02 -0.37297522519E+03  0.41763189011E+03  0.00000000000E+00 0. -1.
         11    1    5    5    0    0  0.12662305478E+02 -0.98502384743E+01  0.28547463164E+01  0.16294500746E+02  0.00000000000E+00 0. -1.
        -12    1    5    5    0    0  0.10547248152E+01 -0.32902478684E+01  0.26801175251E+03  0.26803402332E+03  0.00000000000E+00 0.  1.
          5    1    4    4  501    0  0.57264767701E+02  0.58311336097E+02 -0.46579989748E+02  0.94162802540E+02  0.41800000000E+01 0.  1.
         -5    1    4    4    0  501  0.14424730901E+03  0.16738867131E+02  0.53155343088E+02  0.15469466290E+03  0.41800000000E+01 0.  1.
</event>
<event>
11    1  0.8041700E-009  0.1307355E+03  0.7561462E-02  0.1118369E+00
         22   -1    0    0    0    0  0.00000000000E+00  0.00000000000E+00  0.25934281226E+03  0.25934281226E+03  0.00000000000E+00 0.  1.
         22   -1    0    0    0    0 -0.00000000000E+00 -0.00000000000E+00 -0.52422346698E+03  0.52422346698E+03  0.00000000000E+00 0.  1.
         24    2    1    2    0    0  0.34800148424E+02 -0.22325916363E+02 -0.40923071061E+03  0.41907923312E+03  0.80300263109E+02 0.  0.
         25    2    1    2    0    0 -0.17550320528E+02 -0.74464535646E+01 -0.61302672947E+02  0.14060161481E+03  0.12508929992E+03 0.  0.
        -24    2    1    2    0    0 -0.17249827896E+02  0.29772369928E+02  0.20565272884E+03  0.22388543132E+03  0.81533372950E+02 0.  0.
        -13    1    3    3    0    0 -0.33992903717E+01  0.16183324363E+01 -0.31071474321E+03  0.31073755135E+03  0.00000000000E+00 0.  1.
         14    1    3    3    0    0  0.38199438796E+02 -0.23944248799E+02 -0.98515967399E+02  0.10834168176E+03  0.00000000000E+00 0. -1.
         13    1    5    5    0    0 -0.96588785762E+00 -0.23699440556E+02  0.11472228935E+03  0.11714862396E+03  0.00000000000E+00 0. -1.
        -14    1    5    5    0    0 -0.16283940038E+02  0.53471810483E+02  0.90930439483E+02  0.10673680735E+03  0.00000000000E+00 0.  1.
          5    1    4    4  501    0 -0.58206879759E+02 -0.41993470324E+02 -0.25819476745E+02  0.76391165592E+02  0.41800000000E+01 0.  1.
         -5    1    4    4    0  501  0.40656559231E+02  0.34547016760E+02 -0.35483196202E+02  0.64210449213E+02  0.41800000000E+01 0.  1.
</event>
<event>
11    1  0.1109316E-008  0.1526727E+03  0.7561462E-02  0.1094179E+00
         22   -1    0    0    0    0  0.00000000000E+00  0.00000000000E+00  0.25254401569E+04  0.25254401569E+04  0.00000000000E+00 0.  1.
         22   -1    0    0    0    0 -0.00000000000E+00 -0.00000000000E+00 -0.12066179488E+04  0.12066179488E+04  0.00000000000E+00 0. -1.
         24    2    1    2    0    0 -0.45581857665E+02  0.60349816391E+02 -0.42548920080E+03  0.43969349486E+03  0.81052472722E+02 0.  0.
         25    2    1    2    0    0  0.12634586037E+03 -0.26645206917E+02 -0.76213172162E+03  0.78304660502E+03  0.12507590115E+03 0.  0.
        -24    2    1    2    0    0 -0.80764002702E+02 -0.33704609473E+02  0.25064431306E+04  0.25093180058E+04  0.82224464075E+02 0.  0.
        -11    1    3    3    0    0  0.21852418470E+02  0.18378702782E+02 -0.16183555467E+03  0.16433518085E+03  0.00000000000E+00 0.  1.
         12    1    3    3    0    0 -0.67434276136E+02  0.41971113608E+02 -0.26365364613E+03  0.27535831400E+03  0.00000000000E+00 0. -1.
         11    1    5    5    0    0  0.10113051655E+02  0.62739316591E+01  0.73398153636E+03  0.73407801475E+03  0.00000000000E+00 0. -1.
        -12    1    5    5    0    0 -0.90877054357E+02 -0.39978541133E+02  0.17724615942E+04  0.17752399910E+04  0.00000000000E+00 0.  1.
          5    1    4    4  501    0  0.58591480017E+02 -0.25944390836E+02 -0.10985346499E+03  0.12724515361E+03  0.41800000000E+01 0.  1.
         -5    1    4    4    0  501  0.67754380351E+02 -0.70081608166E+00 -0.65227825663E+03  0.65580145141E+03  0.41800000000E+01 0.  1.
</event>
<event>
11    1  0.8041700E-009  0.2004028E+03  0.7561462E-02  0.1054239E+00
         22   -1    0    0    0    0  0.00000000000E+00  0.00000000000E+00  0.71000785559E+03  0.71000785559E+03  0.00000000000E+00 0.  1.
         22   -1    0    0    0    0 -0.00000000000E+00 -0.00000000000E+00 -0.83969192194E+03  0.83969192194E+03  0.00000000000E+00 0. -1.
         24    2    1    2    0    0  0.64263754277E+02  0.94461174207E+02 -0.69704654866E+03  0.71075008338E+03  0.78987635038E+02 0.  0.
         25    2    1    2    0    0  0.84212609627E+02 -0.15081273162E+03 -0.29442040916E+02  0.21529115433E+03  0.12508878336E+03 0.  0.
        -24    2    1    2    0    0 -0.14847636390E+03  0.56351557409E+02  0.59680452322E+03  0.62365853982E+03  0.86911487693E+02 0.  0.
        -11    1    3    3    0    0  0.24211721380E+01 -0.39473315927E+01 -0.20912944865E+03  0.20918071086E+03  0.00000000000E+00 0.  1.
         12    1    3    3    0    0  0.61842582139E+02  0.98408505799E+02 -0.48791710001E+03  0.50156937253E+03  0.00000000000E+00 0. -1.
         13    1    5    5    0    0 -0.55298992771E+02  0.47847686697E+02  0.14650240147E+03  0.16373861291E+03  0.00000000000E+00 0. -1.
        -14    1    5    5    0    0 -0.93177371133E+02  0.85038707127E+01  0.45030212175E+03  0.45991992690E+03  0.00000000000E+00 0.  1.
          5    1    4    4  501    0  0.52241629245E+01 -0.59203494529E+02  0.43687425514E+02  0.73881047575E+02  0.41800000000E+01 0.  1.
         -5    1    4    4    0  501  0.78988446702E+02 -0.91609237087E+02 -0.73129466430E+02  0.14141010676E+03  0.41800000000E+01 0.  1.
</event>
<event>
11    1  0.8041700E-009  0.1282532E+03  0.7561462E-02  0.1121434E+00
         22   -1    0    0    0    0  0.00000000000E+00  0.00000000000E+00  0.25937364879E+04  0.25937364879E+04  0.00000000000E+00 0.  1.
         22   -1    0    0    0    0 -0.00000000000E+00 -0.00000000000E+00 -0.43799016070E+03  0.43799016070E+03  0.00000000000E+00 0.  1.
        -24    2    1    2    0    0  0.21761524722E+02 -0.17875796831E+02 -0.42204100068E+03  0.43047121072E+03  0.79960921261E+02 0.  0.
         25    2    1    2    0    0 -0.33588677893E+02  0.23549513290E+02  0.38362281601E+03  0.40558280355E+03  0.12509263255E+03 0.  0.
         24    2    1    2    0    0  0.11827153171E+02 -0.56737164594E+01  0.21941645119E+04  0.21956726344E+04  0.80301553024E+02 0.  0.
        -11    1    5    5    0    0  0.28736206248E+02  0.25178849765E+01  0.20596787681E+04  0.20598807580E+04  0.00000000000E+00 0.  1.
         12    1    5    5    0    0 -0.16909053077E+02 -0.81916014359E+01  0.13448574381E+03  0.13579187641E+03  0.00000000000E+00 0. -1.
         13    1    3    3    0    0  0.16121419213E+02 -0.35529582592E+02 -0.92270064544E+02  0.10017991918E+03  0.00000000000E+00 0. -1.
        -14    1    3    3    0    0  0.56401055088E+01  0.17653785761E+02 -0.32977093614E+03  0.33029129153E+03  0.00000000000E+00 0.  1.
          5    1    4    4  501    0 -0.36614672396E+02  0.24116259496E+02  0.39268065261E+03  0.39514275337E+03  0.41800000000E+01 0.  1.
         -5    1    4    4    0  501  0.30259945034E+01 -0.56674620581E+00 -0.90578366005E+01  0.10440050186E+02  0.41800000000E+01 0.  1.
</event>
<event>
11    1  0.8041700E-009  0.1429054E+03  0.7561462E-02  0.1104357E+00
         22   -1    0    0    0    0  0.00000000000E+00  0.00000000000E+00  0.35069901753E+03  0.35069901753E+03  0.00000000000E+00 0. -1.
         22   -1    0    0    0    0 -0.00000000000E+00 -0.00000000000E+00 -0.35225978300E+03  0.35225978300E+03  0.00000000000E+00 0. -1.
         24    2    1    2    0    0  0.51221763695E+02  0.46303005320E+02 -0.30442614771E+03  0.32269970497E+03  0.81805762642E+02 0.  0.
         25    2    1    2    0    0 -0.38297276441E+02 -0.63209090335E+02  0.18995995441E+03  0.23914546813E+03  0.12507477829E+03 0.  0.
        -24    2    1    2    0    0 -0.12924487254E+02  0.16906085014E+02  0.11290542784E+03  0.14111362743E+03  0.81930227198E+02 0.  0.
        -11    1    3    3    0    0 -0.48736534889E+01 -0.16667758854E+02 -0.22449730991E+02  0.28382337908E+02  0.00000000000E+00 0.  1.
         12    1    3    3    0    0  0.56095417184E+02  0.62970764174E+02 -0.28197641672E+03  0.29431736706E+03  0.00000000000E+00 0. -1.
         13    1    5    5    0    0  0.53847058922E+01 -0.20400673544E+02  0.92389078325E+02  0.94767738880E+02  0.00000000000E+00 0. -1.
        -14    1    5    5    0    0 -0.18309193146E+02  0.37306758559E+02  0.20516349513E+02  0.46345888546E+02  0.00000000000E+00 0.  1.
          5    1    4    4  501    0 -0.82694488770E+02 -0.24904915423E+02  0.11077718573E+03  0.14052647638E+03  0.41800000000E+01 0.  1.
         -5    1    4    4    0  501  0.44397212329E+02 -0.38304174912E+02  0.79182768675E+02  0.98618991748E+02  0.41800000000E+01 0.  1.
</event>
<event>
11    1  0.8041700E-009  0.1447242E+03  0.7561462E-02  0.1102395E+00
         22   -1    0    0    0    0  0.00000000000E+00  0.00000000000E+00  0.28075153530E+04  0.28075153530E+04  0.00000000000E+00 0.  1.
         22   -1    0    0    0    0 -0.00000000000E+00 -0.00000000000E+00 -0.10060962929E+03  0.10060962929E+03  0.00000000000E+00 0.  1.
        -24    2    1    2    0    0 -0.50237779570E+02 -0.51106430821E+02 -0.59572946099E+02  0.12785579025E+03  0.87535509515E+02 0.  0.
         25    2    1    2    0    0  0.86670831557E+02  0.86473831813E+02  0.15073812585E+04  0.15175095877E+04  0.12509010184E+03 0.  0.
         24    2    1    2    0    0 -0.36433051987E+02 -0.35367400992E+02  0.12590974112E+04  0.12627596043E+04  0.81592321363E+02 0.  0.
        -13    1    5    5    0    0  0.13851257740E+00  0.55077477701E+01  0.84818493859E+03  0.84820283218E+03  0.00000000000E+00 0.  1.
         14    1    5    5    0    0 -0.36571564564E+02 -0.40875148762E+02  0.41091247265E+03  0.41455677211E+03  0.00000000000E+00 0. -1.
         13    1    3    3    0    0 -0.65518970074E+02 -0.83687279113E+01 -0.24321810508E+02  0.70386941352E+02  0.00000000000E+00 0. -1.
        -14    1    3    3    0    0  0.15281190504E+02 -0.42737702910E+02 -0.35251135591E+02  0.57468848898E+02  0.00000000000E+00 0.  1.
          5    1    4    4  501    0 -0.99009114924E+01 -0.25034251997E+02  0.20868363068E+03  0.21045444147E+03  0.41800000000E+01 0.  1.
         -5    1    4    4    0  501  0.96571743050E+02  0.11150808381E+03  0.12986976278E+04  0.13070551462E+04  0.41800000000E+01 0.  1.
</event>
<event>
11    1  0.8041700E-009  0.1450842E+03  0.7561462E-02  0.1102010E+00
         22   -1    0    0    0    0  0.00000000000E+00  0.00000000000E+00  0.14001808228E+04  0.14001808228E+04  0.00000000000E+00 0.  1.
         22   -1    0    0    0    0 -0.00000000000E+00 -0.00000000000E+00 -0.86615481616E+03  0.86615481616E+03  0.00000000000E+00 0.  1.
         24    2    1    2    0    0  0.31776895443E+02 -0.39991252364E+02 -0.78486834710E+03  0.79071951345E+03  0.81301631768E+02 0.  0.
         25    2    1    2    0    0 -0.92046527001E+02  0.79559760251E+02  0.23930283130E+02  0.17613171982E+03  0.12508959066E+03 0.  0.
        -24    2    1    2    0    0  0.60269631557E+02 -0.39568507887E+02  0.12949640706E+04  0.12994844057E+04  0.80806442475E+02 0.  0.
        -11    1    3    3    0    0  0.16193080900E+02 -0.23642378918E+02 -0.73935387698E+03  0.73990900343E+03  0.00000000000E+00 0.  1.
         12    1    3    3    0    0  0.15583814544E+02 -0.16348873446E+02 -0.45514470117E+02  0.50810510022E+02  0.00000000000E+00 0. -1.
         13    1    5    5    0    0  0.23509316090E+02 -0.95781239857E+01  0.88001766532E+02  0.91590061223E+02  0.00000000000E+00 0. -1.
        -14    1    5    5    0    0  0.36760315467E+02 -0.29990383902E+02  0.12069623041E+04  0.12078943445E+04  0.00000000000E+00 0.  1.
          5    1    4    4  501    0  0.13650049011E+02  0.66364242598E+02  0.81080309072E+01  0.68364823548E+02  0.41800000000E+01 0.  1.
         -5    1    4    4    0  501 -0.10569657601E+03  0.13195517654E+02  0.15822252223E+02  0.10776689627E+03  0.41800000000E+01 0.  1.
</event>
<event>
11    1  0.8041700E-009  0.2290608E+03  0.7561462E-02  0.1035685E+00
         22   -1    0    0    0    0  0.00000000000E+00  0.00000000000E+00  0.32700202088E+03  0.32700202088E+03  0.00000000000E+00 0. -1.
         22   -1    0    0    0    0 -0.00000000000E+00 -0.00000000000E+00 -0.91516319464E+03  0.91516319464E+03  0.00000000000E+00 0. -1.
        -24    2    1    2    0    0 -0.42992203939E+02  0.20307369882E+03 -0.71047767962E+03  0.74370966371E+03  0.72375920697E+02 0.  0.
         25    2    1    2    0    0  0.70529591637E+02 -0.12899347067E+03 -0.12308405647E+03  0.22893586634E+03  0.12509279423E+03 0.  0.
         24    2    1    2    0    0 -0.27537387697E+02 -0.74080228158E+02  0.24540056234E+03  0.26951968548E+03  0.78569949330E+02 0.  0.
        -13    1    5    5    0    0 -0.87372103932E+01 -0.97847422098E+01 -0.19470318245E+01  0.13261634835E+02  0.00000000000E+00 0.  1.
         14    1    5    5    0    0 -0.18800177304E+02 -0.64295485948E+02  0.24734759416E+03  0.25625805064E+03  0.00000000000E+00 0. -1.
         11    1    3    3    0    0 -0.25498262836E+02  0.19543526624E+03 -0.59850941131E+03  0.63012587641E+03  0.00000000000E+00 0. -1.
        -12    1    3    3    0    0 -0.17493941103E+02  0.76384325886E+01 -0.11196826831E+03  0.11358378730E+03  0.00000000000E+00 0.  1.
          5    1    4    4  501    0  0.38305785241E+02 -0.16454733011E+02 -0.10152679787E+03  0.10983284803E+03  0.41800000000E+01 0. -1.
         -5    1    4    4    0  501  0.32223806395E+02 -0.11253873765E+03 -0.21557258605E+02  0.11910301831E+03  0.41800000000E+01 0. -1.
</event>
<event>
11    1  0.8041700E-009  0.1841480E+03  0.7561462E-02  0.1066336E+00
         22   -1    0    0    0    0  0.00000000000E+00  0.00000000000E+00  0.38087794768E+03  0.38087794768E+03  0.00000000000E+00 0. -1.
         22   -1    0    0    0    0 -0.00000000000E+00 -0.00000000000E+00 -0.11072390436E+04  0.11072390436E+04  0.00000000000E+00 0. -1.
        -24    2    1    2    0    0 -0.11477913398E+02  0.10992027894E+03 -0.98167070148E+03  0.99072357807E+03  0.75110796814E+02 0.  0.
         25    2    1    2    0    0 -0.48207291023E+02 -0.21084704089E+03  0.62602596210E+02  0.25758159565E+03  0.12509506708E+03 0.  0.
         24    2    1    2    0    0  0.59685204421E+02  0.10092676195E+03  0.19270700934E+03  0.23981181756E+03  0.81395217840E+02 0.  0.
        -13    1    5    5    0    0  0.66300368954E+02  0.37867492532E+02  0.12917932902E+03  0.15005660586E+03  0.00000000000E+00 0.  1.
         14    1    5    5    0    0 -0.66151645328E+01  0.63059269416E+02  0.63527680314E+02  0.89755211699E+02  0.00000000000E+00 0. -1.
         11    1    3    3    0    0 -0.17239982743E+01  0.11493973095E+03 -0.95487526358E+03  0.96176966209E+03  0.00000000000E+00 0. -1.
        -12    1    3    3    0    0 -0.97539151240E+01 -0.50194520119E+01 -0.26795437896E+02  0.28953915983E+02  0.00000000000E+00 0.  1.
          5    1    4    4  501    0  0.17277492074E+02 -0.89923693009E+02  0.76377776812E+02  0.11931395345E+03  0.41800000000E+01 0.  1.
         -5    1    4    4    0  501 -0.65484783097E+02 -0.12092334788E+03 -0.13775180601E+02  0.13826764220E+03  0.41800000000E+01 0.  1.
</event>
<event>
11    1  0.8041700E-009  0.2041181E+03  0.7561462E-02  0.1051649E+00
         22   -1    0    0    0    0  0.00000000000E+00  0.00000000000E+00  0.36436904194E+03  0.36436904194E+03  0.00000000000E+00 0.  1.
         22   -1    0    0    0    0 -0.00000000000E+00 -0.00000000000E+00 -0.13006250993E+04  0.13006250993E+04  0.00000000000E+00 0. -1.
        -24    2    1    2    0    0 -0.39825664333E+02  0.45114789568E+02 -0.11844360716E+04  0.11885997949E+04  0.79115339457E+02 0.  0.
         25    2    1    2    0    0 -0.17922112611E+02 -0.18547991291E+03  0.85668441070E+02  0.24022873330E+03  0.12508701888E+03 0.  0.
         24    2    1    2    0    0  0.57747776944E+02  0.14036512334E+03  0.16251157313E+03  0.23616561309E+03  0.79542515755E+02 0.  0.
        -11    1    5    5    0    0  0.36062865932E+01  0.10780901417E+03  0.95505839947E+02  0.14407343372E+03  0.00000000000E+00 0.  1.
         12    1    5    5    0    0  0.54141490351E+02  0.32556109166E+02  0.67005733185E+02  0.92092179370E+02  0.00000000000E+00 0. -1.
         11    1    3    3    0    0  0.14583163688E+02  0.80117627013E+00 -0.56716026089E+03  0.56734828111E+03  0.00000000000E+00 0. -1.
        -12    1    3    3    0    0 -0.54408828021E+02  0.44313613298E+02 -0.61727581071E+03  0.62125151378E+03  0.00000000000E+00 0.  1.
          5    1    4    4  501    0  0.24158240768E+02  0.31325071984E+01  0.30415652855E+02  0.39192059616E+02  0.41800000000E+01 0.  1.
         -5    1    4    4    0  501 -0.42080353379E+02 -0.18861242011E+03  0.55252788215E+02  0.20103667368E+03  0.41800000000E+01 0.  1.
</event>
<event>
11    1  0.8041700E-009  0.1338429E+03  0.7561462E-02  0.1114635E+00
         22   -1    0    0    0    0  0.00000000000E+00  0.00000000000E+00  0.29063345345E+03  0.29063345345E+03  0.00000000000E+00 0. -1.
         22   -1    0    0    0    0 -0.00000000000E+00 -0.00000000000E+00 -0.15850109345E+03  0.15850109345E+03  0.00000000000E+00 0. -1.
         24    2    1    2    0    0 -0.60270427708E+01 -0.48926403156E+02 -0.64673676334E+02  0.11421509953E+03  0.80201536019E+02 0.  0.
         25    2    1    2    0    0  0.14991502441E+02  0.40845793706E+02  0.12572643302E+02  0.13303722356E+03  0.12509079696E+03 0.  0.
        -24    2    1    2    0    0 -0.89644596706E+01  0.80806094502E+01  0.18423339304E+03  0.20188222381E+03  0.81662913198E+02 0.  0.
        -13    1    3    3    0    0 -0.29839443040E+02 -0.25318805064E+02  0.24207650245E+01  0.39208345465E+02  0.00000000000E+00 0.  1.
         14    1    3    3    0    0  0.23812400269E+02 -0.23607598093E+02 -0.67094441359E+02  0.75006754066E+02  0.00000000000E+00 0. -1.
         13    1    5    5    0    0  0.20677363613E+01 -0.24656803466E+02  0.15399860579E+03  0.15597372880E+03  0.00000000000E+00 0. -1.
        -14    1    5    5    0    0 -0.11032196032E+02  0.32737412916E+02  0.30234787252E+02  0.45908495008E+02  0.00000000000E+00 0.  1.
          5    1    4    4  501    0  0.42051630275E+02 -0.28785133181E+02 -0.15018193556E+02  0.53291106563E+02  0.41800000000E+01 0. -1.
         -5    1    4    4    0  501 -0.27060127834E+02  0.69630926887E+02  0.27590836858E+02  0.79746116997E+02  0.41800000000E+01 0. -1.
</event>
<event>
11    1  0.8041700E-009  0.1401490E+03  0.7561462E-02  0.1107392E+00
         22   -1    0    0    0    0  0.00000000000E+00  0.00000000000E+00  0.10291811301E+03  0.10291811301E+03  0.00000000000E+00 0.  1.
         22   -1    0    0    0    0 -0.00000000000E+00 -0.00000000000E+00 -0.13130642738E+04  0.13130642738E+04  0.00000000000E+00 0.  1.
        -24    2    1    2    0    0 -0.25899196793E+02  0.55319236357E+02 -0.93025871412E+03  0.93585727055E+03  0.81954678602E+02 0.  0.
         25    2    1    2    0    0  0.52726431804E+02 -0.57100537564E+02 -0.34335210181E+03  0.37359939995E+03  0.12508116493E+03 0.  0.
         24    2    1    2    0    0 -0.26827235011E+02  0.17813012070E+01  0.63464655117E+02  0.10652571633E+03  0.81222485912E+02 0.  0.
        -11    1    5    5    0    0 -0.55814371802E+02  0.60312548781E+01  0.44356774168E+02  0.71548190401E+02  0.00000000000E+00 0.  1.
         12    1    5    5    0    0  0.28987136791E+02 -0.42499536711E+01  0.19107880948E+02  0.34977525926E+02  0.00000000000E+00 0. -1.
         11    1    3    3    0    0 -0.29316012801E+02 -0.87351353020E+01 -0.15765135559E+03  0.16059165954E+03  0.00000000000E+00 0. -1.
        -12    1    3    3    0    0  0.34168160082E+01  0.64054371659E+02 -0.77260735853E+03  0.77526561101E+03  0.00000000000E+00 0.  1.
          5    1    4    4  501    0  0.36873278915E+02 -0.94762487109E+02 -0.19894434221E+03  0.22346340049E+03  0.41800000000E+01 0. -1.
         -5    1    4    4    0  501  0.15853152888E+02  0.37661949544E+02 -0.14440775960E+03  0.15013599945E+03  0.41800000000E+01 0. -1.
</event>
<event>
11    1  0.8041700E-009  0.1441553E+03  0.7561462E-02  0.1103005E+00
         22   -1    0    0    0    0  0.00000000000E+00  0.00000000000E+00  0.37947324147E+02  0.37947324147E+02  0.00000000000E+00 0.  1.
         22   -1    0    0    0    0 -0.00000000000E+00 -0.00000000000E+00 -0.21515904104E+04  0.21515904104E+04  0.00000000000E+00 0. -1.
        -24    2    1    2    0    0  0.78004946344E+02 -0.35546898723E+02 -0.14421853296E+04  0.14469156032E+04  0.79485119249E+02 0.  0.
         25    2    1    2    0    0 -0.32493937363E+02  0.48064146724E+01 -0.61684828407E+03  0.63026112298E+03  0.12509324518E+03 0.  0.
         24    2    1    2    0    0 -0.45511008981E+02  0.30740484050E+02 -0.54609472603E+02  0.11236100840E+03  0.81403761657E+02 0.  0.
        -13    1    5    5    0    0 -0.62919754740E+02  0.12917819359E+02 -0.15641178318E+02  0.66109092057E+02  0.00000000000E+00 0.  1.
         14    1    5    5    0    0  0.17408745759E+02  0.17822664691E+02 -0.38968294285E+02  0.46251916339E+02  0.00000000000E+00 0. -1.
         11    1    3    3    0    0  0.64621840886E+02 -0.35948739809E+02 -0.14115079873E+04  0.14134436997E+04  0.00000000000E+00 0. -1.
        -12    1    3    3    0    0  0.13383105458E+02  0.40184108615E+00 -0.30677342305E+02  0.33471903425E+02  0.00000000000E+00 0.  1.
          5    1    4    4  501    0 -0.33379557075E+02 -0.44549944755E+02 -0.50316470846E+03  0.50625200113E+03  0.41800000000E+01 0.  1.
         -5    1    4    4    0  501  0.88561971194E+00  0.49356359427E+02 -0.11368357561E+03  0.12400912185E+03  0.41800000000E+01 0.  1.
</event>
<event>
11    1  0.8041700E-009  0.1342187E+03  0.7561462E-02  0.1114192E+00
         22   -1    0    0    0    0  0.00000000000E+00  0.00000000000E+00  0.18299835457E+04  0.18299835457E+04  0.00000000000E+00 0. -1.
         22   -1    0    0    0    0 -0.00000000000E+00 -0.00000000000E+00 -0.60439630084E+03  0.60439630084E+03  0.00000000000E+00 0. -1.
        -24    2    1    2    0    0  0.14472512008E+02  0.68803062050E+01 -0.57232819733E+03  0.57808141138E+03  0.79760645134E+02 0.  0.
         25    2    1    2    0    0 -0.28706788538E+02 -0.52890253003E+02  0.14501981100E+03  0.20074674067E+03  0.12508816786E+03 0.  0.
         24    2    1    2    0    0  0.14234276530E+02  0.46009946798E+02  0.16528956311E+04  0.16555516944E+04  0.80423352911E+02 0.  0.
        -11    1    5    5    0    0  0.25415319805E+02 -0.13581083398E+02  0.32584529123E+03  0.32711700984E+03  0.00000000000E+00 0.  1.
         12    1    5    5    0    0 -0.11181043274E+02  0.59591030196E+02  0.13270503399E+04  0.13284346846E+04  0.00000000000E+00 0. -1.
         13    1    3    3    0    0  0.40497040321E+02  0.16937638072E+01 -0.48790984165E+03  0.48959053575E+03  0.00000000000E+00 0. -1.
        -14    1    3    3    0    0 -0.26024528313E+02  0.51865423978E+01 -0.84418355671E+02  0.88490875632E+02  0.00000000000E+00 0.  1.
          5    1    4    4  501    0 -0.29427885253E+02 -0.72309478742E+02  0.29549580112E+02  0.83578174371E+02  0.41800000000E+01 0.  1.
         -5    1    4    4    0  501  0.72109671520E+00  0.19419225739E+02  0.11547023088E+03  0.11716856630E+03  0.41800000000E+01 0.  1.
</event>
<event>
11    1  0.8041700E-009  0.1451427E+03  0.7561462E-02  0.1101948E+00
         22   -1    0    0    0    0  0.00000000000E+00  0.00000000000E+00  0.18456411868E+03  0.18456411868E+03  0.00000000000E+00 0. -1.
         22   -1    0    0    0    0 -0.00000000000E+00 -0.00000000000E+00 -0.71248386714E+03  0.71248386714E+03  0.00000000000E+00 0. -1.
        -24    2    1    2    0    0 -0.52122850298E+02 -0.54362504326E+02 -0.44855731260E+03  0.46171177143E+03  0.79385287039E+02 0.  0.
         25    2    1    2    0    0  0.75301460044E+02  0.18021232987E+02 -0.22181044852E+03  0.26616382803E+03  0.12509289971E+03 0.  0.
         24    2    1    2    0    0 -0.23178609746E+02  0.36341271339E+02  0.14244801266E+03  0.16917238635E+03  0.80435838040E+02 0.  0.
        -11    1    5    5    0    0  0.63795090048E+01 -0.22701417485E+02  0.24526393393E+02  0.34023469309E+02  0.00000000000E+00 0.  1.
         12    1    5    5    0    0 -0.29558118751E+02  0.59042688824E+02  0.11792161927E+03  0.13514891704E+03  0.00000000000E+00 0. -1.
         13    1    3    3    0    0 -0.25589400530E+02 -0.72153813517E+02 -0.34226319017E+03  0.35072080287E+03  0.00000000000E+00 0. -1.
        -14    1    3    3    0    0 -0.26533449768E+02  0.17791309191E+02 -0.10629412243E+03  0.11099096856E+03  0.00000000000E+00 0.  1.
          5    1    4    4  501    0  0.13760159061E+02 -0.22609422581E+02 -0.17858262191E+03  0.18058170787E+03  0.41800000000E+01 0. -1.
         -5    1    4    4    0  501  0.61541300984E+02  0.40630655568E+02 -0.43227826604E+02  0.85582120163E+02  0.41800000000E+01 0. -1.
</event>
<event>
11    1  0.8041700E-009  0.3049394E+03  0.7561462E-02  0.9981222E-01
         22   -1    0    0    0    0  0.00000000000E+00  0.00000000000E+00  0.11263543942E+04  0.11263543942E+04  0.00000000000E+00 0. -1.
         22   -1    0    0    0    0 -0.00000000000E+00 -0.00000000000E+00 -0.13180421694E+04  0.13180421694E+04  0.00000000000E+00 0. -1.
        -24    2    1    2    0    0 -0.24724834196E+01 -0.40197490573E+02 -0.12114291379E+04  0.12147225810E+04  0.79802513815E+02 0.  0.
         25    2    1    2    0    0 -0.27545737563E+03  0.51136623527E+02  0.21713261678E+03  0.37588017320E+03  0.12509041242E+03 0.  0.
         24    2    1    2    0    0  0.27792985905E+03 -0.10939132954E+02  0.80260874588E+03  0.85379380948E+03  0.86130128131E+02 0.  0.
        -13    1    5    5    0    0  0.15532316206E+03 -0.14720890065E+00  0.31951726442E+03  0.35526974062E+03  0.00000000000E+00 0.  1.
         14    1    5    5    0    0  0.12260669699E+03 -0.10791924053E+02  0.48309148146E+03  0.49852406886E+03  0.00000000000E+00 0. -1.
         13    1    3    3    0    0  0.32151509781E+02 -0.43276102661E+02 -0.80939148359E+03  0.81118500625E+03  0.00000000000E+00 0. -1.
        -14    1    3    3    0    0 -0.34623993200E+02  0.30786120882E+01 -0.40203765426E+03  0.40353757471E+03  0.00000000000E+00 0.  1.
          5    1    4    4  501    0 -0.68585769329E+02 -0.12180244912E+02  0.63644810419E+00  0.69787130524E+02  0.41800000000E+01 0. -1.
         -5    1    4    4    0  501 -0.20687160630E+03  0.63316868439E+02  0.21649616868E+03  0.30609304268E+03  0.41800000000E+01 0. -1.
</event>
<event>
11    1  0.8041700E-009  0.1846492E+03  0.7561462E-02  0.1065943E+00
         22   -1    0    0    0    0  0.00000000000E+00  0.00000000000E+00  0.94143442406E+03  0.94143442406E+03  0.00000000000E+00 0.  1.
         22   -1    0    0    0    0 -0.00000000000E+00 -0.00000000000E+00 -0.18785852455E+04  0.18785852455E+04  0.00000000000E+00 0. -1.
        -24    2    1    2    0    0 -0.23966079963E+01 -0.51724400043E+02 -0.17718223445E+04  0.17744061515E+04  0.80508464263E+02 0.  0.
         25    2    1    2    0    0 -0.12919984875E+03  0.13860163365E+02 -0.15229279859E+02  0.18100996582E+03  0.12509185311E+03 0.  0.
         24    2    1    2    0    0  0.13159645675E+03  0.37864236678E+02  0.84990080297E+03  0.86460355216E+03  0.80352969267E+02 0.  0.
        -11    1    5    5    0    0  0.50284961301E+02  0.19389954231E+02  0.57011631011E+03  0.57265797359E+03  0.00000000000E+00 0.  1.
         12    1    5    5    0    0  0.81311495446E+02  0.18474282447E+02  0.27978449286E+03  0.29194557857E+03  0.00000000000E+00 0. -1.
         11    1    3    3    0    0 -0.37274600462E+02 -0.31062454116E+02 -0.12787229267E+04  0.12796431515E+04  0.00000000000E+00 0. -1.
        -12    1    3    3    0    0  0.34877992465E+02 -0.20661945928E+02 -0.49309941784E+03  0.49476300008E+03  0.00000000000E+00 0.  1.
          5    1    4    4  501    0  0.21388863888E+02  0.16860831775E+02 -0.12629723676E+02  0.30310946318E+02  0.41800000000E+01 0. -1.
         -5    1    4    4    0  501 -0.15058871264E+03 -0.30006684094E+01 -0.25995561827E+01  0.15069901950E+03  0.41800000000E+01 0. -1.
</event>
<event>
11    1  0.8041700E-009  0.1290584E+03  0.7561462E-02  0.1120431E+00
         22   -1    0    0    0    0  0.00000000000E+00  0.00000000000E+00  0.15223420087E+04  0.15223420087E+04  0.00000000000E+00 0. -1.
         22   -1    0    0    0    0 -0.00000000000E+00 -0.00000000000E+00 -0.82188064113E+02  0.82188064113E+02  0.00000000000E+00 0. -1.
         24    2    1    2    0    0 -0.26572714176E+02  0.18276912523E+02 -0.47254074024E+02  0.98591124184E+02  0.80293882619E+02 0.  0.
         25    2    1    2    0    0  0.40600143209E+01 -0.31085254118E+02  0.55024851329E+03  0.56515736987E+03  0.12508656845E+03 0.  0.
        -24    2    1    2    0    0  0.22512699855E+02  0.12808341595E+02  0.93715950536E+03  0.94078157879E+03  0.78301757584E+02 0.  0.
        -13    1    3    3    0    0  0.21227331713E+02 -0.10865592440E+02 -0.33189537151E+02  0.40868154926E+02  0.00000000000E+00 0.  1.
         14    1    3    3    0    0 -0.47800045889E+02  0.29142504963E+02 -0.14064536872E+02  0.57722969258E+02  0.00000000000E+00 0. -1.
         11    1    5    5    0    0 -0.14431206981E+02  0.31689166824E+02  0.61138747516E+03  0.61237823917E+03  0.00000000000E+00 0. -1.
        -12    1    5    5    0    0  0.36943906836E+02 -0.18880825229E+02  0.32577203020E+03  0.32840333962E+03  0.00000000000E+00 0.  1.
          5    1    4    4  501    0  0.57468286983E+02  0.11976502075E+02  0.21329934969E+03  0.22126935077E+03  0.41800000000E+01 0. -1.
         -5    1    4    4    0  501 -0.53408272662E+02 -0.43061756193E+02  0.33694916360E+03  0.34388801910E+03  0.41800000000E+01 0. -1.
</event>
<event>
11    1  0.8041700E-009  0.1474330E+03  0.7561462E-02  0.1099531E+00
         22   -1    0    0    0    0  0.00000000000E+00  0.00000000000E+00  0.21622359098E+03  0.21622359098E+03  0.00000000000E+00 0. -1.
         22   -1    0    0    0    0 -0.00000000000E+00 -0.00000000000E+00 -0.26938878568E+04  0.26938878568E+04  0.00000000000E+00 0. -1.
        -24    2    1    2    0    0 -0.78891127229E+02 -0.56635499877E+01 -0.20403492060E+04  0.20434991039E+04  0.81288494887E+02 0.  0.
         25    2    1    2    0    0  0.65727624951E+02  0.55418901578E+02 -0.63172738714E+03  0.64970626476E+03  0.12508942190E+03 0.  0.
         24    2    1    2    0    0  0.13163502278E+02 -0.49755351590E+02  0.19441232737E+03  0.21690607909E+03  0.81260207420E+02 0.  0.
        -13    1    5    5    0    0  0.21515630471E+02  0.16846294561E+02  0.39028353230E+02  0.47643807057E+02  0.00000000000E+00 0.  1.
         14    1    5    5    0    0 -0.83521281925E+01 -0.66601646151E+02  0.15538397414E+03  0.16926227204E+03  0.00000000000E+00 0. -1.
         13    1    3    3    0    0 -0.51920892897E+02  0.57546196535E+01 -0.18641955573E+04  0.18649273365E+04  0.00000000000E+00 0. -1.
        -14    1    3    3    0    0 -0.26970234332E+02 -0.11418169641E+02 -0.17615364873E+03  0.17857176736E+03  0.00000000000E+00 0.  1.
          5    1    4    4  501    0  0.45707058989E+02 -0.21615268007E+02 -0.10098219184E+03  0.11300986913E+03  0.41800000000E+01 0. -1.
         -5    1    4    4    0  501  0.20020565962E+02  0.77034169585E+02 -0.53074519530E+03  0.53669639563E+03  0.41800000000E+01 0. -1.
</event>
<event>
11    1  0.8041700E-009  0.1382103E+03  0.7561462E-02  0.1109573E+00
         22   -1    0    0    0    0  0.00000000000E+00  0.00000000000E+00  0.20794311173E+03  0.20794311173E+03  0.00000000000E+00 0.  1.
         22   -1    0    0    0    0 -0.00000000000E+00 -0.00000000000E+00 -0.12079612425E+04  0.12079612425E+04  0.00000000000E+00 0. -1.
         24    2    1    2    0    0  0.43946854936E+02 -0.38766997541E+02 -0.10595195952E+04  0.10640574668E+04  0.78754771490E+02 0.  0.
         25    2    1    2    0    0 -0.32600207286E+02  0.55868771147E+02 -0.98355161488E+02  0.17177067519E+03  0.12508930394E+03 0.  0.
        -24    2    1    2    0    0 -0.11346647649E+02 -0.17101773606E+02  0.15785662591E+03  0.18007621218E+03  0.84187355196E+02 0.  0.
        -11    1    3    3    0    0  0.98382680926E+01 -0.16471006249E+02 -0.47645717209E+02  0.51363410462E+02  0.00000000000E+00 0.  1.
         12    1    3    3    0    0  0.34108586843E+02 -0.22295991292E+02 -0.10118738780E+04  0.10126940564E+04  0.00000000000E+00 0. -1.
         13    1    5    5    0    0  0.26271761243E+02 -0.35971063185E+02  0.79054696545E+02  0.90740111700E+02  0.00000000000E+00 0. -1.
        -14    1    5    5    0    0 -0.37618408893E+02  0.18869289579E+02  0.78801929366E+02  0.89336100478E+02  0.00000000000E+00 0.  1.
          5    1    4    4  501    0 -0.43318114006E+02 -0.18077006272E+02  0.13036302821E+01  0.47142433207E+02  0.41800000000E+01 0.  1.
         -5    1    4    4    0  501  0.10717906719E+02  0.73945777419E+02 -0.99658791770E+02  0.12462824198E+03  0.41800000000E+01 0.  1.
</event>
<event>
11    1  0.8041700E-009  0.1357935E+03  0.7561462E-02  0.1112349E+00
         22   -1    0    0    0    0  0.00000000000E+00  0.00000000000E+00  0.32273625262E+04  0.32273625262E+04  0.00000000000E+00 0. -1.
         22   -1    0    0    0    0 -0.00000000000E+00 -0.00000000000E+00 -0.18299029353E+03  0.18299029353E+03  0.00000000000E+00 0. -1.
        -24    2    1    2    0    0 -0.10471224664E+02 -0.25413118526E+02 -0.14034969002E+03  0.16394089475E+03  0.80144297015E+02 0.  0.
         25    2    1    2    0    0  0.17368143250E+02  0.77150493614E+02  0.15186289829E+03  0.21204608872E+03  0.12508937924E+03 0.  0.
         24    2    1    2    0    0 -0.68969185864E+01 -0.51737375088E+02  0.30328590244E+04  0.30343658363E+04  0.80111440563E+02 0.  0.
        -13    1    5    5    0    0 -0.28423078708E+02  0.91828635545E+01  0.75496191044E+03  0.75555256773E+03  0.00000000000E+00 0.  1.
         14    1    5    5    0    0  0.21526160121E+02 -0.60920238643E+02  0.22778971140E+04  0.22788132686E+04  0.00000000000E+00 0. -1.
         11    1    3    3    0    0 -0.19622296583E+02  0.20864384996E+01 -0.13243553241E+03  0.13389756530E+03  0.00000000000E+00 0. -1.
        -12    1    3    3    0    0  0.91510719192E+01 -0.27499557026E+02 -0.79141576125E+01  0.30043329453E+02  0.00000000000E+00 0.  1.
          5    1    4    4  501    0  0.65283440904E+02  0.47131532373E+02  0.12632724623E+03  0.14986445389E+03  0.41800000000E+01 0. -1.
         -5    1    4    4    0  501 -0.47915297654E+02  0.30018961241E+02  0.25535652057E+02  0.62181634823E+02  0.41800000000E+01 0. -1.
</event>
<event>
11    1  0.8041700E-009  0.1330149E+03  0.7561462E-02  0.1115619E+00
         22   -1    0    0    0    0  0.00000000000E+00  0.00000000000E+00  0.11954234792E+03  0.11954234792E+03  0.00000000000E+00 0.  1.
         22   -1    0    0    0    0 -0.00000000000E+00 -0.00000000000E+00 -0.42269309055E+03  0.42269309055E+03  0.00000000000E+00 0. -1.
        -24    2    1    2    0    0 -0.95857992830E+01  0.18896566698E+02 -0.29037473799E+03  0.30195451379E+03  0.80062926203E+02 0.  0.
         25    2    1    2    0    0 -0.20899880134E+02  0.21036501374E+02 -0.52735064751E+02  0.13896227180E+03  0.12510070563E+03 0.  0.
         24    2    1    2    0    0  0.30485679417E+02 -0.39933068071E+02  0.39959060117E+02  0.10131865289E+03  0.78388241224E+02 0.  0.
        -13    1    5    5    0    0  0.90274434725E+01 -0.25976309771E+02  0.61817219145E+02  0.67658199708E+02  0.00000000000E+00 0.  1.
         14    1    5    5    0    0  0.21458235945E+02 -0.13956758300E+02 -0.21858159028E+02  0.33660453179E+02  0.00000000000E+00 0. -1.
         13    1    3    3    0    0  0.33680539355E+01  0.49398044309E+02 -0.16440266998E+03  0.17169667576E+03  0.00000000000E+00 0. -1.
        -14    1    3    3    0    0 -0.12953853218E+02 -0.30501477612E+02 -0.12597206801E+03  0.13025783803E+03  0.00000000000E+00 0.  1.
          5    1    4    4  501    0  0.31842347844E+02  0.12979066300E+02  0.26314237742E+02  0.43500606733E+02  0.41800000000E+01 0. -1.
         -5    1    4    4    0  501 -0.52742227978E+02  0.80574350732E+01 -0.79049302492E+02  0.95461665063E+02  0.41800000000E+01 0. -1.
</event>
<event>
11    1  0.8041700E-009  0.1510523E+03  0.7561462E-02  0.1095808E+00
         22   -1    0    0    0    0  0.00000000000E+00  0.00000000000E+00  0.20371146696E+04  0.20371146696E+04  0.00000000000E+00 0. -1.
         22   -1    0    0    0    0 -0.00000000000E+00 -0.00000000000E+00 -0.71837555184E+02  0.71837555184E+02  0.00000000000E+00 0. -1.
         24    2    1    2    0    0 -0.68393752706E+02 -0.16074302020E+02 -0.10066570146E+02  0.10616721494E+03  0.78956020025E+02 0.  0.
         25    2    1    2    0    0 -0.20373047694E+01 -0.49159757521E+02  0.39493398304E+03  0.41717948760E+03  0.12508014049E+03 0.  0.
        -24    2    1    2    0    0  0.70431057475E+02  0.65234059542E+02  0.15804097015E+04  0.15856055222E+04  0.85053107710E+02 0.  0.
        -11    1    3    3    0    0  0.16831029166E+02 -0.26574943025E+01  0.66446000085E+01  0.18289246240E+02  0.00000000000E+00 0.  1.
         12    1    3    3    0    0 -0.85224781872E+02 -0.13416807718E+02 -0.16711170155E+02  0.87877968697E+02  0.00000000000E+00 0. -1.
         13    1    5    5    0    0  0.26318527390E+02  0.19431007901E+02  0.11555657349E+04  0.11560287180E+04  0.00000000000E+00 0. -1.
        -14    1    5    5    0    0  0.44112530085E+02  0.45803051640E+02  0.42484396656E+03  0.42957680428E+03  0.00000000000E+00 0.  1.
          5    1    4    4  501    0 -0.77814534854E+01 -0.90076838152E+02  0.30448197135E+03  0.31764938386E+03  0.41800000000E+01 0.  1.
         -5    1    4    4    0  501  0.57441487160E+01  0.40917080631E+02  0.90452011697E+02  0.99530103747E+02  0.41800000000E+01 0.  1.
</event>
<event>
11    1  0.8041700E-009  0.1405295E+03  0.7561462E-02  0.1106969E+00
         22   -1    0    0    0    0  0.00000000000E+00  0.00000000000E+00  0.22596673493E+03  0.22596673493E+03  0.00000000000E+00 0.  1.
         22   -1    0    0    0    0 -0.00000000000E+00 -0.00000000000E+00 -0.14862112020E+04  0.14862112020E+04  0.00000000000E+00 0.  1.
        -24    2    1    2    0    0 -0.10163038607E+02  0.21579606646E+02 -0.12792374665E+04  0.12820283443E+04  0.81112348927E+02 0.  0.
         25    2    1    2    0    0 -0.54398419607E+02 -0.24124671826E+02 -0.16763150821E+03  0.21746112102E+03  0.12509128172E+03 0.  0.
         24    2    1    2    0    0  0.64561458214E+02  0.25450651794E+01  0.18662450761E+03  0.21268847164E+03  0.78949476794E+02 0.  0.
        -11    1    5    5    0    0  0.37485807149E+02 -0.14632664252E+02  0.17339221226E+03  0.17800044908E+03  0.00000000000E+00 0.  1.
         12    1    5    5    0    0  0.27075651065E+02  0.17177729432E+02  0.13232295348E+02  0.34688022561E+02  0.00000000000E+00 0. -1.
         11    1    3    3    0    0 -0.21687292840E+02 -0.25778748824E+02 -0.38827739604E+03  0.38973608871E+03  0.00000000000E+00 0. -1.
        -12    1    3    3    0    0  0.11524254233E+02  0.47358355470E+02 -0.89096007046E+03  0.89229225562E+03  0.00000000000E+00 0.  1.
          5    1    4    4  501    0  0.47456419339E+01  0.37054437203E+02 -0.10555414675E+03  0.11204776986E+03  0.41800000000E+01 0. -1.
         -5    1    4    4    0  501 -0.59144061541E+02 -0.61179109028E+02 -0.62077361460E+02  0.10541335116E+03  0.41800000000E+01 0. -1.
</event>
<event>
11    1  0.8041700E-009  0.1478067E+03  0.7561462E-02  0.1099141E+00
         22   -1    0    0    0    0  0.00000000000E+00  0.00000000000E+00  0.79051686081E+03  0.79051686081E+03  0.00000000000E+00 0.  1.
         22   -1    0    0    0    0 -0.00000000000E+00 -0.00000000000E+00 -0.24463196658E+03  0.24463196658E+03  0.00000000000E+00 0.  1.
        -24    2    1    2    0    0 -0.29315605800E+02 -0.63271251550E+02 -0.12590905957E+03  0.16416667362E+03  0.78961695966E+02 0.  0.
         25    2    1    2    0    0  0.97475654237E+02  0.96901598043E+02 -0.33670412783E+01  0.18587227726E+03  0.12508294694E+03 0.  0.
         24    2    1    2    0    0 -0.68160048437E+02 -0.33630346493E+02  0.67516099507E+03  0.68510987651E+03  0.88070319756E+02 0.  0.
        -13    1    5    5    0    0 -0.59949757632E+01 -0.19514128218E+02  0.46607518404E+03  0.46652204462E+03  0.00000000000E+00 0.  1.
         14    1    5    5    0    0 -0.62165072674E+02 -0.14116218275E+02  0.20908581103E+03  0.21858783189E+03  0.00000000000E+00 0. -1.
         13    1    3    3    0    0 -0.82160980132E+01 -0.22020991583E+02  0.60833195516E+01  0.24278284817E+02  0.00000000000E+00 0. -1.
        -14    1    3    3    0    0 -0.21099507787E+02 -0.41250259967E+02 -0.13199237912E+03  0.13988838880E+03  0.00000000000E+00 0.  1.
          5    1    4    4  501    0  0.10721719459E+02 -0.87526086226E+01  0.39884887859E+02  0.42424522454E+02  0.41800000000E+01 0.  1.
         -5    1    4    4    0  501  0.86753934778E+02  0.10565420667E+03 -0.43251929138E+02  0.14344775481E+03  0.41800000000E+01 0.  1.
</event>
<event>
11    1  0.8041700E-009  0.2091952E+03  0.7561462E-02  0.1048205E+00
         22   -1    0    0    0    0  0.00000000000E+00  0.00000000000E+00  0.22202977349E+03  0.22202977349E+03  0.00000000000E+00 0.  1.
         22   -1    0    0    0    0 -0.00000000000E+00 -0.00000000000E+00 -0.53814211868E+03  0.53814211868E+03  0.00000000000E+00 0. -1.
        -24    2    1    2    0    0  0.13819279393E+03 -0.90029146534E+02 -0.32155895381E+03  0.37025370420E+03  0.80530423968E+02 0.  0.
         25    2    1    2    0    0 -0.16527430648E+03  0.65428884802E+02 -0.11077010316E+03  0.24395223103E+03  0.12508453111E+03 0.  0.
         24    2    1    2    0    0  0.27081512549E+02  0.24600261731E+02  0.11621671177E+03  0.14596595694E+03  0.80381311821E+02 0.  0.
        -13    1    5    5    0    0 -0.18722037490E+02 -0.43814566019E+01  0.76209475218E+02  0.78597684208E+02  0.00000000000E+00 0.  1.
         14    1    5    5    0    0  0.45803550040E+02  0.28981718333E+02  0.40007236553E+02  0.67368272728E+02  0.00000000000E+00 0. -1.
         13    1    3    3    0    0  0.12769240044E+03 -0.95339917242E+02 -0.32110982084E+03  0.35847812484E+03  0.00000000000E+00 0. -1.
        -14    1    3    3    0    0  0.10500393489E+02  0.53107707085E+01 -0.44913296757E+00  0.11775579364E+02  0.00000000000E+00 0.  1.
          5    1    4    4  501    0 -0.17443017768E+03  0.64148806771E+02 -0.12676826326E+03  0.22500804712E+03  0.41800000000E+01 0. -1.
         -5    1    4    4    0  501  0.91558712055E+01  0.12800780315E+01  0.15998160106E+02  0.18944183912E+02  0.41800000000E+01 0. -1.
</event>
<event>
11    1  0.8041700E-009  0.1562797E+03  0.7561462E-02  0.1090629E+00
         22   -1    0    0    0    0  0.00000000000E+00  0.00000000000E+00  0.79704545594E+02  0.79704545594E+02  0.00000000000E+00 0.  1.
         22   -1    0    0    0    0 -0.00000000000E+00 -0.00000000000E+00 -0.90692060027E+03  0.90692060027E+03  0.00000000000E+00 0. -1.
         24    2    1    2    0    0  0.22308604891E+02 -0.26442396180E+02 -0.49668442161E+03  0.50438424801E+03  0.80691888091E+02 0.  0.
         25    2    1    2    0    0 -0.88387274372E+02 -0.40443885078E+02 -0.32062028301E+03  0.35762169454E+03  0.12509153615E+03 0.  0.
        -24    2    1    2    0    0  0.66078669482E+02  0.66886281258E+02 -0.99113500566E+01  0.12461920332E+03  0.81188335332E+02 0.  0.
        -11    1    3    3    0    0  0.19901812442E+02 -0.55333817848E+02 -0.33258462184E+03  0.33774316310E+03  0.00000000000E+00 0.  1.
         12    1    3    3    0    0  0.24067924485E+01  0.28891421668E+02 -0.16409979976E+03  0.16664108491E+03  0.00000000000E+00 0. -1.
         13    1    5    5    0    0  0.45151335705E+02  0.12376039419E+02 -0.37553494680E+02  0.60017284429E+02  0.00000000000E+00 0. -1.
        -14    1    5    5    0    0  0.20927333777E+02  0.54510241840E+02  0.27642144623E+02  0.64601918886E+02  0.00000000000E+00 0.  1.
          5    1    4    4  501    0 -0.13609474540E+02 -0.63343716121E+02 -0.22415190983E+03  0.23336494006E+03  0.41800000000E+01 0. -1.
         -5    1    4    4    0  501 -0.74777799833E+02  0.22899831043E+02 -0.96468373187E+02  0.12425675448E+03  0.41800000000E+01 0. -1.
</event>
<event>
11    1  0.8041700E-009  0.1299718E+03  0.7561462E-02  0.1119304E+00
         22   -1    0    0    0    0  0.00000000000E+00  0.00000000000E+00  0.12530583250E+04  0.12530583250E+04  0.00000000000E+00 0.  1.
         22   -1    0    0    0    0 -0.00000000000E+00 -0.00000000000E+00 -0.20312041913E+03  0.20312041913E+03  0.00000000000E+00 0. -1.
         24    2    1    2    0    0  0.11388847721E+02 -0.41874687574E+00 -0.10403733729E+03  0.13475943583E+03  0.84890852232E+02 0.  0.
         25    2    1    2    0    0 -0.23025551082E+02 -0.32832506240E+02 -0.29651807305E+02  0.13466443010E+03  0.12508848704E+03 0.  0.
        -24    2    1    2    0    0  0.11636703362E+02  0.33251253116E+02  0.11836270504E+04  0.11867548782E+04  0.78568999470E+02 0.  0.
        -13    1    3    3    0    0 -0.34271893901E+02  0.12954991397E+02 -0.33305272117E+02  0.49513994632E+02  0.00000000000E+00 0.  1.
         14    1    3    3    0    0  0.45660741622E+02 -0.13373738273E+02 -0.70732065171E+02  0.85245441193E+02  0.00000000000E+00 0. -1.
         11    1    5    5    0    0  0.30938542117E+02 -0.12777400698E+02  0.62764969516E+03  0.62854164157E+03  0.00000000000E+00 0. -1.
        -12    1    5    5    0    0 -0.19301838755E+02  0.46028653814E+02  0.55597735527E+03  0.55821323661E+03  0.00000000000E+00 0.  1.
          5    1    4    4  501    0  0.37324658709E+02 -0.39354460561E+02 -0.46460679843E+02  0.71539995005E+02  0.41800000000E+01 0.  1.
         -5    1    4    4    0  501 -0.60350209791E+02  0.65219543210E+01  0.16808872538E+02  0.63124435095E+02  0.41800000000E+01 0.  1.
</event>
<event>
11    1  0.8041700E-009  0.1956257E+03  0.7561462E-02  0.1057661E+00
         22   -1    0    0    0    0  0.00000000000E+00  0.00000000000E+00  0.54946742322E+03  0.54946742322E+03  0.00000000000E+00 0. -1.
         22   -1    0    0    0    0 -0.00000000000E+00 -0.00000000000E+00 -0.52453112817E+03  0.52453112817E+03  0.00000000000E+00 0.  1.
         24    2    1    2    0    0 -0.14816096740E+03  0.92348847170E+02 -0.40619976913E+03  0.44957260822E+03  0.81469600369E+02 0.  0.
         25    2    1    2    0    0  0.62820108862E+02 -0.51376424683E+02 -0.26080369672E+02  0.15136753650E+03  0.12508414101E+03 0.  0.
        -24    2    1    2    0    0  0.85340858536E+02 -0.40972422487E+02  0.45721643386E+03  0.47305840668E+03  0.75997284137E+02 0.  0.
        -13    1    3    3    0    0 -0.13153089245E+03  0.73105687048E+02 -0.39319484154E+03  0.42100712650E+03  0.00000000000E+00 0.  1.
         14    1    3    3    0    0 -0.16630074950E+02  0.19243160122E+02 -0.13004927590E+02  0.28565481721E+02  0.00000000000E+00 0. -1.
         11    1    5    5    0    0  0.99201060430E+02 -0.41103027553E+02  0.39680636962E+03  0.41107858644E+03  0.00000000000E+00 0. -1.
        -12    1    5    5    0    0 -0.13860201894E+02  0.13060506611E+00  0.60410064243E+02  0.61979820233E+02  0.00000000000E+00 0.  1.
          5    1    4    4  501    0  0.83017141950E+02 -0.47082559533E+02 -0.59001904460E+02  0.11228227999E+03  0.41800000000E+01 0. -1.
         -5    1    4    4    0  501 -0.20197033089E+02 -0.42938651498E+01  0.32921534787E+02  0.39085256507E+02  0.41800000000E+01 0. -1.
</event>
<event>
11    1  0.8041700E-009  0.1463476E+03  0.7561462E-02  0.1100670E+00
         22   -1    0    0    0    0  0.00000000000E+00  0.00000000000E+00  0.56483915054E+03  0.56483915054E+03  0.00000000000E+00 0.  1.
         22   -1    0    0    0    0 -0.00000000000E+00 -0.00000000000E+00 -0.17814597476E+03  0.17814597476E+03  0.00000000000E+00 0. -1.
         24    2    1    2    0    0 -0.26742140135E+02  0.11028520082E+02 -0.13223114034E+03  0.15774400957E+03  0.81002023217E+02 0.  0.
         25    2    1    2    0    0  0.95004730128E+02 -0.52892854343E+01  0.23748083942E+03  0.28477367983E+03  0.12508007174E+03 0.  0.
        -24    2    1    2    0    0 -0.68262589993E+02 -0.57392346479E+01  0.28144347669E+03  0.30046743589E+03  0.79859435581E+02 0.  0.
        -13    1    3    3    0    0 -0.31318028284E+02  0.17080687581E+02 -0.12540508675E+02  0.37813134512E+02  0.00000000000E+00 0.  1.
         14    1    3    3    0    0  0.45758881486E+01 -0.60521674992E+01 -0.11969063166E+03  0.11993087505E+03  0.00000000000E+00 0. -1.
         11    1    5    5    0    0  0.54191182581E+01  0.13325549316E+01 -0.31481147682E+01  0.64072749227E+01  0.00000000000E+00 0. -1.
        -12    1    5    5    0    0 -0.73681708251E+02 -0.70717895796E+01  0.28459159146E+03  0.29406016097E+03  0.00000000000E+00 0.  1.
          5    1    4    4  501    0  0.86287227945E+02  0.14668207214E+02  0.24590584846E+03  0.26105133732E+03  0.41800000000E+01 0.  1.
         -5    1    4    4    0  501  0.87175021830E+01 -0.19957492648E+02 -0.84250090370E+01  0.23722342514E+02  0.41800000000E+01 0.  1.
</event>
<event>
11    1  0.8041700E-009  0.1717664E+03  0.7561462E-02  0.1076505E+00
         22   -1    0    0    0    0  0.00000000000E+00  0.00000000000E+00  0.98401437422E+03  0.98401437422E+03  0.00000000000E+00 0.  1.
         22   -1    0    0    0    0 -0.00000000000E+00 -0.00000000000E+00 -0.13926267249E+03  0.13926267249E+03  0.00000000000E+00 0. -1.
         24    2    1    2    0    0  0.35219138463E+02 -0.10737256203E+03 -0.26813492764E+02  0.14149165619E+03  0.80818751452E+02 0.  0.
         25    2    1    2    0    0 -0.55366874990E+02  0.11888046055E+03  0.10232142933E+03  0.20811901515E+03  0.12508315162E+03 0.  0.
        -24    2    1    2    0    0  0.20147736527E+02 -0.11507898524E+02  0.76924376516E+03  0.77366637537E+03  0.79280054991E+02 0.  0.
        -13    1    3    3    0    0  0.60811794387E+01 -0.10484219107E+02  0.25027994293E+02  0.27808273804E+02  0.00000000000E+00 0.  1.
         14    1    3    3    0    0  0.29137959025E+02 -0.96888342923E+02 -0.51841487057E+02  0.11368338239E+03  0.00000000000E+00 0. -1.
         13    1    5    5    0    0 -0.16612889179E+01  0.31709205618E+02  0.21787100731E+03  0.22017268093E+03  0.00000000000E+00 0. -1.
        -14    1    5    5    0    0  0.21809025445E+02 -0.43217104142E+02  0.55137275785E+03  0.55349369444E+03  0.00000000000E+00 0.  1.
          5    1    4    4  501    0 -0.10627936814E+02  0.78744682984E+02  0.12119723536E+03  0.14498248307E+03  0.41800000000E+01 0. -1.
         -5    1    4    4    0  501 -0.44738938176E+02  0.40135777569E+02 -0.18875806022E+02  0.63136532081E+02  0.41800000000E+01 0. -1.
</event>
<event>
11    1  0.8041700E-009  0.1594673E+03  0.7561462E-02  0.1087579E+00
         22   -1    0    0    0    0  0.00000000000E+00  0.00000000000E+00  0.64489146458E+03  0.64489146458E+03  0.00000000000E+00 0.  1.
         22   -1    0    0    0    0 -0.00000000000E+00 -0.00000000000E+00 -0.83302912344E+03  0.83302912344E+03  0.00000000000E+00 0. -1.
         24    2    1    2    0    0 -0.31341401664E+02  0.14646526879E+02 -0.64650868683E+03  0.65232039232E+03  0.79696975388E+02 0.  0.
         25    2    1    2    0    0  0.10968465896E+03  0.44750424673E+02 -0.13506633172E+03  0.21891656044E+03  0.12509285171E+03 0.  0.
        -24    2    1    2    0    0 -0.78343257298E+02 -0.59396951552E+02  0.59343735969E+03  0.60668363526E+03  0.78939657988E+02 0.  0.
        -11    1    3    3    0    0 -0.47679552860E+02 -0.17331367154E+02 -0.35438302464E+03  0.35799587177E+03  0.00000000000E+00 0.  1.
         12    1    3    3    0    0  0.16338151197E+02  0.31977894033E+02 -0.29212566219E+03  0.29432452056E+03  0.00000000000E+00 0. -1.
         11    1    5    5    0    0 -0.35118063885E+02 -0.63302044883E+02  0.24255131696E+03  0.25312362327E+03  0.00000000000E+00 0. -1.
        -12    1    5    5    0    0 -0.43225193413E+02  0.39050933312E+01  0.35088604273E+03  0.35356001200E+03  0.00000000000E+00 0.  1.
          5    1    4    4  501    0  0.82371299356E+02  0.55945111791E+02 -0.22099599230E+02  0.10208208059E+03  0.41800000000E+01 0. -1.
         -5    1    4    4    0  501  0.27313359606E+02 -0.11194687118E+02 -0.11296673249E+03  0.11683447985E+03  0.41800000000E+01 0. -1.
</event>
<event>
11    1  0.8041700E-009  0.1663291E+03  0.7561462E-02  0.1081271E+00
         22   -1    0    0    0    0  0.00000000000E+00  0.00000000000E+00  0.15573377016E+03  0.15573377016E+03  0.00000000000E+00 0. -1.
         22   -1    0    0    0    0 -0.00000000000E+00 -0.00000000000E+00 -0.91245116922E+03  0.91245116922E+03  0.00000000000E+00 0. -1.
         24    2    1    2    0    0  0.10322659132E+03 -0.31753850738E+02 -0.69121484255E+03  0.70425805758E+03  0.80854294351E+02 0.  0.
         25    2    1    2    0    0 -0.11601861669E+03  0.27049946552E+02 -0.16311649545E+03  0.23758602983E+03  0.12509241167E+03 0.  0.
        -24    2    1    2    0    0  0.12792025372E+02  0.47039041861E+01  0.97613938940E+02  0.12634085196E+03  0.79042818595E+02 0.  0.
        -13    1    3    3    0    0  0.48818672080E+02  0.15642587730E+02 -0.15614631573E+03  0.16434605323E+03  0.00000000000E+00 0.  1.
         14    1    3    3    0    0  0.54407919240E+02 -0.47396438468E+02 -0.53506852682E+03  0.53991200435E+03  0.00000000000E+00 0. -1.
         13    1    5    5    0    0  0.31357684953E+01 -0.15142399314E+02  0.10256284004E+03  0.10372203940E+03  0.00000000000E+00 0. -1.
        -14    1    5    5    0    0  0.96562568770E+01  0.19846303500E+02 -0.49489010988E+01  0.22618812559E+02  0.00000000000E+00 0.  1.
          5    1    4    4  501    0 -0.11776601472E+03 -0.21909976631E+02 -0.91860515318E+02  0.15101227756E+03  0.41800000000E+01 0.  1.
         -5    1    4    4    0  501  0.17473980312E+01  0.48959923183E+02 -0.71255980128E+02  0.86573752269E+02  0.41800000000E+01 0.  1.
</event>
<event>
11    1  0.8041700E-009  0.1376409E+03  0.7561462E-02  0.1110222E+00
         22   -1    0    0    0    0  0.00000000000E+00  0.00000000000E+00  0.12846012710E+04  0.12846012710E+04  0.00000000000E+00 0. -1.
         22   -1    0    0    0    0 -0.00000000000E+00 -0.00000000000E+00 -0.27440831060E+03  0.27440831060E+03  0.00000000000E+00 0. -1.
        -24    2    1    2    0    0 -0.40647230933E+02  0.42217314274E+02 -0.24825849896E+03  0.26791529968E+03  0.81925737658E+02 0.  0.
         25    2    1    2    0    0  0.13699509812E+02 -0.19006051596E+02  0.26912195730E+03  0.29769740808E+03  0.12509281480E+03 0.  0.
         24    2    1    2    0    0  0.26947721121E+02 -0.23211262677E+02  0.98932950207E+03  0.99339687383E+03  0.82459340852E+02 0.  0.
        -13    1    5    5    0    0  0.12899550249E+02  0.15879942773E+01  0.21329399621E+02  0.24977257869E+02  0.00000000000E+00 0.  1.
         14    1    5    5    0    0  0.14048170872E+02 -0.24799256954E+02  0.96800010245E+03  0.96841961597E+03  0.00000000000E+00 0. -1.
         13    1    3    3    0    0  0.84083234873E+01  0.28991971249E+02 -0.18165192673E+03  0.18414303350E+03  0.00000000000E+00 0. -1.
        -14    1    3    3    0    0 -0.49055554421E+02  0.13225343025E+02 -0.66606572233E+02  0.83772266188E+02  0.00000000000E+00 0.  1.
          5    1    4    4  501    0 -0.29116786325E+02  0.55658710958E+01  0.23648119382E+03  0.23836860867E+03  0.41800000000E+01 0.  1.
         -5    1    4    4    0  501  0.42816296137E+02 -0.24571922692E+02  0.32640763472E+02  0.59328799412E+02  0.41800000000E+01 0.  1.
</event>
